
96504  0.0000000e+00
  67.6913786  60.5765629  45.4232740  66.6840601  60.5088711  45.3943491
  68.0588102  60.7816076  44.5050955  68.0228853  61.3049698  46.0394144
  68.1656885  59.2439556  45.8786678  67.8662062  58.6107826  45.0435019
  69.6609020  59.1652250  46.1070633  69.9754906  59.8772287  46.8700695
  69.9561262  58.1501293  46.3726091  70.4575396  59.5072937  44.8660898
  69.8637438  59.3169832  43.8018990  71.7100811  59.7593212  44.8770905
  72.2353554  59.8484135  44.0190411  72.2662163  59.9195099  45.7048321
  67.4742317  58.9190722  47.1957779  67.4728298  59.8300028  48.0205297
  66.8965292  57.7432108  47.3280191  66.9173098  57.0378113  46.6054726
  66.3829184  57.2056866  48.5765934  65.5239010  57.8343773  48.8109970
  65.7116508  55.7757711  48.4047508  66.4653301  55.1031923  47.9952288
  65.4482460  55.4785299  49.4198227  64.5091915  55.8525562  47.4723816
  64.7125101  56.6652632  46.7750502  64.4206333  54.6738291  46.5361929
  63.8139105  53.8314152  46.8683338  63.9327669  55.1376867  45.6789207
  65.3935909  54.3370342  46.1783838  63.2100534  56.1041737  48.2456160
  62.4068451  56.1524487  47.5103426  63.1057549  55.4056787  49.0758753
  63.2184124  57.0641470  48.7618351  67.4092245  57.3529387  49.6934748
  68.5100603  56.8211603  49.6082687  67.0738316  58.1043339  50.7901669
  66.2062311  58.6101055  50.6826305  67.9883242  58.3945274  51.9644785
  68.8554192  58.9019203  51.5416241  67.3192358  59.2937231  53.0349255
  66.9926405  60.2171278  52.5566387  66.3920450  58.8431931  53.3891106
  68.2046270  59.4466400  54.0851736  68.7464952  60.2159071  53.8948917
  68.4932518  57.1473789  52.6178169  67.7380848  56.1896944  52.9591084
  69.8386288  57.0121479  52.8628016  70.8405113  58.0299950  52.5985813
  70.7402039  58.8220167  53.3407021  70.7990980  58.3348799  51.5529108
  72.1949148  57.3155785  52.7905178  72.8600121  58.0314302  53.2735300
  72.5809097  56.8501997  51.8835831  71.8909407  56.1521673  53.7446594
  72.1389246  56.4489269  54.7637463  72.4944592  55.2988911  53.4351730
  70.4071426  55.8339834  53.5178947  70.1192427  55.0793314  52.7859640
  69.7640228  55.5598450  54.9051523  69.6552467  54.4211817  55.2920723
  69.3906689  56.5838766  55.6167746  69.3893623  57.4749994  55.1413822
  68.7499046  56.5589952  56.9124031  69.3050957  55.7713223  57.4217558
  69.0505028  57.9731131  57.6079035  70.1378155  57.9873896  57.5327730
  68.6142588  58.7717104  57.0078707  68.5761833  58.1770658  59.0349865
  68.7617779  57.2975397  59.6515036  69.4096565  59.2895269  59.6676016
  69.0401077  59.4263268  60.6838799  70.4443073  58.9553976  59.5903921
  69.4520330  60.1862431  59.0493727  67.0341873  58.5148430  59.1332817
  66.7824888  59.4194221  58.5796690  66.4149857  57.6668262  58.8407755
  66.7758703  58.7060881  60.1748180  67.3054886  56.1772203  56.7933559
  66.8294954  55.4168749  57.6499605  66.4902782  56.7494583  55.8755016
  66.7180347  57.6449919  55.4677677  65.1062155  56.2852716  55.7415295
  64.5440435  56.1977243  56.6712570  64.3970251  57.3260832  54.8063946
  64.8631907  57.3307133  53.8211155  63.3685541  57.0024443  54.6463823
  64.2620420  58.6919212  55.4271746  63.8578987  58.6823893  56.4394426
  65.2549744  59.0957451  55.6249285  63.4401369  59.7659636  54.6016026
  62.7448654  60.6344175  55.2027607  63.5576391  59.8806953  53.3527470
  64.9995899  54.8737860  55.1634979  64.1591549  54.0839148  55.5319452
  65.8991385  54.5225000  54.1951942  66.5326357  55.2059889  53.8058090
  65.9839058  53.1360817  53.8430977  65.0249147  52.7211094  53.5328770
  66.9787741  52.9525709  52.6854897  67.9836178  53.0979681  53.0820370
  66.8405628  51.9688988  52.2367382  66.8250704  53.8926172  51.6990423
  67.0601749  54.7716236  52.0051098  66.5514612  52.1904659  54.9158525
  66.1002398  51.0347748  54.8417997  67.3473692  52.7042532  55.8577681
  67.4916983  53.6960363  55.7327175  67.6753664  52.0188665  57.1333647
  67.9650164  51.0273981  56.7852354  68.8523102  52.5662470  57.8786039
  69.7037649  52.5073719  57.2006178  68.7169027  53.6351728  58.0434132
  69.2397213  51.9133711  59.1646910  68.4212351  51.9952631  59.8798609
  69.4638014  50.4006624  58.9876366  69.9865961  49.9635887  59.8383760
  68.5712624  49.8488951  58.6926413  70.1598597  50.2335405  58.1656456
  70.5556011  52.5660563  59.5868111  71.4048100  52.4380398  58.9155769
  70.3834915  53.5944939  59.9043036  70.8900499  52.1167278  60.5218792
  66.4287901  51.9264603  58.0852365  66.2472963  51.0541248  58.9061546
  65.5457306  52.9280090  58.0434513  65.7624817  53.8086033  57.5988483
  64.3993425  52.8397179  58.9705229  64.6851587  52.7161980  60.0151062
  63.9251661  54.3060207  59.0416336  63.2278013  54.4500637  59.8668861
  64.7704029  54.9300051  59.3320322  63.4662676  54.5096254  58.0741310
  63.3619070  51.7841005  58.5376215  62.9013157  50.9055853  59.1932678
  63.1411314  51.8310881  57.2144079  63.5306787  52.4912691  56.5567493
  62.3715019  50.7778072  56.4436340  61.3733244  50.8597231  56.8737936
  62.2243500  51.1508989  54.9035597  61.7063904  52.1083164  54.8472261
  63.2872200  51.2309170  54.6755123  61.5274429  50.1564217  54.1435337
  62.1028614  49.2663050  53.3120537  63.1664228  49.3079185  53.1290102
  61.1336422  48.6000395  52.6784182  61.3153648  48.0748940  51.8350267
  59.8771524  48.8907290  53.1693172  58.6239195  48.3985233  52.8191519
  58.5085201  47.7739334  51.9456673  57.4863625  48.7992811  53.5766697
  56.5072584  48.3760452  53.4074593  57.6762676  49.8180819  54.5492887
  56.8156767  50.1697779  55.0989246  58.9596653  50.3234291  54.8884964
  59.0514755  51.0324049  55.6980228  60.0967455  49.8270512  54.2263365
  62.9263449  49.3593645  56.6176462  62.1747494  48.4529018  56.9589663
  64.2017746  49.1396999  56.4598513  64.7294855  49.9579716  56.1914206
  64.9773264  48.0346107  56.9161510  64.6737385  47.1605873  56.3399506
  66.4418030  48.2664728  56.6275930  66.6030645  48.2552910  55.5496454
  66.6925001  49.2306137  57.0699453  67.2598267  47.1510220  57.2967005
  67.2460890  47.1472263  58.3866072  66.8595314  46.1724520  57.0316219
  68.7937307  47.2832727  57.0886612  69.2316961  48.2854843  56.5610695
  69.6157503  46.4187098  57.5822353  70.6203842  46.4599180  57.4867678
  69.2701530  45.6918287  58.1924057  64.6448946  47.6915312  58.4137249
  64.1062450  46.5651989  58.6597395  64.8735142  48.6299896  59.3138313
  65.1907158  49.5652246  59.1021347  64.7861242  48.3172894  60.7526827
  65.5052280  47.5440216  61.0229635  65.0354385  49.5264292  61.6501045
  64.6641970  50.4184866  61.1456013  64.5432138  49.4198370  63.1092167
  65.0799179  50.1181364  63.7514257  63.5389996  49.8152113  63.2619667
  64.5330906  48.3887625  63.4625959  66.6426373  49.6851540  61.6910791
  67.1431923  49.0517902  62.4234772  67.1079969  49.6557617  60.7058477
  66.8018961  50.7283115  61.9641304  63.4098864  47.7070379  61.1317348
  63.3528328  46.5779924  61.6365480  62.2772789  48.3691788  60.7275915
  62.3923349  49.1384792  60.0833559  60.9057140  47.8883171  60.9054041
  60.7599449  47.8353930  61.9843197  59.9587584  48.9971304  60.3924417
  60.3109884  50.0061226  60.6068563  60.0080919  48.8730526  59.3106508
  58.5349321  48.8509989  60.8957100  58.2393026  47.8184271  60.7099533
  58.4561491  49.1214895  61.9486761  57.5726080  49.7051668  60.1008558
  57.8684330  50.7531977  60.1479673  57.4689484  49.3915892  59.0620947
  56.1994600  49.6529865  60.7373381  56.2885666  49.9751234  61.7748260
  55.6681919  50.4283810  60.1854134  55.5833054  48.3120584  60.5803680
  54.6145439  48.3655453  60.8609724  55.5232000  48.0829430  59.5985365
  56.0864925  47.6006079  61.0909939  60.6718063  46.5195370  60.2465677
  59.8641872  45.7198668  60.7084417  61.3294506  46.1909723  59.1284037
  62.0421076  46.8499041  58.8490725  61.0249567  45.0819349  58.2034206
  59.9520826  45.0602484  58.0121851  61.5627146  45.3838921  56.8443680
  61.1214161  46.3372087  56.5536070  62.6287365  45.5716372  56.9726229
  61.2824869  44.0274334  55.6958437  60.2092409  43.6569357  56.3999557
  61.4680958  43.7695694  58.8448668  60.8866501  42.7413797  58.4746552
  62.3469782  43.7754583  59.8310280  62.6629639  44.7152662  60.0234318
  62.7936935  42.5403738  60.6534815  62.4199247  41.5954351  60.2591610
  64.3082571  42.4147892  60.6647348  64.7289991  43.4107351  60.8031940
  64.5712805  41.7584610  61.4942837  64.7840643  41.8722010  59.3049717
  64.0900660  42.2667265  58.5628033  66.1874771  42.3500490  59.0341139
  66.8638754  42.0573187  59.8371696  66.5281868  41.8780565  58.1125689
  66.1878395  43.4256792  58.8576937  64.6759796  40.3410816  59.3548679
  64.7192526  39.9537897  58.3369112  65.4660702  39.8644280  59.9350977
  63.7352228  39.9900675  59.7789812  62.2839355  42.5746536  62.0301104
  62.1221781  41.4449692  62.6242924  61.8942595  43.6831903  62.6407814
  62.1032143  44.5199203  62.1151114  61.2958145  43.7979937  63.9299822
  61.5921259  42.9794025  64.5858812  61.6165876  45.2242565  64.5693064
  61.2643862  45.9858894  63.8736296  61.1304188  45.3228569  65.5398798
  63.1156635  45.3806114  64.8151302  63.6693573  45.2469015  63.8858032
  63.2193851  46.8476105  65.3897953  64.2639732  47.0339298  65.6392288
  62.9132986  47.6375914  64.7039843  62.5954771  46.9182825  66.2807846
  63.6266518  44.3350077  65.8328867  63.8729715  43.3715677  65.3865576
  64.5530987  44.6380806  66.3206816  62.8899431  44.1806459  66.6212606
  59.7334909  43.6190081  63.8412285  59.0959311  43.0957985  64.7569942
  59.1546774  43.7806416  62.6134396  59.6916151  44.1771889  61.8554544
  57.7732897  43.4915209  62.2962475  57.2858477  44.1202164  63.0414009
  57.3214912  43.9760780  60.8766031  57.4550772  45.0496864  60.7438850
  58.0162287  43.4938192  60.1889515  55.8897066  43.5234594  60.5345345
  55.8000898  42.4466848  60.6781721  55.3313017  44.1221762  61.2541342
  55.3441429  43.8617706  59.1801071  55.3207874  44.9188328  58.9151955
  56.0599709  43.3305693  58.5527945  54.0150404  43.2793951  58.9236546
  54.0975618  42.1967983  59.0200138  53.2994556  43.5770416  59.6900988
  53.6793900  43.4861374  57.5142193  54.3254471  43.1097984  56.8351984
  52.7061749  43.2287312  57.4323750  53.6562490  44.4780445  57.3253250
  57.3954439  41.9934893  62.5378513  56.3242054  41.6611385  63.0409765
  58.3219814  41.0789204  62.3480654  59.0509415  41.4606047  61.7623758
  58.2605553  39.6442747  62.4897242  57.2513247  39.3970227  62.8189898
  58.6537313  39.0044236  61.0883331  59.6027517  39.4825506  60.8457327
  58.7054014  37.9204845  61.1908245  57.5608063  39.3399310  59.9449492
  58.0330658  39.8984885  58.7674189  59.1105747  39.9490786  58.7143230
  57.2408199  40.4205799  57.7240181  57.6937914  40.8675241  56.8514061
  55.8699322  40.2891731  57.8227329  54.9556637  40.7926273  56.9254971
  55.2757359  41.0209131  56.0496902  55.3817034  39.8485422  59.0352154
  54.3297720  39.7945929  59.2738199  56.1805010  39.3695879  60.0658894
  55.7522058  38.9394855  60.9591818  59.0760517  39.0287185  63.6318874
  59.1326523  37.7918577  63.7857723  59.6328688  39.8736525  64.5278215
  59.3270302  40.8346367  64.4723463  60.1909018  39.3811536  65.8230734
  60.6645632  38.4037352  65.7314301  61.3920927  40.2799749  66.3009453
  62.0461369  40.4092979  65.4386234  60.9655571  41.2455750  66.5725756
  61.9359303  39.6483564  67.4573421  62.8505659  39.4160247  67.2810650
  59.1672707  39.3584108  66.9685984  58.6636114  40.4135132  67.3834419
  58.8955021  38.1393480  67.5166035  59.2860079  37.3071074  67.0982885
  58.1948090  38.0117226  68.8086414  57.2656059  38.5514450  68.6259317
  57.6672983  36.6243696  69.1159105  57.1779490  36.7029953  70.0867128
  56.6209555  36.0795093  68.1373072  57.0727825  36.0538077  67.1456957
  56.4317608  35.0460696  68.4276819  55.6817389  36.6295004  68.1963062
  58.6835527  35.6243539  69.2303944  58.1998158  34.9662042  69.7348166
  58.9528084  38.6054516  69.9550867  58.3896685  39.0952373  70.9440660
  60.2613115  38.7205887  69.8096943  60.7819128  38.2379436  69.0912771
  61.2040520  39.2094469  70.8160543  60.9621954  38.7334800  71.7663479
  62.6733017  38.9269710  70.4376459  62.9122639  39.4066072  69.4884634
  63.6713552  39.4151616  71.5215921  63.4845400  38.8501358  72.4347878
  64.7001791  39.2163157  71.2214565  63.6178780  40.4782343  71.7563343
  62.8771591  37.5327706  70.4789209  62.4040318  37.1600223  69.7313881
  61.0629320  40.6853485  71.0238695  61.0801268  41.1423731  72.1924114
  60.6908226  41.3522053  70.0012493  60.3880692  40.8523750  69.1774702
  60.5325270  42.8523493  69.9758673  61.3427401  43.4246159  70.4277182
  60.5592442  43.2761621  68.4739876  61.4776850  42.9133558  68.0125380
  59.7378778  42.8070307  67.9323435  60.6399822  44.7777796  68.4489584
  59.7416210  45.5958843  68.0552912  58.7630129  45.2177000  67.7989388
  60.2208853  46.9104338  68.0394363  59.6307230  47.6905918  67.7881145
  61.4889193  47.0290518  68.5155869  62.4245167  48.0222988  68.6913681
  62.2479725  49.0098381  68.2913637  63.7089348  47.6819992  69.1812325
  64.5169067  48.3929586  69.2713261  63.9914370  46.3842678  69.5690489
  64.9440908  46.1028862  69.9929333  63.0377007  45.3132677  69.3506479
  63.3423948  44.3393087  69.7041416  61.7302465  45.6099463  68.8377142
  59.1650200  43.1502771  70.6337643  58.1642580  42.4477482  70.3223133
  59.0940762  44.2080927  71.4769793  59.9526215  44.7149229  71.6385984
  57.8667593  44.7675943  72.0485592  57.0657635  44.0286589  72.0703506
  58.2191801  44.9617434  73.5614014  59.0049267  45.7140493  73.6303186
  57.4022007  45.3763819  74.1519213  58.6652422  43.6702871  74.2387342
  59.5076656  43.1923246  73.7387514  59.1637421  44.0456200  75.1324511
  57.5327015  42.6828432  74.5871544  57.9180527  42.2501326  75.5103922
  56.6363621  43.2262468  74.8861313  57.2615051  41.6104364  73.4934807
  56.3350201  41.0988855  73.7543344  57.1055269  42.0272350  72.4984646
  58.3306932  40.5399752  73.4150600  58.3772993  39.9275398  74.2168379
  58.2184792  39.9814582  72.5810528  59.2202520  41.0175419  73.4416294
  57.5068808  46.0678816  71.3853121  57.8757572  47.1325827  71.8825340
  56.5772820  45.9942913  70.3453064  56.0405684  44.7919416  69.7200632
  55.6806183  44.0112782  70.3902149  56.8541574  44.3202543  69.1689873
  55.0221920  45.2894449  68.7683773  54.0921450  45.4331732  69.3183470
  54.9762392  44.5862532  67.9368067  55.5298233  46.6939020  68.3169222
  54.7312737  47.3037195  67.8943872  56.3611126  46.6725922  67.6122093
  56.2461090  47.2455692  69.5856953  57.2085381  47.7509689  69.5056772
  55.2908993  48.1848812  70.3965616  54.1815376  47.8419304  70.8484459
  55.5994415  49.4738245  70.5002594  56.5219212  49.7695971  70.2145195
  54.6332693  50.5392647  70.8302784  54.3280220  50.5292702  71.8766165
  55.1502323  51.9867182  70.4201698  56.0256577  52.2311735  71.0218143
  55.4858255  52.0468521  69.3848658  54.2029905  53.1415176  70.6574249
  53.3183718  53.0070257  70.0349569  53.7688923  53.2218409  72.1274424
  54.6149635  53.3211517  72.8074455  53.2727861  54.1826487  72.2646523
  53.0688858  52.4673319  72.4863386  54.8500967  54.4858885  70.3572464
  55.6892490  54.5293951  71.0515356  55.1285839  54.5667505  69.3065262
  54.1303110  55.2660084  70.6050825  53.3297729  50.3581858  69.9809742
  53.3806276  50.3154039  68.7800980  52.1426296  50.3418207  70.6664562
  52.1475029  50.2584028  71.6729975  50.8798742  50.2742386  69.9923801
  50.8132839  49.3622780  69.3990850  49.8536444  50.0842524  71.1514235
  50.1437330  49.2634439  71.8073416  49.8352289  51.0086775  71.7286587
  48.4433985  49.8493290  70.5355167  48.3156157  49.4969034  69.3743849
  47.4157858  49.9950743  71.3884640  46.5187407  49.5839262  71.1731195
  47.5800562  50.2373457  72.3551178  50.5255795  51.4951658  69.0904903
  50.4967213  52.5979471  69.6775246  50.2885389  51.3684464  67.7208281
  50.5028391  50.2000952  66.9183064  49.6906137  49.4900084  67.0737362
  51.5052891  49.8024225  67.0765924  50.4745865  50.6255627  65.4435825
  50.0902081  49.8085594  64.8329639  51.4660454  50.9464645  65.1239920
  49.5410824  51.8270969  65.5231953  48.5777617  51.3436604  65.6856871
  49.6721458  52.4524069  64.6400738  49.9091673  52.4743509  66.8620586
  50.7702494  53.1240463  66.7054224  48.6894464  53.2396269  67.3170090
  48.5168743  54.3874979  67.0477629  47.7695227  52.5786543  68.0801487
  47.8287697  51.5856314  68.2547808  46.6787148  53.3383656  68.7631369
  46.1482239  53.9065838  67.9990625  45.6626129  52.3511076  69.3236923
  45.5152035  51.5209866  68.6328459  45.9611177  52.0220995  70.3190565
  44.2298174  52.9669476  69.4189978  43.8047600  53.7961578  68.6271286
  43.4629631  52.6461792  70.4524326  42.6758718  53.2472754  70.6506205
  43.8890934  52.0573378  71.1537027  47.1612930  54.3811274  69.8265886
  46.2638903  54.9889612  70.4714489  48.5089827  54.5546484  70.0381327
  49.1344452  53.9049339  69.5834112  49.0359783  55.5403566  71.0146952
  48.9185429  55.1261711  72.0160723  50.6034899  55.7186842  70.9291697
  51.0794401  54.7443724  71.0400009  50.9826040  55.8807564  69.9201536
  51.1660004  56.5018368  71.9798565  51.5440035  55.9120178  72.6362324
  48.4500694  56.9209957  70.8301401  48.4720802  57.4804449  69.7403574
  48.0712748  57.5198317  71.9308805  48.0508804  56.9592857  72.7708054
  47.8853893  58.9990950  71.9772673  46.9727087  59.0943050  71.3890028
  47.5146818  59.5056772  73.4025240  47.1835899  60.5322933  73.2458735
  46.7440271  58.8492489  73.8066196  48.7365818  59.3875456  74.3658447
  49.1885281  58.1630421  74.8096943  48.7745285  57.1883154  74.5977688
  50.3191900  58.3224344  75.5774736  50.8045578  57.5693941  76.0437822
  50.7672644  59.6680164  75.7105446  51.8095541  60.3361416  76.3224936
  52.5097561  59.8695898  76.9995880  51.8371010  61.7301846  76.1368895
  52.6497746  62.2277689  76.6451931  50.9150600  62.3838282  75.3412962
  51.0112333  63.4501600  75.1995850  49.8422050  61.6705322  74.7656012
  49.1313601  62.1287107  74.0939045  49.7532558  60.2884722  74.8596048
  49.0273333  59.7596788  71.2902403  48.7998152  60.7411528  70.6770802
  50.2530384  59.2168856  71.3690138  50.4067516  58.3532047  71.8695354
  51.4831209  59.8447275  70.6971455  51.5058947  60.8363914  71.1490154
  52.7858782  59.0893602  70.9966278  52.7567196  58.1712484  70.4098320
  53.5288906  59.7621489  70.5683899  53.0759907  58.8028765  72.4903774
  52.2185755  58.3475637  72.9859972  54.3477345  57.8685045  72.6687288
  54.1449642  56.8091679  72.5112534  55.1882648  58.1974936  72.0576859
  54.6408749  57.9267645  73.7169552  53.1823635  60.1396513  73.2521105
  54.0017080  60.6832790  72.7817488  52.2508621  60.6471586  73.0014229
  53.3859539  59.9617624  74.3080521  51.3805342  60.0120449  69.1996288
  51.7242765  61.0625839  68.6197710  50.7754612  59.0540695  68.4838390
  50.4274321  58.2332802  68.9584780  50.5301332  59.1896200  67.0084572
  51.3387012  59.7502613  66.5394115  50.5527735  57.8217888  66.3525677
  49.8374176  57.1776772  66.8639326  50.2223015  57.9770041  65.3255367
  51.9439936  57.1338177  66.2438583  52.9342365  57.6450682  65.4222822
  52.6822996  58.5913134  64.9666977  54.1720676  57.0102119  65.2733755
  54.9744987  57.4099779  64.6711397  54.3767166  55.8690691  66.0261965
  55.5515814  55.1544189  65.7887506  55.7147312  54.3739271  66.3233709
  53.3647728  55.3249979  66.8283749  53.4457302  54.3755579  67.3367119
  52.1636391  55.9316301  66.9369316  51.3865662  55.4888153  67.5423002
  49.2434120  60.0202465  66.7755651  49.2524385  61.0110521  66.0357952
  48.1476116  59.6628046  67.4623489  48.1881046  58.7801170  67.9515553
  46.8426180  60.4373312  67.3872566  46.4974260  60.2437115  66.3716459
  45.7457590  60.0481462  68.4017849  46.1984873  60.1232290  69.3904686
  44.8854399  60.7174015  68.4085178  45.2784967  58.6335802  68.1734562
  44.3686104  58.3277225  67.1562910  43.9552355  57.0852613  67.4204350
  43.3239269  56.4544868  66.8121815  44.5858669  56.6314316  68.5521984
  44.3725777  55.7610846  69.0181398  45.4313564  57.5944710  69.0481329
  45.9623241  57.6075172  69.9885082  47.0686531  61.9853354  67.5758076
  46.6978836  62.7585030  66.7572451  47.8603411  62.4092245  68.5987139
  48.2704544  61.7541695  69.2489576  48.2349730  63.7970448  68.8659000
  47.4178886  64.3770123  68.4368181  48.2778025  64.0969181  70.3193092
  48.4179163  65.1589680  70.5206156  47.2868061  63.8175344  70.6770515
  49.0435743  63.5006428  70.8154440  49.4735336  64.3799019  68.1536913
  49.7859478  65.5830765  68.3481646  50.1565218  63.5978031  67.3263597
  49.9330664  62.6129055  67.3387146  51.3048410  63.9032125  66.4916039
  51.6734838  62.9775953  66.0495281  50.9149504  64.8528624  65.3363609
  50.9971142  65.9057808  65.6060266  51.6820145  64.7812748  64.5652676
  49.5278645  64.6984768  64.6226740  49.3554306  63.6222267  64.6299982
  48.8524246  65.2770615  65.2528477  49.5559883  65.2784538  63.1907320
  49.6550083  66.3533258  63.3422089  50.4694033  65.0116634  62.6591396
  48.2425642  65.0785160  62.4351549  47.4237823  65.3795099  63.0886841
  48.2747173  65.6483316  61.5065098  48.1600189  63.6746359  61.9626617
  47.8992510  63.0667543  62.7259302  47.4431753  63.6847448  61.2512302
  49.0266228  63.3321524  61.5730476  52.5631285  64.3217611  67.3040628
  53.2429886  65.3221512  66.9119024  52.8777981  63.5752439  68.3965874
  52.1878433  62.8490639  68.5259390  54.1685200  63.7772274  69.1015959
  54.4877100  64.7848558  68.8353300  53.9863443  63.6429882  70.6478357
  53.4308624  62.7173185  70.7984257  55.0073957  63.6500883  71.0292721
  53.1692028  64.8676825  71.3298607  52.2404861  64.9005365  70.7602024
  52.9384756  64.6357441  72.8394747  52.3024178  63.7744045  73.0435181
  53.9150333  64.5027733  73.3050394  52.4925327  65.5861855  73.1325579
  53.8627863  66.2400150  71.2041378  54.8659325  66.2101316  71.6294813
  54.0184498  66.3551283  70.1314688  53.2525253  67.1026802  71.4715290
  55.1784754  62.7168322  68.6230135  56.3881159  62.8769445  68.7371492
  54.6607876  61.6558504  68.0281782  53.6550617  61.5691233  68.0612946
  55.2637863  60.8766127  66.9613171  56.3158655  61.0781860  66.7598295
  55.2459621  59.3527174  67.3083210  54.2319345  59.0091228  67.5127506
  55.5954933  58.7444830  66.4740705  56.1357164  58.9184332  68.5003996
  55.8445454  59.4660711  69.3967342  55.9477186  57.4076939  68.7436342
  54.8960829  57.2165871  68.9572620  56.3203478  56.8622398  67.8766108
  56.5613413  57.0819998  69.5835733  57.5831795  59.1362286  68.2976055
  58.1379747  58.7680006  69.1605711  57.8844213  58.7367344  67.3292255
  57.7653503  60.2046204  68.1816292  54.4267368  61.0221529  65.7329369
  53.2296324  61.1558628  65.8748960  55.0030279  61.0307121  64.5061207
  56.0013008  60.8926296  64.5730829  54.2675209  61.2973976  63.2938004
  53.1951141  61.4679718  63.3883858  54.8535967  62.5515747  62.6697969
  54.7541523  63.2847738  63.4701872  55.9022713  62.4563694  62.3881435
  54.0514135  63.0641270  61.4362669  54.1903162  64.1864252  60.9594917
  53.1477261  62.3228979  60.9300470  54.3430901  60.0206423  62.4102879
  55.4896259  59.6205854  62.1180725  53.2638741  59.3097353  61.9755220
  51.9090605  59.4691229  62.3795557  51.4622688  60.3902483  62.0053768
  51.8777370  59.5073175  63.4684372  51.2060356  58.1875420  61.9611120
  50.9687042  58.4839010  60.9393740  50.3144073  57.8442907  62.4857903
  52.3512554  57.1612310  61.8407488  52.1380663  56.2837648  61.2302494
  52.6270580  56.8150330  62.8368330  53.4264898  57.9766798  61.2694025
  54.3878651  57.4875307  61.4262152  53.3529711  58.1844568  59.6974707
  53.2617188  57.2114182  58.9623737  53.6951351  59.3795824  59.2054033
  53.7589645  60.1184416  59.8910522  53.8178730  59.7675467  57.8028107
  53.0676365  59.1937304  57.2587633  53.5394764  61.2141418  57.6883554
  53.8550472  61.4721537  56.6774416  52.4847078  61.4681959  57.7933455
  54.3403006  61.9480991  58.6009598  53.8745832  62.3025990  59.3619061
  55.1768970  59.3892860  57.2321177  55.4503155  59.6797419  56.0602283
  56.0845232  58.7380886  57.9921818  55.7645464  58.5675955  58.9348650
  57.5049257  58.3886814  57.7039385  57.6998949  58.2097387  56.6465473
  58.4425688  59.5539331  58.1964827  58.2546186  60.3435326  57.4689436
  58.1832123  60.0690985  59.5662403  58.6388111  61.0519600  59.6867180
  57.1039104  60.1310253  59.7054625  58.5747623  59.3606281  60.2962112
  59.8084164  59.2853642  58.0414534  59.9270344  59.4540310  57.1038580
  57.8676748  57.1086121  58.5198545  57.4205875  56.9554710  59.6220684
  58.7499094  56.2584114  57.9584694  59.0768671  56.1702251  56.5382624
  59.3686104  57.1250391  56.1008644  58.2497644  55.8294487  55.9154606
  60.1623201  55.0941515  56.3948870  61.1767864  55.4882383  56.4553499
  60.0642776  54.4833231  55.4974556  59.8873997  54.2139912  57.5911570
  60.7824659  53.7101746  57.9560232  59.0682602  53.5284185  57.3741245
  59.2814827  55.0673342  58.6742067  58.4278297  54.5482874  59.1100550
  60.3511143  55.4865170  59.7026491  60.8354282  54.7177315  60.4927301
  60.9128523  56.7270374  59.6435785  60.7931900  57.3740578  58.8773251
  61.7114782  57.2492313  60.8254814  62.5561953  56.5773535  60.9775972
  62.1647787  58.6813211  60.4460955  61.3063288  59.2664719  60.1162958
  62.9005718  59.4686842  61.5911341  62.1605253  59.5981359  62.3808622
  63.8056040  58.9672184  61.9340038  63.1872654  60.4528284  61.2204981
  63.1830597  58.6333895  59.2459583  62.6333141  58.2503557  58.3862114
  63.5770702  59.6271944  59.0333366  64.0401936  57.9728174  59.3766117
  60.9890556  57.2283554  62.1324682  61.6098022  57.2766781  63.1752157
  59.6493149  57.0532894  62.2129154  59.0657806  57.0709896  61.3887358
  59.0039682  56.8257999  63.5009813  59.1748428  57.7107573  64.1139698
  57.4370384  56.7478275  63.1732321  57.0192385  56.9054651  64.1675615
  57.1670723  57.6078129  62.5603294  56.9957638  55.4018450  62.5429058
  57.7409029  54.6075869  61.7327738  56.9544792  53.5773373  61.4268303
  57.1378708  52.8288841  60.6701422  55.7993746  53.6776018  62.0647335
  55.1550245  52.9143524  62.2142649  55.7584524  54.8558140  62.7585936
  54.9114227  55.2673292  63.2873631  59.4000292  55.6307840  64.3576145
  59.2926741  55.7335854  65.6014299  59.9414062  54.5346403  63.7685537
  60.0516319  54.5059299  62.7649927  60.5388212  53.4384060  64.5668840
  59.9330187  53.1444216  65.4240179  60.5826950  52.1857309  63.6931753
  59.5526028  51.9431639  63.4320736  61.3887501  52.3058748  62.4225712
  61.6649914  51.3115072  62.0718145  60.6633806  52.7048683  61.7135239
  62.3137331  52.8674459  62.5535202  61.1628199  50.9788847  64.4268227
  61.0996580  50.1214743  63.7567711  62.1761608  51.2193727  64.7483778
  60.4464960  50.5387592  65.6614828  59.3983030  50.4297733  65.3830481
  60.7821941  49.5233917  65.8722639  60.5873394  51.1564445  66.5484571
  61.9494152  53.7412930  65.0449514  62.3220444  53.2537937  66.0813332
  62.7265167  54.5869207  64.3203211  62.2877312  55.0398111  63.5313559
  63.9179802  55.1688337  64.9150467  64.5441961  54.3900681  65.3503466
  64.6737385  55.8072186  63.7315989  64.2817545  56.7885065  63.4641743
  65.6230593  56.1383724  64.1525745  65.0074244  54.8655367  62.5028563
  64.0726471  54.6061277  62.0058632  65.8563566  55.7465982  61.5377045
  66.7627621  56.1234760  62.0115089  66.2434387  55.0853968  60.7624102
  65.3898859  56.6316080  61.1049652  65.8244467  53.6593103  62.8397512
  65.1930094  52.8999805  63.3010578  66.2669182  53.3406782  61.8959332
  66.5605021  53.9262486  63.5980844  63.5157299  56.0562944  66.0662031
  64.2589092  56.2149811  66.9918108  62.3785210  56.8017101  65.9930086
  61.8432188  56.6571712  65.1488161  61.8065166  57.6411581  67.0896721
  62.6803541  58.0587530  67.5898075  60.9919214  58.7734270  66.5512514
  60.1488972  58.3764267  65.9857273  60.6217194  59.3255758  67.4150705
  61.7527771  59.8052549  65.6702852  62.5981712  60.2891302  66.1594391
  62.1509171  59.4057560  64.7375584  60.8222532  60.9364796  65.1717949
  61.2180185  61.5249062  64.3440104  59.9567699  60.4617739  64.7095203
  60.3858471  61.8272591  66.2252760  60.9712076  61.9087791  67.0443058
  59.5031261  62.8199816  66.1048079  58.6302757  62.8105021  65.1567173
  58.5640526  61.9917440  64.5690441  58.2466888  63.6723518  64.7959185
  59.3571901  63.7350464  67.0592260  60.1424742  63.8555288  67.6828527
  58.4845352  64.2434788  67.0506287  61.2380028  56.8311644  68.2703400
  61.2215281  57.2737265  69.4009495  60.6965685  55.6750011  67.9545975
  60.4810095  55.3950787  67.0084047  60.3439236  54.6822262  68.9813900
  59.6458197  55.2451372  69.6009731  59.4987154  53.4624815  68.4722090
  60.0128984  53.0045366  67.6272202  59.4910860  52.7547503  69.3011570
  58.0799055  53.8263178  68.1624222  57.5725555  54.1365099  69.0759230
  58.1372356  54.6977615  67.5101995  57.4419928  52.6695776  67.3940563
  56.3031530  52.7896070  66.8702316  57.8800583  51.5208626  67.5796175
  61.5455341  54.2687607  69.8194361  61.6930580  54.6377850  70.9728289
  62.4813652  53.6142874  69.1041279  62.3334980  53.5488415  68.1071520
  63.7875748  53.2069016  69.6187687  63.6140966  52.4728680  70.4056597
  64.5799112  52.6004028  68.4580564  64.5567560  53.2868910  67.6117086
  66.0337114  52.2968626  68.8518810  66.1579180  51.9456053  69.8762321
  66.4469290  51.5299511  68.1967449  66.6048384  53.2207823  68.7608385
  63.8756990  51.1860132  68.1629658  63.8904810  50.5121708  69.0195990
  62.8484154  51.2788963  67.8106117  64.5755529  50.3497171  67.0394135
  65.2615213  49.6498060  67.5165606  63.7665319  49.8106384  66.5464878
  65.1062012  50.9813166  66.3269567  64.5495749  54.3045282  70.3208923
  64.9571228  54.1787386  71.4798689  64.6877384  55.5205154  69.7321939
  64.4945526  55.5531216  68.7413788  65.4578590  56.6014814  70.2728653
  66.3731909  56.0968542  70.5820942  65.6762362  57.2441101  69.4199657
  64.8606825  57.3098326  71.5745306  65.5973244  57.8149176  72.4191618
  63.5337830  57.2009945  71.8175459  62.9667759  56.7550850  71.1106062
  62.8832436  57.6038218  73.1162596  63.5015059  58.3424425  73.6264467
  61.4996815  58.2767200  72.8732443  60.9812832  57.6073551  72.1867228
  61.0317564  58.4543133  73.8415432  61.5925789  59.6178961  72.0754814
  61.9972086  59.3973351  71.0876894  60.1500225  60.1073360  71.9214201
  59.7914505  60.3343058  72.9254198  60.1561928  60.9892654  71.2809038
  59.4550848  59.3814993  71.4991331  62.4481106  60.6905508  72.7995300
  62.1127129  61.6842699  72.5026560  62.2652340  60.5952215  73.8698435
  63.4638691  60.4780388  72.4661064  62.7414131  56.3210964  74.1174555
  62.2891188  56.4922190  75.2392817  63.0086613  55.1446056  73.5849190
  63.3158493  54.9861479  72.6359034  62.9213428  53.8569784  74.3029690
  63.4366560  53.0995798  73.7122917  63.7456274  53.8056660  75.6145191
  63.2500696  54.5033693  76.2895966  63.6926413  52.7709246  75.9530449
  65.2233267  54.1630697  75.4067278  65.6966209  53.2922411  74.9531364
  65.3553295  55.0297403  74.7589922  65.8520365  54.4375086  76.7490673
  65.2665472  55.0907564  77.3960352  65.9198093  53.5273075  77.3449230
  67.1737051  54.9270391  76.6345835  67.9598999  54.3592548  76.9167614
  67.5440741  56.1619234  76.4155626  66.8328571  57.2240591  76.3189125
  65.8764887  57.1131516  76.6241360  67.1637154  58.1743240  76.2315226
  68.8581467  56.3675499  76.3812351  69.4620991  55.6249189  76.7034864
  69.1450500  57.3329306  76.3048363  61.4704514  53.2834911  74.3508720
  61.1259460  52.5083303  75.2599525  60.5909872  53.6102962  73.3689833
  60.9206152  54.1338301  72.5706339  59.1111660  53.2763767  73.2964993
  58.7425041  53.1852627  74.3182039  58.3238125  54.4073963  72.6013184
  58.5257578  54.2757702  71.5383101  57.2572947  54.2305994  72.7405691
  58.5395145  55.7833481  73.0947828  59.5927477  55.9933043  73.2811356
  57.9114580  56.8401146  72.2196102  56.8429470  56.6514730  72.1156979
  58.1269407  57.8349876  72.6093531  58.4059525  56.7376280  71.2536526
  57.9833078  56.1525440  74.4694805  56.9295311  56.4311981  74.4732571
  58.1185341  55.3087139  75.1460648  58.5230589  57.0521879  74.7651243
  58.8063908  51.8784380  72.6836729  57.6469421  51.3790369  72.6711416
  59.8211718  51.3699389  72.0578909  60.7310867  51.7959452  72.1612501
  59.9338913  49.9990368  71.5916777  59.1508770  49.4495726  72.1142483
  59.6631002  49.8803568  70.1182699  60.3317022  50.4569578  69.4790411
  59.6738100  48.7994766  69.9779940  58.3763313  50.4090071  70.0191784
  58.2717752  50.7958174  69.1467953  61.3079214  49.4693708  71.9396400
  62.2820568  50.2109623  71.8567324  61.3592291  48.2248974  72.3403168
  60.4824734  47.7417850  72.4744749  62.5540400  47.5216246  72.9776764
  63.4634781  47.8887415  72.5020170  62.6039028  47.9823637  74.4540930
  63.5526848  47.6220989  74.8517370  62.6431131  49.0685368  74.5365238
  61.5252161  47.4142361  75.3652334  60.1608849  47.6421881  75.2707815
  59.6343231  46.8518829  76.2133789  58.5964441  46.9100189  76.5063477
  60.5508614  46.0813999  76.8361235  60.3973913  45.4612112  77.6183748
  61.7803240  46.4132118  76.2958908  62.7520323  46.0349941  76.5772009
  62.4778414  46.0111713  72.9031277  61.4452505  45.5082464  72.4901581
  63.5810232  45.3704929  73.2000637  64.3587399  45.8947706  73.5747528
  63.7838984  43.9538717  72.8753042  63.0325842  43.5609531  72.1902895
  65.1443911  43.8970566  72.1819830  65.9505844  44.4011211  72.7149677
  65.1201391  44.1281319  71.1170340  65.7581949  42.2237158  72.1110392
  63.8038063  43.1013107  74.1561508  64.5662498  43.3697605  75.0827694
  62.8759527  42.1171379  74.2754030  62.3576689  41.8928051  73.4380484
  62.7305508  41.3037014  75.4619551  62.5817633  41.9147015  76.3522625
  61.5250683  40.3750515  75.3350496  61.6216946  39.6327877  74.5427084
  61.4519978  39.8130274  76.2661219  60.3558350  41.1252594  75.2765846
  60.4334402  41.6463900  76.0790777  63.9060163  40.4505873  75.8858776
  64.0659237  40.0899553  77.0609093  64.6897840  40.0319386  74.8801422
  64.6662092  40.5106544  73.9911079  65.8800554  39.2308736  75.0910091
  65.6164122  38.4930277  75.8487558  66.5179777  38.6626482  73.8092422
  65.8067513  38.0083394  73.3051205  66.7382383  39.4774008  73.1194878
  67.8046656  37.9317880  74.0936804  67.9403925  36.6080093  74.5817757
  69.2343950  36.3970757  74.8551846  69.6026373  35.5267477  75.3779936
  69.9060678  37.5237036  74.5741701  70.8984232  37.6201344  74.7355223
  69.0196085  38.5198689  74.1436768  69.2938614  39.5108414  73.8132763
  66.9204569  40.0092411  75.8222532  67.5277472  39.5267606  76.7603827
  67.0640802  41.2834406  75.4653502  66.7090321  41.4881134  74.5422268
  68.0770493  42.1686029  75.9432602  69.0310478  41.6732645  76.1238861
  68.3232927  43.2324743  74.8699188  68.8085651  44.0876627  75.3403044
  67.3713255  43.4790277  74.3997335  69.4723368  42.6770306  73.5943365
  67.6165390  42.8577042  77.3046780  68.4082842  43.0690575  78.2631016
  66.3586664  43.2635212  77.2756004  65.8355904  42.8473520  76.5184355
  65.6261730  44.0294075  78.3222723  66.2449217  43.9864111  79.2186022
  65.5447769  45.5072594  77.9988766  65.1197433  45.6696081  77.0083761
  64.7482538  46.3260794  79.0620947  63.7419415  45.9292507  79.1960621
  65.1809549  46.2759638  80.0612736  64.5705891  47.3624229  78.7748241
  66.9111967  46.1125326  77.8732777  67.3029613  45.8048916  76.9037533
  66.7490196  47.1903944  77.8686953  67.5347757  45.7442331  78.6878967
  64.3393230  43.4220695  78.7654781  63.2032251  43.7495899  78.3110809
  64.4007063  42.3815680  79.6230555  65.6076479  41.6487074  80.0337124
  66.1133480  42.3411989  80.7066345  66.2590075  41.2594986  79.2511797
  65.1418066  40.3787231  80.7445812  65.8384275  39.8809981  81.4191818
  64.9606180  39.5896220  80.0147915  63.7587118  40.7974815  81.3186455
  64.0137243  41.2335682  82.2845078  63.0878496  39.9523306  81.4727974
  63.2266712  41.8055439  80.3350449  62.5905752  41.3049698  79.6050453
  62.4043179  42.9207659  81.0164642  61.1727953  42.8839779  80.8431721
  63.0359507  43.7502432  81.8564510  64.0400553  43.6547613  81.9089699
  62.4070692  44.7025251  82.7772331  61.3779926  44.3864870  82.9481983
  63.1663036  44.5468283  84.1895485  64.2376518  44.6475220  84.0158272
  62.9684114  45.4617834  84.7479439  62.8500271  43.2344246  84.9355125
  63.1762171  42.4202251  84.2883778  63.5261774  43.2154131  85.7902336
  61.3972759  43.0872583  85.4064369  61.2989664  43.8987494  86.1274815
  60.6838465  43.1501150  84.5847511  61.2642574  41.7495871  86.1424541
  61.4327383  40.9257889  85.4488659  61.9466543  41.6741991  86.9890690
  59.8858595  41.6708899  86.5576744  59.6695995  42.3475647  87.2756195
  59.2186785  41.8884659  85.8312893  59.6032572  40.7920551  86.9674110
  62.3557138  46.2402201  82.3388863  63.3178663  46.9824839  82.3803902
  61.2172890  46.6197634  81.8234062  60.5230665  45.9010458  81.6763973
  60.8867359  48.0164909  81.4036083  61.5499878  48.6723804  81.9675446
  61.2182093  48.2018900  79.9032879  62.0171547  47.5106335  79.6350479
  60.3602362  47.9186773  79.2935467  61.6901827  49.6143961  79.4386578
  60.8980560  50.3098011  79.7162294  63.0339956  50.0446129  79.9719954
  63.4166479  50.9805965  79.5650434  62.9322863  50.1910114  81.0473156
  63.7463379  49.2368793  79.8039389  61.8160009  49.6283865  77.9231453
  60.9200668  49.2724895  77.4144650  62.1521807  50.6343555  77.6719284
  62.5931692  48.9628124  77.5474882  59.4532347  48.4116840  81.6744614
  58.5621357  47.8927517  81.0136890  59.2941236  49.3866682  82.5595188
  60.1661825  49.7572279  82.9092407  57.9971170  49.8656654  83.0244541
  57.4687338  49.0052223  83.4350014  58.0125761  50.8892775  84.1661644
  58.4389830  51.8301678  83.8183117  56.9945574  51.1314631  84.4712543
  58.6966085  50.5537987  85.5327320  59.7409487  50.3240299  85.3213978
  58.6931372  51.4992189  86.0752010  58.0293894  49.4657278  86.4074230
  57.5651217  48.4221649  85.9345722  58.3101892  49.4769096  87.5951481
  57.1466827  50.5360126  81.8723297  57.8034735  50.9735203  80.9077549
  55.8150864  50.6267643  82.0122719  55.0700474  50.1142454  83.1231976
  54.9146509  50.8842421  83.8788795  55.5182219  49.1683912  83.4274769
  53.6766386  49.8437691  82.5888729  53.0273676  50.7133865  82.6904488
  53.2283449  48.9614153  83.0455780  53.8804674  49.7269535  81.0731602
  52.9589415  49.9710512  80.5446625  54.1987371  48.7075090  80.8551121
  55.0562668  50.5356693  80.7431316  55.6436014  50.0897169  79.9404669
  54.7070694  51.9513178  80.3203011  54.4342756  52.7700853  81.1616421
  54.6939039  52.1440697  79.0257883  54.8335600  51.3186026  78.4608126
  54.3152905  53.4292173  78.3958578  54.9062729  54.2660141  78.7681723
  54.6156025  53.3635378  76.8798113  54.2456102  52.3902655  76.5574074
  53.9668560  54.4726849  76.0389042  52.8970909  54.2645550  76.0587215
  54.2103767  55.4719448  76.3998413  54.3135786  54.3776751  75.0098991
  56.1720133  53.5353947  76.5859032  56.1450720  53.3108711  75.5196190
  56.5099525  54.5577335  76.7553806  57.1582842  52.5911665  77.2428799
  57.1625423  52.7691078  78.3182478  56.8597841  51.6046953  76.8880844
  58.1574821  52.8073406  76.8647623  52.8596592  53.7470102  78.7361097
  52.0625448  52.7876711  78.6483288  52.4327040  54.9501801  79.0972519
  53.2530546  56.0389471  79.4997120  53.4888649  56.5790939  78.5827971
  54.1830349  55.8111954  80.0206375  52.4084711  56.9173622  80.3046513
  52.6516962  57.9780626  80.3667164  52.3362732  56.5749979  81.3369656
  51.0732222  56.7420101  79.6189976  50.9337282  57.4317265  78.7865639
  50.3027678  56.8275547  80.3852749  51.0551500  55.3238583  79.1623878
  50.5988550  54.6397305  79.8778343  50.3823996  55.1478672  77.7818155
  50.9247446  55.5622768  76.7799330  49.2038918  54.5630217  77.8131008
  49.0110016  54.1933775  78.7330198  48.1567001  54.3829060  76.7765236
  48.6979675  54.0575314  75.8881140  47.2103310  53.2902145  77.3217773
  47.9217672  52.5167513  77.6111078  46.7344093  53.6957502  78.2146025
  46.2254333  52.7973127  76.2785101  45.3158712  53.3979511  76.2841415
  46.7341280  52.9745388  75.3309250  45.8871269  51.3269663  76.4595270
  46.0166550  50.5959177  75.4585171  45.5304480  50.8883953  77.6379108
  47.2790909  55.6180239  76.3513327  46.8597889  55.7027102  75.1856089
  47.1451139  56.5489244  77.3773956  47.4842501  56.2910318  78.2931376
  46.4104319  57.7916813  77.2468901  46.2927246  58.1500912  76.2242556
  44.9362135  57.5567150  77.8538942  44.6168995  56.5556955  77.5638866
  44.9093103  57.6984835  78.9343023  43.8550949  58.3918667  77.2927046
  42.9920435  59.0857267  77.9897261  43.0316687  59.1724634  79.0655041
  42.0536566  59.7529745  77.1900272  41.2888908  60.2995157  77.5595284
  42.3307419  59.5483017  75.8495808  41.8352699  59.9253607  74.5969391
  40.9687710  60.5699778  74.6042633  42.4417782  59.3728542  73.4133673
  42.1357632  59.7782612  72.4602604  43.3441639  58.2923508  73.5356045
  43.6046934  57.7676535  72.6282883  43.8202572  57.9252625  74.8043728
  44.4242954  57.0485115  74.9855947  43.4178400  58.5868406  75.9428644
  47.2161341  58.9449596  78.0185938  48.0761480  58.5809755  78.7982082
  46.9320917  60.2448797  77.7776957  46.0090208  60.8799410  76.8884087
  45.0364017  60.8258057  77.3774767  45.9308386  60.3778315  75.9241104
  46.5360212  62.3099136  76.6867876  45.7784033  63.0187941  76.3527012
  47.4190617  62.2166443  76.0546160  47.0430756  62.5879431  78.0900383
  46.1359024  62.7545881  78.6708736  47.6055908  63.5190725  78.0216360
  47.7162457  61.2653303  78.4636879  48.6951303  61.1134052  78.0089331
  47.7640581  61.1369944  80.0299168  46.7119455  60.7966375  80.6185341
  48.8923025  61.4464855  80.6676197  50.1283836  61.7568970  79.9729347
  49.9988651  62.5499535  79.2364645  50.4133797  60.7945919  79.5476866
  51.1038589  62.1771669  81.0664177  51.0133123  63.2219458  81.3636398
  52.1293783  61.9002962  80.8219624  50.7421875  61.2432241  82.2492886
  51.0987377  61.6417646  83.1991005  51.2089872  60.2760363  82.0628834
  49.2029381  61.0685158  82.1050453  48.9502621  60.0227642  82.2801590
  48.4323359  61.9617367  83.1192589  48.2253313  63.1499386  82.8001308
  47.9811716  61.3188887  84.2055321  48.3480692  60.3832102  84.3055534
  46.9872141  61.7755795  85.2175045  46.9101858  60.9609175  85.9375763
  47.4065828  63.0331469  86.0045719  47.3068476  63.8963795  85.3465557
  46.7578745  63.1789207  86.8683052  48.8328266  62.8933716  86.5052414
  49.4944143  62.9234838  85.6395054  49.1810369  64.1435051  87.3448658
  50.1602125  64.1720772  87.8228760  49.0514565  64.9939728  86.6755295
  48.4777308  64.2308426  88.1730175  49.2849731  61.7370844  87.4010849
  48.7578773  61.7115927  88.3548164  49.0856647  60.8297014  86.8309689
  50.3521585  61.8940401  87.5578880  45.5836344  61.8710947  84.5412540
  45.2947187  61.1192608  83.6193943  44.6357727  62.7051210  84.9864578
  44.9563599  63.3969402  85.6488132  43.2637978  62.9912758  84.3927383
  43.2109880  62.3502827  83.5127163  42.2211981  62.4370193  85.3703880
  41.2142229  62.6294947  85.0001621  42.2015810  61.3500643  85.4494190
  42.3023510  62.8556490  86.3735104  43.0907774  64.4275570  83.7702179
  41.9745398  64.8705959  83.4276104  44.2202806  65.1738739  83.6734390
  45.0793028  64.7217035  83.9522457  44.3476915  66.6349936  83.5374546
  43.8507748  67.1244192  84.3750954  45.8100462  67.0346594  83.6419582
  45.9273148  68.1117630  83.5228348  46.0319805  66.7795086  84.6781826
  46.4924717  66.1210155  82.7706718  47.4248171  66.1848688  82.9903412
  43.9169931  67.0810413  82.1239471  43.6724663  68.2442856  81.9686699
  43.8895273  66.1568975  81.1173153  44.0969706  65.1882744  81.3143826
  43.4347534  66.4824295  79.7394514  43.6362934  67.5436449  79.5935202
  44.3029881  65.7091427  78.7743950  44.0576220  64.6567249  78.9169312
  43.9862394  65.9957838  77.7715969  46.0538006  66.1462021  78.9791870
  46.0336971  66.3484478  80.2996349  41.9193649  66.3204622  79.5012522
  41.4289331  66.2413311  78.3678484  41.1607218  66.0860729  80.5488777
  41.7255831  65.9201717  81.3695526  39.6599984  66.1744785  80.6573582
  39.2670798  65.9187317  81.6413879  39.3218017  67.1806622  80.4097271
  38.8325763  65.2625227  79.7143698  37.6412010  65.4260683  79.5685530
  39.5289946  64.2173147  79.2291737  40.5346680  64.1900730  79.3185329
  39.0311646  63.4614325  78.1084681  37.9572582  63.6338949  78.0371237
  39.6242070  63.9530563  76.7642927  39.4432616  65.0231886  76.6634035
  41.0378551  63.5746670  76.5610409  41.4686680  64.3572712  75.9365129
  41.5388966  63.5441875  77.5285769  41.0361576  62.5542641  76.1777925
  38.8135004  63.3930111  75.5238295  38.8015819  62.3045206  75.4677296
  37.7603173  63.6303043  75.6741667  39.0975142  63.8590527  74.5803022
  39.2660141  61.9771576  78.3938265  40.4132318  61.5423489  78.5810423
  38.2091594  61.1018467  78.3692169  36.8471789  61.4380789  78.1180239
  36.6830969  61.6436529  77.0602369  36.4736509  62.2921562  78.6829424
  36.0151601  60.1927042  78.5976171  35.2989316  59.8832512  77.8364611
  35.5144858  60.3439140  79.5539427  37.0124650  59.1233635  78.8382959
  36.6749358  58.2966948  78.2131577  36.8601322  58.8535881  79.8833418
  38.4179163  59.6220779  78.3858395  39.1394353  59.3632793  79.1607809
  38.8043952  59.0567398  76.9960594  38.5828424  59.6900272  75.9811926
  39.3513393  57.8066444  76.9901752  39.7450733  56.9668055  78.1150436
  38.8570285  56.3547230  78.2726431  39.9853611  57.4862528  79.0426922
  40.8986807  56.1267900  77.6070404  41.0137844  55.1753807  78.1263351
  41.8078804  56.6880846  77.8224468  40.5274630  55.8564663  76.1548138
  39.8939848  54.9713945  76.0960388  41.3772535  55.6790209  75.4956722
  39.8461986  57.1388721  75.7172680  40.6580448  57.7691126  75.3542137
  38.6622882  56.9711304  74.7587442  37.7029681  56.1730623  74.9930525
  38.7814021  57.5895309  73.5977697  39.6266508  58.0832291  73.3489418
  37.8404498  57.4779320  72.4668837  38.1355095  58.2111454  71.7162466
  38.0830407  56.1069059  71.7896700  37.7494049  55.3649139  72.5150919
  37.6831865  56.1384249  70.7761478  39.5388412  55.7866764  71.5485620
  40.3880405  56.4982939  70.6116819  40.0254011  57.2973776  69.9821138
  41.7721415  56.2806559  70.5305099  42.3387814  56.7561865  69.7436237
  42.4529314  55.5109739  71.4696884  43.5064793  55.2746916  71.4942932
  41.6636562  54.8540163  72.3898268  42.1462631  54.1067457  73.0022621
  40.2313805  54.8498917  72.3442411  39.6712875  54.1488791  72.9453135
  36.3565278  57.8352976  72.8150225  35.4563594  57.1981668  72.3120689
  36.1065769  58.8693905  73.6829281  36.8631172  59.4412374  74.0303993
  34.7875786  59.2523527  74.2299843  33.9579844  58.9753246  73.5794973
  34.5942783  58.4442997  75.5001926  35.5407691  58.2884598  76.0178471
  33.8866663  59.0198755  76.0969400  33.9501238  57.0533228  75.4061174
  33.1147838  57.1812916  74.7176886  34.5851064  56.2768507  74.9795151
  33.4158516  56.6067362  76.8080664  33.7453389  57.0903111  77.8607225
  32.8078389  55.4577351  76.9390011  32.5601816  55.0765991  77.8409481
  32.7234697  54.8648739  76.1256790  34.7313190  60.8249474  74.4862700
  35.7464814  61.4357281  74.5561981  33.5176802  61.4131784  74.5320606
  32.6821899  60.8521557  74.4465923  33.3716035  62.8396368  74.6660709
  33.8839912  63.3285427  73.8374949  31.8610168  63.1243181  74.5109749
  31.5063095  62.5668859  73.6440516  31.3001275  62.6648235  75.3248358
  31.6272640  64.6792364  74.3520784  31.8920279  65.2896404  75.2154493
  32.0366073  65.0965548  73.4320927  30.0959921  64.9691343  74.3380356
  29.6524835  64.6886730  75.2934122  29.9416804  66.0331774  74.1588736
  29.2810059  64.1473961  73.3263922  29.8405862  64.0965223  72.3923779
  29.3220210  63.1535864  73.7722111  27.9581571  64.6847534  73.0649996
  27.2485948  64.4205809  73.7334538  28.0637312  65.6857538  73.1483889
  27.6124740  64.4363070  72.1490955  33.9836311  63.4463263  75.9456015
  33.8405871  62.7670622  76.9626474  34.7773671  64.4627571  75.7887745
  35.1362133  65.2111435  74.5939970  34.2220831  65.3628111  74.0200090
  35.8777118  64.6404505  74.0348959  35.7123232  66.5634680  75.1230335
  34.9995112  67.3716784  75.2867317  36.4935517  66.9141960  74.4486570
  36.2487912  66.2022114  76.5095139  36.2663937  67.0219851  77.2276831
  37.2691202  65.8304739  76.4154911  35.4221082  65.0363350  76.9681692
  36.0704803  64.3018389  77.4459171  34.4206381  65.4452038  78.0142927
  33.2639909  65.7300854  77.8234005  34.9389076  65.7440948  79.1887379
  35.9175277  65.5043840  79.2590380  34.2318225  66.0729313  80.4051495
  33.1886554  65.7816219  80.2824783  34.8454595  65.3851366  81.6558552
  35.8037877  65.8757496  81.8261719  34.2073202  65.5540180  82.5232410
  35.2255535  63.8766527  81.5726089  35.9345603  63.7185717  80.7599449
  35.8010435  63.5074425  82.9490185  34.9992800  63.5827541  83.6835957
  35.9379363  62.4270201  82.9037666  36.6785169  64.0869331  83.2359600
  34.0046263  63.0480433  81.2404537  34.1806626  61.9969845  81.4693451
  33.1482720  63.3256531  81.8550205  33.7805891  63.1528139  80.1788807
  34.1888976  67.5634336  80.7032204  33.2708311  68.0652714  81.3678837
  35.1546264  68.3125830  80.1827908  35.9696412  67.8064203  79.8671246
  35.2600145  69.7830153  80.4426861  34.2331576  70.1478052  80.4671288
  35.9581089  70.0693417  81.7376709  35.6118774  69.4974232  82.5985622
  37.4000835  69.7282791  81.7526627  37.5559878  68.6999846  81.4264584
  37.8630614  70.3806496  81.0122776  37.9342222  69.8111248  82.6991940
  35.8482981  71.4621019  82.0355701  36.3805199  71.6026068  82.8220844
  35.9964204  70.4669905  79.2750502  36.8536568  69.8059416  78.7456894
  35.6279945  71.6807890  78.8557005  34.7852135  72.1277285  79.1874647
  36.1591101  72.3776722  77.6499319  36.1007404  71.6010475  76.8873405
  35.2271819  73.5535097  77.1906710  35.3994036  73.8241053  76.1489344
  34.1699648  73.2883024  77.1981525  35.5056906  74.6726465  77.9718781
  34.6934152  75.1781988  78.0507755  37.6290965  72.8455067  77.7394438
  38.2084394  72.8432274  78.7926102  38.2069063  73.3201075  76.6291285
  37.8279972  73.0373764  75.2308846  37.0925260  73.7779856  74.9167442
  37.3855090  72.0415258  75.2066898  39.1063118  73.1572628  74.3754148
  38.7775993  73.5415983  73.4098434  39.5163012  72.1527576  74.2706442
  39.9879479  74.0975142  75.1939011  39.9173546  75.1395512  74.8819971
  41.0254049  73.7642527  75.2206278  39.5700312  73.9620829  76.6526222
  40.2700281  73.2449961  77.0814466  39.6646047  75.2703047  77.4280167
  40.6725693  75.6613922  78.0367899  38.5579681  76.0484838  77.4033785
  37.8260040  75.6140041  76.8597317  38.3334589  77.2072268  78.2419586
  39.1251493  77.9424334  78.0977392  37.0581341  77.8990555  77.8027678
  36.1737466  77.2852755  77.9737329  36.8433905  78.6982489  78.5121918
  37.1649408  78.4471369  76.4410782  36.9978309  77.7011681  75.8603811
  38.2164979  76.9168806  79.7590446  38.8382888  77.5876999  80.5840015
  37.6119113  75.7789898  80.1211071  37.2337127  75.2101946  79.3771076
  37.7188206  75.2218723  81.4633083  37.3926353  76.0305405  82.1173477
  36.5510106  74.2473173  81.7226315  36.4829397  73.4626007  80.9691811
  36.7533135  73.7855625  82.6890373  35.1840067  75.0020504  81.8000889
  35.2496552  75.8888245  82.4305058  34.9386454  75.2563620  80.7689571
  34.0644336  74.1126394  82.2891235  34.0802336  73.1429529  81.7915726
  34.2771006  73.8515806  83.3258152  32.6887536  74.6714973  82.0490074
  32.3027873  74.7707605  81.1209583  31.8084574  74.9929571  82.9784870
  32.0727992  74.9065018  84.2663670  32.9471946  74.5264196  84.5996380
  31.4507174  75.3236628  84.9439240  30.7236791  75.5089569  82.6016521
  30.2758455  75.3077412  81.7190075  30.0756288  75.6267166  83.3673382
  39.1436052  74.7693205  81.8534851  39.6171761  75.3934622  82.8153801
  39.8756790  73.9955378  80.9859467  39.3984771  73.6026955  80.1871586
  41.2138939  73.5963106  81.2702084  41.1092615  73.1722736  82.2688770
  41.8307638  72.5996876  80.2482700  41.5704584  73.0227947  79.2780495
  42.8994036  72.6224422  80.4617882  41.2874126  71.1948586  80.3244781
  40.2418280  71.2159061  80.0172043  42.1220112  70.2487326  79.4393492
  43.0956411  70.1524925  79.9198627  41.6468668  69.2722750  79.3451977
  42.2710323  70.6351376  78.4310913  41.3596392  70.4951763  81.6907787
  42.3680830  70.4623699  82.1031666  40.7540512  71.0219431  82.4282646
  41.0823011  69.4511366  81.5452957  42.2008467  74.7443581  81.3646698
  43.0572271  74.7385550  82.2000504  41.9930696  75.7786083  80.5697441
  41.3394403  75.7943010  79.7999239  42.7534056  77.0146418  80.5628777
  43.7742043  76.7250490  80.3134727  42.3029613  78.0725813  79.4987917
  42.2862959  77.5851727  78.5239840  41.3158703  78.4552908  79.7582054
  43.0939388  79.2687750  79.4267511  43.0267096  79.6745014  78.5593033
  42.7464867  77.7533054  81.8754005  43.8047409  77.8023291  82.4703979
  41.6384411  78.1588793  82.5304413  40.7177353  78.1495476  82.1153450
  41.6479158  78.7658453  83.8881207  42.3448753  79.5961094  84.0022087
  40.2401495  79.4887352  84.1154957  40.2264881  79.9427080  85.1063633
  40.1281118  80.2923965  83.3876991  39.0980697  78.3858156  84.0732861
  39.1441727  77.9380655  83.0805683  39.3754935  77.6483488  84.8264599
  37.7092624  79.0696955  84.3647289  37.7226424  80.0238228  83.8378716
  36.8257165  78.5323143  84.0202427  37.4351549  79.5382404  85.7438278
  37.9387712  79.1654634  86.5359783  36.4577699  80.3559971  86.2288094
  35.6097078  80.9163380  85.4410267  35.7491112  80.8154106  84.4457912
  34.7960138  81.3624382  85.8397675  36.4152837  80.5095577  87.5191879
  37.1104956  80.1253319  88.1430054  35.5910420  80.9110737  87.9428768
  42.0968866  77.7919722  84.9584389  42.7212429  78.1552792  85.9157658
  41.8215418  76.4982700  84.8712254  41.2036037  76.1914253  84.1335964
  42.3743773  75.4633617  85.7809162  42.0577526  75.6716919  86.8029022
  41.8083906  74.1036367  85.5059147  41.8793344  73.9725113  84.4261551
  42.4225760  73.3458090  85.9922981  40.3620672  73.8314009  85.8786488
  39.7177625  74.6716595  86.6287518  39.8498178  72.7668190  85.4416656
  43.9248276  75.3924942  85.7812119  44.5673323  75.6232500  86.8156242
  44.5508194  75.1004648  84.6649361  44.1201401  74.6877766  83.8498878
  45.9952831  75.0058317  84.5659447  46.3731575  74.4509935  85.4247093
  46.2720394  74.1786528  83.3111286  45.7927942  74.6758556  82.4677944
  47.3401594  74.1592026  83.0946827  45.6692028  72.7816725  83.5111904
  45.9289503  71.8515348  84.5866966  45.2556181  70.7259893  84.3207550
  45.2048349  69.8629951  84.9680996  44.6471548  70.9173441  83.1280422
  44.2699480  70.1579237  82.5793171  44.9164820  72.1904325  82.5399685
  44.6285820  72.5087404  81.5489101  46.7523766  76.3158703  84.4682980
  47.9447842  76.2263870  84.4892025  46.1311960  77.3690701  84.2294502
  45.1311779  77.2485733  84.1549778  46.6570187  78.7475729  84.4731998
  47.5526571  78.8821697  83.8667107  45.6672621  79.8270655  84.0216637
  45.8278370  80.7785702  84.5285892  45.6442213  80.0588226  82.9568386
  44.6274090  79.5935249  84.2502880  47.0672464  78.8400841  85.9706497
  48.1487226  79.3506432  86.2339401  46.2723303  78.2987690  86.9513130
  45.3687239  77.9546690  86.6594315  46.7449379  78.1539583  88.4171104
  46.8174410  79.1005659  88.9526176  45.8058929  77.4359608  89.3542957
  46.2561893  77.6838684  90.3154850  44.2957258  77.9267740  89.3210983
  44.1548395  79.0036154  89.4141483  43.8254642  77.7903128  88.3472729
  43.7510252  77.5062799  90.1664257  45.8237696  76.0188723  89.0781879
  45.5026960  75.9186363  88.1790352  48.1657553  77.5119638  88.5667992
  48.8890123  77.7371645  89.5902538  48.5370731  76.6610861  87.5841141
  47.9389906  76.6335201  86.7706966  49.8690796  76.0231066  87.4911690
  50.2732849  76.0240221  88.5034561  49.6106672  74.5835733  86.8730736
  48.8583708  74.6124792  86.0848427  50.4970026  74.1488934  86.4109421
  48.9324808  73.7337351  87.8622437  48.2138968  74.2730141  88.4794235
  48.3247995  72.4924707  87.2786999  48.3207560  71.7367887  88.0642128
  47.3327494  72.7977085  86.9458866  48.8141775  72.2428656  86.3372612
  50.0382233  73.1961584  88.8262653  50.9136915  72.8720188  88.2635975
  50.3247213  74.0095472  89.4929123  49.7708035  72.3452616  89.4528103
  50.7674646  76.9424438  86.6413879  51.1723852  78.0137491  87.1337605
  50.9630442  76.7385340  85.3480434  50.4835320  75.9425545  84.9523449
  51.9546032  77.4137783  84.4800282  51.9337034  78.4623194  84.7770691
  53.3792830  76.9143486  84.6676350  54.0874958  77.5949001  84.1950035
  53.6431932  76.9386625  85.7249260  53.4559727  75.5506706  84.0525246
  53.8310575  75.2867460  82.9433250  53.3932066  74.5714092  84.9078560
  53.4412003  73.5950136  84.6539783  53.1261778  74.6086645  85.8812046
  51.6407585  77.4431086  82.9937458  50.8331728  76.6091871  82.5633621
  52.2654343  78.2904053  82.2266102  52.9400063  78.9255619  82.6286316
  51.9778442  78.5336494  80.8064556  50.9448385  78.8759804  80.7447243
  52.5707912  79.3749094  80.4475784  52.2154808  77.3227787  79.8603344
  51.3956785  77.1233892  78.9697409  53.2771969  76.5257740  80.0948524
  53.9184856  76.7041969  80.8544636  53.5823202  75.3319979  79.3447065
  53.6464739  75.5968189  78.2893133  54.9595356  74.8195219  79.8168325
  55.1818609  73.9366674  79.2174625  55.7099438  75.5721617  79.5749283
  55.0254393  74.5516396  80.8713436  52.4928713  74.3412733  79.5143127
  51.9166613  73.9297724  78.5234213  52.2827339  73.9588928  80.7673264
  52.6893473  74.3908262  81.5847588  51.2084818  72.9365969  81.0407352
  51.4703417  72.1200275  80.3678703  51.3909435  72.3271036  82.4624157
  52.4712610  72.1999836  82.5321102  51.2220144  73.2241583  83.0581093
  50.5448437  71.1613369  82.8836441  49.6363306  71.3220501  82.3032379
  51.2748337  69.9704409  82.3189831  50.7391882  69.0525675  82.5612545
  51.3710022  70.1425743  81.2469578  52.3044348  69.9218225  82.6734734
  50.3326082  71.1574268  84.3979263  49.3064260  70.8624411  84.6170807
  51.0676003  70.4572153  84.7949028  50.5918264  72.1325493  84.8102951
  49.8452330  73.4631395  80.7262802  49.1151571  72.5923538  80.1968288
  49.5294619  74.6930885  80.9812927  50.2387714  75.2146578  81.4762211
  48.2406521  75.2938461  80.4644680  47.5125694  74.6186829  80.9140682
  48.1131744  76.7148829  81.0052109  48.0232668  76.6434097  82.0891380
  49.0179062  77.2667599  80.7502842  46.9264030  77.5364399  80.3698254
  46.9518185  77.3615742  79.2942429  46.0058880  77.1711540  80.8251476
  46.9867039  79.0192842  80.5993652  48.0179119  79.5970964  80.9977436
  45.9349728  79.8139524  80.3577518  46.0849714  80.8113670  80.4102516
  45.0697899  79.3427992  80.1350784  48.0239344  75.1288366  78.9625645
  46.9601345  74.5647240  78.6514235  49.0073586  75.4011965  78.0170870
  49.8467636  75.7231665  78.4773350  48.9613199  75.0282669  76.5797949
  47.9579544  75.3344107  76.2837553  50.0808239  75.6852055  75.6707907
  50.0911283  76.7633629  75.8306837  51.0606050  75.2556753  75.8796883
  49.9066067  75.3970718  74.1974831  48.6963940  75.7777882  73.5691118
  48.0056906  76.4075613  74.1101456  48.5675526  75.3857470  72.2602987
  47.6373339  75.6075764  71.7584181  49.5395470  74.6541452  71.5413952
  49.4767189  74.4716644  70.4787731  50.7555485  74.3643332  72.1334696
  51.6339588  74.0477228  71.5907383  50.9126186  74.6937895  73.4587669
  51.8096828  74.3801212  73.9718914  48.8311243  73.5222530  76.3591957
  47.9760551  73.0379534  75.6441736  49.7565651  72.7398586  76.9856167
  50.4654312  73.1444502  77.5805235  49.8839092  71.3489914  76.6167259
  50.1716614  71.1672640  75.5812168  50.9706116  70.7744837  77.5063133
  50.8025169  70.9447241  78.5697317  50.9598827  69.6848536  77.4797869
  51.9547606  71.0217905  77.1083212  48.5683298  70.4933119  76.8278694
  48.0674839  69.8130274  75.9561968  48.0134630  70.5718231  78.0529070
  48.3681965  71.2810898  78.6783695  46.7721081  69.9082756  78.5077381
  46.9462585  68.8414288  78.3676815  46.5221453  70.1809692  79.9490309
  45.4925489  69.8443222  80.0702477  47.5414991  69.4773102  80.8964539
  48.5595083  69.6668959  80.5561447  47.3254108  69.7186184  81.9372177
  47.4678946  68.4011889  80.7394505  46.4980412  71.5555859  80.1052856
  47.3959732  71.8166447  80.3224754  45.5889750  70.2820015  77.5991344
  44.7747183  69.4137192  77.2477865  45.4627991  71.5765524  77.3434353
  46.0406256  72.1866560  77.9037905  44.4298744  72.3185062  76.5512228
  43.4599972  72.0622873  76.9775963  44.6537256  73.7726879  76.8189907
  44.7407484  73.9142227  77.8962517  45.6093740  74.0712643  76.3880730
  43.5968828  74.6435070  76.1159229  43.5738373  74.4119120  75.0510597
  42.6295185  74.2614222  76.4419889  43.7613249  76.1565590  76.3011026
  42.8190279  76.6742563  76.1217117  44.1133785  76.4916706  77.2767353
  44.8531818  76.7757273  75.3894281  44.9781036  77.8176975  75.6840324
  45.8013391  76.3976431  75.7717228  44.7518301  76.5437317  73.9065266
  44.8942137  75.5876017  73.6138773  43.9592981  76.9796419  73.4571123
  45.5518723  76.9734287  73.4644938  44.4558048  71.8426228  75.1411295
  43.4257221  71.4064360  74.6265602  45.5952692  71.9125700  74.5018673
  46.3713837  72.1857357  75.0876331  45.8692884  71.3646269  73.2357597
  45.2184963  71.9363356  72.5741529  47.2946358  71.6858959  72.8882074
  47.5550079  72.7395058  72.9892588  47.8436184  71.2177658  73.7052584
  47.9053068  71.1800432  71.5596437  48.9867592  71.3161755  71.5542555
  47.6620722  70.1175404  71.5647125  47.3423576  71.9236517  70.3831053
  46.2201929  72.4428940  70.4218626  48.0608511  72.0156527  69.3163919
  47.7951956  72.5721025  68.5164547  48.9601135  71.5565157  69.2914534
  45.6169558  69.8264551  73.0760765  44.9086475  69.5097828  72.1636677
  46.2594604  68.9801931  73.9208221  46.8332624  69.4320631  74.6184349
  45.9380150  67.5967264  73.8417530  46.2220430  67.3058462  72.8304100
  46.7611599  66.6845751  74.8595905  46.5075636  66.8750763  75.9024239
  46.4927530  65.6655836  74.5808220  48.2593060  66.8085957  74.5701885
  48.6896753  67.8071785  74.4945478  49.0580750  66.0533094  75.6662703
  50.1124811  66.2924910  75.5280018  48.8797092  66.4329863  76.6723156
  48.8457346  64.9853945  75.6154585  48.6393404  66.3105822  73.1060171
  49.7013330  66.4843130  72.9325342  48.3736944  65.2591944  72.9960251
  48.1175470  66.8857098  72.3411274  44.4342470  67.2732353  74.0690947
  43.8911390  66.4745569  73.2917023  43.7592459  67.8904104  75.0832462
  44.1981363  68.4876013  75.7694244  42.2995901  67.6890182  75.3004313
  42.0944548  66.6415453  75.5214024  41.7763615  68.6344004  76.3772154
  42.5270033  68.6866236  77.1658230  41.8225241  69.6527672  75.9913349
  40.5028296  68.2986784  76.9526577  40.6983137  67.5745344  77.5518274
  41.5806866  67.9996204  73.9543629  40.8202457  67.2358656  73.3810520
  41.8838739  69.1186571  73.3908606  42.4373245  69.7589445  73.9420557
  41.2314272  69.5852518  72.1197271  40.1487875  69.4794893  72.1890354
  41.4928532  71.0949469  71.9264078  41.4650440  71.5479946  72.9174042
  42.4772406  71.2087297  71.4723778  40.3690720  71.7251539  71.0078239
  39.4763970  71.6455078  71.6282225  40.6498718  72.7752256  70.9266233
  40.1195574  71.2299252  69.6199989  39.6482420  70.2520657  69.5212364
  39.4411039  71.9038200  69.0968609  41.3376570  71.0950851  68.8868666
  42.1585894  71.5119314  69.3020916  41.6614056  70.2360010  67.9177666
  40.8217144  69.5802021  67.2775602  39.8775649  69.9172592  67.1547747
  41.2014675  68.8048220  66.7534733  42.9039574  70.0179672  67.6070595
  43.6516428  70.4989910  68.0863142  43.1221104  69.3130207  66.9174480
  41.6448879  68.6567879  70.9305573  40.8043432  68.3051062  70.0961208
  42.8804493  68.2374382  70.8401012  43.5715246  68.7549829  71.3641787
  43.4361029  67.3260307  69.8266602  43.1683445  67.7433681  68.8559723
  45.0181484  67.3072481  69.9417305  45.1647139  66.9297886  70.9537363
  45.6851149  66.4843655  68.8689852  45.2149010  66.6290617  67.8963232
  46.7582989  66.6139174  68.7289953  45.4613638  65.4849291  69.2420244
  45.3643560  68.7121439  69.6653938  44.8992777  69.1602945  70.3756523
  42.8701401  65.8913708  69.8655272  42.6018906  65.4139423  68.7881994
  42.5716400  65.3875446  71.0570574  42.6727295  65.9005690  71.9211674
  42.0660162  64.0252542  71.2623835  42.2276688  63.4461164  70.3532219
  42.8807735  63.4284735  72.4031115  42.6214886  64.0778828  73.2392645
  42.4489117  62.4425459  72.5749779  44.4287014  63.1829977  72.2669649
  44.8999643  64.1539717  72.1145630  44.8568106  62.6155519  73.5933352
  44.3443489  61.6892767  73.8531303  45.9268713  62.4106121  73.5606575
  44.7857571  63.3648539  74.3817520  44.8262358  62.2484350  71.0644054
  44.5770216  62.7756548  70.1435184  45.9145784  62.1933079  71.0882854
  44.4413424  61.2288952  71.0866928  40.5532694  64.0227079  71.5374851
  39.9539089  62.9992533  71.8647432  39.8018312  65.1689482  71.3627815
  40.3672314  65.9676027  71.1126471  38.2992125  65.2957821  71.5100336
  37.9656649  65.0018883  72.5052595  37.8496075  66.7790365  71.3436270
  38.3545661  67.2587967  70.5052042  36.7630005  66.7267513  71.2754345
  38.2291389  67.5184393  72.4592161  39.1076779  67.2495079  72.7375078
  37.4754548  64.3838501  70.5009794  36.3409424  64.1056585  70.8420277
  37.9033566  63.9740896  69.3234777  38.8147879  64.3038416  69.0394783
  37.1019006  63.1553316  68.3710384  36.2452865  62.6814651  68.8503695
  36.6155100  63.9171076  67.1542645  37.4853921  64.2424870  66.5837097
  36.0619473  63.1768560  66.5765953  35.6059742  65.0074148  67.3362160
  36.0103798  65.8746099  67.8582573  35.1841807  65.2873468  66.3709021
  34.4110012  64.5373011  68.0962849  34.0209460  63.6508274  67.5961685
  34.7579288  64.2769670  69.0962744  33.2999539  65.5656815  68.1275511
  33.3165145  65.9623432  69.0562487  32.3659992  65.8942699  67.2050333
  32.3759294  65.5361891  65.9520292  33.1755400  65.0424290  65.5819988
  31.6846991  65.8401775  65.2812910  31.4283562  66.6543484  67.6230955
  31.1879277  66.6897535  68.6034250  30.7286596  66.9135332  66.9423962
  37.8561044  61.8465853  67.9795790  37.4301696  61.1566162  67.0640564
  38.9377666  61.4880371  68.6594105  39.2138553  62.0839500  69.4267178
  39.7954297  60.2676821  68.4727097  40.2810478  60.2643061  67.4968719
  40.9530067  60.2010775  69.4780970  40.6515169  60.1846075  70.5254507
  41.6136217  59.3495274  69.3151617  41.5768385  61.0800409  69.3157673
  38.9061427  58.9907694  68.4655380  37.9703021  58.8738155  69.2414427
  39.1581178  58.1289244  67.4476624  39.8178220  58.3541965  66.7168093
  38.4953928  56.7967272  67.2927856  37.9304290  56.5694666  68.1968164
  37.6647449  56.6499043  66.0081291  37.0968461  55.7195425  66.0123587
  36.6105437  57.7366161  65.8931494  37.1519423  58.6651373  66.0743666
  36.1083126  57.6964617  64.9265814  35.7773876  57.6902676  66.5944386
  38.4927845  57.0137262  64.9400759  38.9409661  56.2194443  64.6403265
  39.5826292  55.7094431  67.2734451  40.7288885  56.0155487  66.8297195
  39.3110323  54.4646406  67.7000952  38.0168152  53.8629723  68.0472803
  37.2900224  53.8536358  67.2350121  37.6509213  54.4104147  68.9159250
  38.3007693  52.4476051  68.4069014  38.1059599  51.8477774  67.5178862
  37.6065946  52.1586084  69.1960192  39.7447920  52.3567438  68.7715673
  40.0712109  51.3668871  68.4526157  39.9492788  52.6570845  69.7992277
  40.3700972  53.4936190  67.8857279  41.2027454  53.8553858  68.4889889
  40.9201431  52.9207563  66.5859985  40.1314688  52.4163008  65.7980442
  42.2487211  52.7649355  66.4695215  42.8384399  53.1675673  67.1838188
  42.8058386  52.0817375  65.2715588  42.2498512  52.5196886  64.4425917
  44.2679501  52.4734783  65.0683737  44.8415947  52.3637581  65.9886932
  45.0084019  51.7853546  63.9196873  44.4686985  52.0105219  62.9998398
  45.9901428  52.2434616  63.7996101  45.0455713  50.7218266  64.1555214
  44.4245672  54.0729713  64.9490547  44.3846321  54.5037937  65.9495020
  45.4501152  54.3360567  64.6899414  43.4932232  54.9584723  64.1234112
  43.1343317  54.4832754  63.2104540  42.7108097  55.4561186  64.6963692
  44.0569353  55.8104706  63.7433720  42.6247406  50.5997086  65.4492855
  43.0577517  50.0939178  66.5017366  41.9899464  49.8641968  64.5430803
  41.7576885  50.2747822  63.1724548  42.6482439  50.7220316  62.7308893
  40.8824110  50.9232521  63.1340361  41.4303398  49.0136576  62.3768759
  42.3058844  48.7107611  61.8026114  40.6024408  49.2424488  61.7058086
  40.9721184  48.0410528  63.4416294  41.2388039  47.0215893  63.1629419
  39.9091530  48.2558775  63.5514307  41.7429113  48.4527206  64.7063112
  41.1226749  48.3280706  65.5939341  43.0394936  47.6475954  64.8915720
  44.0163660  48.0955315  64.3219423  43.0313587  46.5573740  65.6261635
  42.1696043  46.2711668  66.0684013  44.2887259  45.8071470  65.7573700
  45.1157475  46.5004492  65.9105730  44.1335154  45.0092888  67.0277405
  44.0818691  45.6544495  67.9047823  43.1295490  44.5922518  66.9487953
  45.1106739  43.8577700  67.3321247  44.7817469  43.3392859  68.2327223
  45.1219082  43.0892706  66.5592194  46.5699768  44.3974018  67.6424217
  47.4369001  43.5517073  67.8792334  46.8848515  45.6131124  67.6903343
  44.5387745  44.8645210  64.5753765  43.6215448  44.3459606  63.9787245
  45.8165836  44.5527363  64.2457485  46.5410471  44.8434162  64.8866463
  46.0786152  43.3940840  63.4754133  45.3069210  42.6887846  63.7838602
  45.9699297  43.5640097  61.9333649  45.3979397  42.6837730  61.6398859
  45.2589083  44.3642044  61.7278624  47.2492599  43.7290764  61.1760426
  47.5683880  45.0310183  60.7280493  46.8494415  45.8113480  60.9295464
  48.7496138  45.3413439  59.9989748  48.9600277  46.3855982  59.8210573
  49.5351648  44.2583370  59.5782042  50.6699848  44.5171547  58.8571930
  50.7868576  45.4664946  58.7753725  49.2477798  42.9536724  59.9513578
  49.8936701  42.1424007  59.6495724  48.1490707  42.6773119  60.7729053
  47.9066038  41.6360760  60.9260225  47.4400282  42.7707291  63.9339018
  48.3954906  43.4925508  64.2549515  47.5605869  41.4369249  64.0346909
  46.7863894  40.9271479  63.6336231  48.5095978  40.6817770  64.8479366
  48.6846542  41.1959791  65.7929516  47.8701687  39.2913246  65.1947117
  47.9231548  38.7201381  64.2678642  48.5393906  38.8599944  65.9391546
  46.4100599  39.2251873  65.6976414  45.6969404  39.5654893  64.9467993
  45.9592009  37.7169895  65.9697485  44.8867035  37.6722288  66.1590719
  46.2746859  37.1524620  65.0923204  46.4903116  37.3802328  66.8600368
  46.3310528  40.0723934  66.9473076  45.3843784  39.9250340  67.4671078
  47.0805407  39.7139454  67.6529169  46.3215780  41.1205149  66.6482162
  49.9375725  40.5137920  64.2141628  50.8499575  40.0466776  64.9157906
  50.1500988  40.8479500  62.9416037  49.3748569  41.2500858  62.4342632
  51.3950729  40.6245518  62.2925091  51.1195612  40.8112574  61.2545633
  52.5747538  41.4573193  62.7636099  52.6978302  41.4033890  63.8452911
  53.5224867  41.1447763  62.3251820  52.5764513  42.9823256  62.4221039
  53.5590410  43.4527779  62.3861361  52.2692680  43.1995344  61.3990927
  51.7339897  43.8253498  63.3124733  50.9213114  43.2635212  63.7729263
  52.3569155  44.2333221  64.1084719  51.1907482  45.0832367  62.5227928
  52.0781660  45.6918812  62.3491764  50.7878256  44.7231865  61.5761566
  50.2675152  45.8566666  63.3688736  50.6945992  46.5083551  64.0115261
  49.7718334  46.4649916  62.7329969  49.6780825  45.2329588  63.9014673
  51.7033386  39.1713500  62.1398783  52.8762865  38.8379502  62.1575928
  50.7302237  38.3041334  62.0448780  49.7893953  38.6613154  62.1306562
  50.9604454  36.9490623  61.6733694  51.5210581  36.5593815  62.5230551
  49.6693611  36.1339617  61.6599178  49.9327993  35.1395559  61.2995577
  49.2641735  36.0537791  62.6686287  48.6320686  36.8022203  60.6497335
  49.1169167  37.4053812  59.8821259  48.0741262  36.0874510  60.0448322
  47.5606775  37.5794935  61.3336754  47.4266243  38.7812662  61.3392735
  46.5498734  36.8925428  61.7933655  45.6849575  37.2810245  62.1413565
  46.6917801  35.9098935  61.9787455  51.8927813  36.6640615  60.4676819
  51.7870522  37.3757625  59.4585371  52.5747347  35.5361056  60.4691219
  52.4392557  34.9400449  61.2731504  53.5278416  35.2288628  59.3669605
  52.9833126  35.3100109  58.4262133  54.7998428  36.1334562  59.4072771
  54.5331717  37.1335196  59.7491312  55.9565639  35.7418585  60.3666449
  56.4292192  34.7982740  60.0939941  56.7791843  36.4459729  60.2416611
  55.7164049  35.8778238  61.4211273  55.5448818  36.2468696  58.0432892
  56.3576126  36.9726682  58.0713987  55.8533239  35.2246189  57.8242731
  54.6377087  36.7669821  56.9497395  55.1350212  36.9052291  55.9897041
  53.8348675  36.0516715  56.7711782  54.2538404  37.7292538  57.2885323
  53.9579248  33.7169147  59.3794870  54.0340662  33.2229376  60.5463934
  54.1739702  32.9469419  58.2898712  53.8416004  33.2542276  56.8315029
  54.5929098  33.9804816  56.5213585  52.8239822  33.5841489  56.6224527
  54.0651417  31.9141865  56.0325098  54.4232225  31.9855714  55.0054836
  53.1096411  31.3980126  55.9393215  55.1806498  31.2074351  56.8419313
  56.1032486  31.7077279  56.5476274  55.3010130  30.1327205  56.7055511
  54.8028326  31.6083598  58.3428812  54.0604973  30.8780074  58.6648035
  55.9951115  31.3930917  59.2460060  56.8107271  32.3565459  59.2848063
  56.0670948  30.3161120  60.0098801  55.4020643  29.6057439  59.7392893
  57.0102024  30.1947522  61.1557770  56.7784977  30.9646201  61.8917942
  56.7776775  28.8526654  61.9162178  55.7004929  28.7492657  62.0468903
  57.3194742  28.0164933  61.4742184  57.4291801  29.0443206  63.3064651
  56.8623209  29.7356820  64.1431713  58.5661411  28.4104276  63.6287785
  58.8720655  28.5420060  64.5823002  58.8578701  27.6603103  63.0185986
  58.4870291  30.3378463  60.7343531  59.3531895  30.7218814  61.5735626
  58.8223791  30.0840521  59.4745922  58.1756687  29.5200586  58.9418840
  60.0979710  30.3784251  58.8210297  60.9056520  29.8285890  59.3041801
  60.0305700  29.9631047  57.3371220  61.0612345  30.1065063  57.0126677
  59.8498917  28.8906765  57.2638655  59.1570997  30.7458115  56.5938807
  59.5918751  31.5946984  56.4844704  60.5770922  31.9100094  58.8785601
  61.7726564  32.1552610  58.9352751  59.6691942  32.8527284  58.8966799
  58.7367392  32.5715423  58.6291552  60.0337744  34.2534971  58.8180637
  61.0134363  34.3233871  58.3453274  59.1473818  34.8698187  57.7006102
  59.0929031  34.2851114  56.7823172  58.1294870  34.8543239  58.0901623
  59.6367311  36.6018748  57.3349190  60.0715113  36.9050050  58.5612869
  60.1727533  34.9297476  60.1495457  60.6405210  36.0148239  60.2500534
  59.8635006  34.2517400  61.2213469  59.5985079  33.2960033  61.0304356
  59.7235918  34.7307658  62.5897646  59.1998005  35.6865859  62.6021862
  59.0055847  33.6064148  63.4633493  59.5502281  32.6649380  63.3920002
  58.7881565  34.0246248  64.9019623  58.2585001  34.9727678  64.9946642
  58.1441116  33.2741833  65.3603840  59.6650887  34.0592933  65.5484009
  57.5996685  33.4522271  62.7692080  57.0238686  32.7722859  63.3970881
  57.0702505  34.3936253  62.6222754  57.6405668  32.9885221  61.7836094
  61.1600447  34.9780488  63.1778288  61.7615795  33.9888287  63.6284065
  61.6255713  36.2175322  63.1779909  60.9444952  36.9195414  62.9261446
  62.8979492  36.6660476  63.6082649  63.6058474  35.9542251  63.1836605
  63.2449675  37.9967141  62.9838705  64.1108561  38.5140276  63.3970642
  63.5035515  37.8551698  61.9344902  62.1509075  38.8083100  62.9992580
  62.4423218  39.7225285  62.9695797  63.0739117  36.6628695  65.1493883
  62.0875311  36.6108584  65.8949947  64.2739439  37.0512795  65.5501604
  64.9867010  37.0644355  64.8346853  64.6538448  37.1376467  67.0153999
  63.8179541  36.9984651  67.7009773  65.4947376  36.4593291  67.1599054
  65.1480818  38.5728359  67.4466228  64.6238470  39.5150590  66.9225264
  66.2633371  38.6484838  68.2157850  66.6035843  37.7352381  68.4809589
  67.0285368  39.8590326  68.6461020  66.3236189  40.6564951  68.8811588
  67.6880026  39.4978404  70.0161409  67.9470778  38.4390950  70.0098705
  66.9509315  39.7001553  70.7932520  69.0628767  40.5432034  70.5123568
  68.0034447  40.2937937  67.5394392  69.0760136  39.7540855  67.3481417
  67.4497271  41.2396097  66.7665672  66.4666224  41.4219999  66.9091892
  68.1182003  41.8834877  65.6417942  68.8024855  41.1656141  65.1895571
  67.0305777  42.4335003  64.7144890  66.4647245  43.1135273  65.3512573
  67.4668360  43.0624771  63.9384937  65.9677219  41.0904074  63.9918518
  65.5978060  40.6068707  65.1810741  69.0659571  43.0301666  65.9892416
  69.6557188  43.6370325  65.0604820  69.0710211  43.3939266  67.3299456
  68.3301830  42.9996443  67.8918982  69.9000072  44.4852352  67.8974199
  69.3070841  45.3601837  67.6309299  69.9043465  44.3136072  69.4531679
  70.5358410  45.0795841  69.9032736  70.3181839  43.3352375  69.6973705
  68.2226372  44.3946075  70.1462603  71.2690735  44.6295261  67.1660089
  71.4816761  45.6286097  66.4660120  72.1725130  43.6651373  67.4420261
  71.8528795  42.8884983  68.0030727  73.5554218  43.8050270  67.0119572
  74.0091133  44.6210098  67.5744820  74.0176725  42.8447819  67.2407579
  73.5811377  44.0236282  65.4198551  74.3164730  44.8357439  64.8930168
  72.7844572  43.3055687  64.6069479  72.2392607  42.5222445  64.9375010
  72.9597521  43.2525682  63.1067228  74.0371370  43.1691504  62.9639578
  72.2010469  41.9867945  62.5867891  72.4256945  41.1515617  63.2501364
  71.1505651  42.2450256  62.7206135  72.5294018  41.7112112  61.1800241
  73.7387609  41.2810373  60.6866407  74.6126938  41.1403561  61.3053846
  73.5939264  41.2208939  59.3203068  74.3243551  40.9609985  58.6729813
  72.4223566  41.7596912  58.8939047  71.9634581  41.9220400  57.5909472
  72.5821877  41.6830063  56.7386341  70.6621075  42.4845362  57.5315475
  70.3706837  42.7672863  56.5307856  69.8570967  42.7681208  58.6164570
  68.8605881  43.1575584  58.4690762  70.3134298  42.4968863  59.8732328
  69.7738075  42.7590227  60.7712841  71.6464186  42.0229197  60.0356388
  72.4686289  44.6065474  62.5656033  73.1438780  45.1742554  61.6755819
  71.2891865  45.1230812  62.9908180  70.6963968  44.7179317  63.7011385
  70.9321308  46.4978266  62.7079344  71.0344219  46.6883564  61.6396046
  69.4413757  46.6948938  63.1747532  69.3691063  46.2768316  64.1788006
  69.1045284  47.7311468  63.1463623  68.4889221  45.8398056  62.2542477
  68.7881088  44.7958183  62.3473978  67.0955992  45.9160805  62.8439331
  66.7882633  46.9526720  62.9822397  66.2858915  45.4701376  62.2663498
  67.1521711  45.4415512  63.8235903  68.3579111  46.3128567  60.8377361
  67.6218176  45.6725407  60.3516674  68.0000973  47.3422384  60.8165503
  69.3083382  46.2172890  60.3127098  71.9220591  47.5412178  63.3040333
  72.2537565  48.5662699  62.7291632  72.4506903  47.3376703  64.4945526
  72.3008966  46.5111494  65.0553846  73.3558655  48.3159208  65.0892782
  72.7776718  49.2338037  65.1955080  73.8093042  47.9243708  66.4995718
  74.3079805  46.9569159  66.4407539  74.8032999  48.9577770  67.1777296
  74.5756483  48.8107681  68.2335043  75.8395243  48.7331533  66.9249773
  74.5627403  49.9921513  66.9321632  72.7197933  47.8054047  67.3074341
  72.1174145  47.1780586  66.9010115  74.6187019  48.5157108  64.2564154
  75.0894403  49.6513462  64.2154694  75.1898813  47.4420261  63.5620928
  74.7747183  46.5290213  63.6810970  76.3199759  47.6340485  62.6242590
  77.0743942  48.1067657  63.2531404  76.7832422  46.3435459  61.9746637
  75.9253931  46.0068369  61.3925791  77.5651360  46.4748478  61.2266636
  77.2615337  45.2602386  62.9731941  78.0927944  45.5922890  63.5951662
  76.4279175  44.8468828  63.5409260  77.7426815  44.0342426  62.1931458
  77.0236158  43.7841320  61.4130831  78.6289406  44.4386435  61.7041588
  78.1335545  42.8858805  63.0960989  78.7670803  43.2729578  63.8941669
  77.2579193  42.4524736  63.5793352  78.8719559  41.7924404  62.4136353
  78.5091925  41.4962435  61.5187788  79.8332214  42.0742035  62.2845030
  78.8589907  40.9023333  62.8907490  75.9117270  48.6201620  61.5151310
  76.7336130  49.5428705  61.2863827  74.7215366  48.4766483  60.8983755
  74.0900517  47.7349663  61.1652803  74.1854191  49.3411493  59.7926664
  75.0497007  49.4644117  59.1400433  73.0347729  48.6944866  59.0431786
  72.3725033  49.5162058  58.7706566  73.5598850  48.0664682  57.7992153
  72.8902149  47.4450779  57.2046375  73.5779095  48.9892244  57.2193003
  74.5579958  47.6304626  57.8413296  72.4004698  47.6803875  59.7643232
  72.2882938  46.9379854  59.1661167  73.9263487  50.7546473  60.2445650
  74.2279577  51.6678238  59.4716930  73.3162117  50.9575081  61.4428663
  73.1910992  50.1167679  61.9883966  73.2546186  52.2691488  62.1948814
  72.5983620  52.8659010  61.5613890  72.5720501  51.9853401  63.5260057
  73.1034756  51.2057352  64.0718079  72.6487732  53.1087971  64.4726229
  72.1324968  53.9766502  64.0622663  72.2190189  52.8024006  65.4263163
  73.6961699  53.3939171  64.5714760  71.0550928  51.5692186  63.3737230
  70.3667498  52.3984337  63.2103825  70.9562826  50.8033943  62.6044035
  70.6450701  51.1429644  64.2893076  74.6144581  53.0237532  62.2815084
  74.8439217  54.1030216  61.7145157  75.5294037  52.2989607  62.9972839
  75.2760553  51.3655806  63.2883406  76.9346428  52.6668596  63.2717609
  76.9499063  53.5882902  63.8538599  77.6555538  51.7225981  64.2041254
  77.6402855  50.6980896  63.8322973  78.6616993  52.1384716  64.1510344
  77.2174120  51.9478226  65.6853199  76.9935179  53.0059433  65.8208036
  76.3409281  51.3599253  65.9578133  78.3786631  51.4840078  66.6047525
  78.3307934  50.3969574  66.6690254  79.3570566  51.8167114  66.2581110
  78.0524111  52.0693970  67.9290771  77.9611826  53.1552935  67.9538059
  77.0617485  51.7368126  68.2390356  78.9055300  51.6910028  69.0479660
  78.7994528  52.2340584  69.8929167  78.7757778  50.7212543  69.2986727
  79.8266172  51.8351364  68.6594820  77.7322292  52.9284382  61.9698954
  78.3616400  53.9638138  61.8656683  77.5862074  52.1481657  60.9171820
  77.0037031  51.3459826  61.1103153  78.2079315  52.4513197  59.6124458
  79.2476606  52.6947594  59.8310757  77.9400444  51.3445854  58.6132288
  78.5708618  50.5299187  58.9688826  76.8956661  51.0326338  58.6046743
  78.2578659  51.5711546  57.1529484  78.1334066  50.6251478  56.6260004
  77.5261927  52.1909714  56.6347027  79.6109533  52.1762037  56.9143105
  79.7511292  52.9093504  55.9270763  80.5318832  51.9526863  57.7311802
  77.6877642  53.7300968  59.0018654  78.4102106  54.5943069  58.5916471
  76.3766527  53.9174891  58.9887333  75.8075142  53.1942415  59.4047832
  75.7351637  55.1255178  58.4610462  76.3200235  55.2952862  57.5570440
  74.2556715  54.8957300  58.2382107  73.7231636  54.8861885  59.1892338
  73.6988831  56.0126257  57.3467970  74.3072033  56.1988163  56.4617157
  72.7327061  55.6753349  56.9715118  73.5100460  56.9374228  57.8919411
  73.9140940  53.7243652  57.5129414  74.1331911  52.9446936  58.0284071
  75.9849501  56.4292431  59.3392706  76.0309315  57.5220823  58.8154697
  76.5526199  56.2125254  60.5634737  76.5619326  55.2578974  60.8931684
  77.1975613  57.0910406  61.4731789  76.8137884  58.1021309  61.3370705
  76.9100904  56.6678333  62.9602051  77.5294018  55.8396053  63.3045816
  77.1213055  57.7716541  64.0552807  76.2992811  58.4637356  63.8725281
  76.9862509  57.3937798  65.0687265  78.0755901  58.2910252  64.1430330
  75.5986738  56.2684631  63.3025742  75.3795004  55.5357456  62.7223301
  78.7571955  57.1227312  61.1578226  79.5612812  56.9967175  62.0265341
  79.1437292  57.2241926  59.8846483  78.4657812  57.1340227  59.1414356
  80.5972576  57.3690319  59.4718313  80.6301689  57.1417475  58.4063005
  81.0802269  58.8674593  59.5954466  81.0110569  59.1886616  60.6347466
  82.1579838  58.8861895  59.4335604  80.3764915  59.8441887  58.6791706
  80.7687664  59.6068764  57.6902771  79.2968941  59.6940422  58.6847115
  80.7588100  61.3309526  58.8793230  81.8410683  61.4327335  58.9596510
  80.5761528  61.8162394  57.9205561  80.1375484  61.9269514  60.1065016
  80.5175877  61.7196417  61.0190248  78.9812422  62.5489187  60.2236652
  78.1815100  62.7844954  59.2403412  78.4879208  62.7481031  58.2786274
  77.2212982  62.9878759  59.4785213  78.6044550  62.8967142  61.3950205
  79.2366648  62.6302814  62.1362543  77.7228117  63.3545542  61.5772200
  81.5123177  56.3302374  60.0823259  82.6647854  56.6004658  60.3225851
  81.0743332  55.0383425  60.1555586  80.1884937  54.8109961  59.7269583
  81.7372322  53.9281416  60.7997656  80.9991264  53.1270456  60.8391619
  82.9479504  53.5665703  59.9209118  83.6629295  54.3759108  60.0688410
  83.6210346  52.2485256  60.1913881  84.5525646  52.1701288  59.6308470
  83.9030552  52.1871090  61.2424803  83.0383492  51.4040565  59.8233461
  82.6465511  53.6093664  58.4879923  81.9655514  52.9685926  58.2705927
  82.1212387  54.2727661  62.2279263  83.2526398  54.1573238  62.6739168
  81.1306477  54.6766663  63.0432558  80.1849365  54.6022463  62.6965714
  81.2182903  54.7206688  64.5425081  81.9647884  55.4766464  64.7861052
  79.8171043  55.1376152  65.0167704  79.5230246  56.1132193  64.6297026
  79.1327238  54.3351746  64.7414351  79.7042990  55.3055716  66.5266037
  78.6855125  55.6021309  66.7760754  79.9313545  54.3431759  66.9852257
  80.5336761  56.4213467  67.1481943  80.8258057  56.3093996  68.3614492
  80.9105301  57.4590969  66.4745760  81.6822433  53.3675814  65.0920296
  81.1208820  52.4262857  64.5334005  82.5760746  53.1975126  66.0901165
  83.3114338  54.2732811  66.6479206  82.7279758  54.8358154  67.3767710
  83.7305641  55.0124741  65.9652519  84.5242596  53.6875391  67.4029589
  84.7147942  54.1987467  68.3466053  85.4465199  53.7762356  66.8287945
  84.2448330  52.2143412  67.6140451  83.7542152  52.1687937  68.5863256
  85.1821804  51.6611910  67.6732969  83.2065964  51.8898296  66.4509392
  83.6508465  51.5229845  65.5256367  82.2340488  50.8928156  67.1343517
  81.5061092  51.2564039  68.0174637  82.3177242  49.6016073  66.8556166
  82.8555202  49.4429636  66.0155535  81.3435173  48.5459661  67.3780251
  80.3651142  49.0074348  67.5117970  81.1020184  47.3476934  66.3905668
  82.0891666  46.8931961  66.3064575  80.0757980  46.3058901  66.8023729
  79.1911173  46.7785120  67.2290611  79.8343277  45.6656885  65.9538841
  80.4268551  45.5539417  67.5090742  80.8375549  47.7835464  64.9229717
  81.6710186  48.2883644  64.4345093  80.7794476  46.8923426  64.2980909
  79.5596981  48.6099005  64.6992493  79.9249315  49.6114016  64.9266243
  79.2343092  48.5717773  63.6596489  78.8015175  48.3769798  65.4469204
  81.7228031  48.1318569  68.8013601  82.8742886  47.8640556  69.0922594
  80.7391644  48.1300402  69.7453165  79.7900867  48.3176851  69.4552231
  80.9679699  47.4369526  71.0023737  81.8102455  47.9202509  71.4974499
  79.8065329  47.6324940  71.9937706  78.9810276  47.0170069  71.6362524
  80.0046444  47.2694635  73.0022669  79.2392349  49.0515327  72.1405172
  79.7983265  50.0026703  71.5864849  78.2897472  49.3795919  72.9629755
  78.2664156  50.3351784  73.2891846  77.7290869  48.6698008  73.4123850
  81.3409138  45.9556484  70.7801962  80.7965279  45.2753353  69.9024677
  82.0056152  45.3424692  71.8073511  82.3781490  45.9881496  72.4888325
  82.0625210  43.8971376  72.1251631  82.5089169  43.4231138  71.2510204
  82.9477787  43.5744333  73.3084488  82.6811314  42.5266981  73.4472322
  84.4150257  43.8650846  73.1105375  85.0701237  43.3733034  73.8296270
  84.6750641  43.5690498  72.0942450  84.5653343  44.9358606  73.2481766
  82.4720669  44.2946863  74.4107199  82.7518940  43.9305258  75.2537394
  80.6143856  43.2789946  72.2919989  80.5605602  42.0616341  72.2004175
  79.6429682  44.0850830  72.6101255  79.9480009  45.0135279  72.8651810
  78.2960463  43.6799288  72.9017782  78.3886385  42.6223850  73.1490231
  77.7864408  44.3465567  74.2092657  76.7959499  43.9091110  74.3344355
  78.7008429  43.7916613  75.3182125  78.5607672  42.7114582  75.2775764
  79.7409105  44.0923500  75.1919270  78.4250164  44.2670870  76.2594795
  77.8465033  45.7812071  74.1783905  76.9630289  46.0568810  73.9232731
  77.3756409  43.9313507  71.7272806  77.7953768  44.6456480  70.7867289
  76.1780071  43.3603954  71.7603922  75.9423351  42.8355074  72.5904846
  75.2276468  43.3940840  70.6116867  75.2614164  44.3246698  70.0451469
  75.5016136  42.0906925  69.7128725  74.6794128  41.9377851  69.0137959
  76.3212538  42.3679113  69.0499687  75.7839251  40.7634306  70.3078175
  77.1001482  40.5038071  70.7486296  77.8253603  41.3040972  70.7505560
  77.5675106  39.2311287  71.1705637  78.6067820  39.0233803  71.3783169
  76.5790987  38.1965375  71.1885405  76.8469620  36.8992019  71.4610100
  77.7293634  36.6564226  71.1711407  75.2455187  38.5035324  70.8486652
  74.5478773  37.6804805  70.8964157  74.8135471  39.7785044  70.4714918
  73.8138914  39.9875045  70.1202011  73.7725973  43.4971046  71.1782026
  72.9276991  42.7782106  70.7166386  73.5038996  44.3676138  72.1201372
  74.1798687  45.1158810  72.1772337  72.2785425  44.4552994  72.8730106
  71.6715288  43.6078405  72.5544977  72.5989866  44.1481304  74.3412304
  71.6454220  43.9083433  74.8116779  73.1824780  43.2279491  74.3712807
  73.2766438  45.2419662  74.8929358  73.9455843  45.5773115  74.2915535
  71.4653301  45.6903934  72.5932503  71.9534397  46.6337681  72.0141411
  70.1724911  45.7148743  73.0564117  69.8359060  44.9052668  73.5577583
  69.2243338  46.7995691  72.8189325  69.0095520  46.8522215  71.7516041
  67.8875065  46.6235447  73.5842991  67.4406767  45.7273626  73.1538296
  68.0346394  46.3577509  74.6311092  66.9194555  47.7801371  73.4277582
  66.5172863  48.2248640  72.1203709  66.6677904  47.6359892  71.2276363
  65.7096338  49.3214560  71.9333029  65.2564764  49.6561813  71.0118866
  65.3198576  50.0265598  73.0947447  64.5605183  51.1346197  72.9769278
  63.7151957  51.0012245  72.5419140  65.7982731  49.7112370  74.3921328
  65.6961679  50.4166985  75.2034903  66.6781521  48.6002302  74.5026255
  67.1041584  48.3682108  75.4675531  69.7957706  48.1035185  73.2899284
  69.6152925  49.0811253  72.5762177  70.4350138  48.1224823  74.4506598
  70.4641724  47.2170019  74.8971462  71.1029720  49.2620468  75.0986147
  70.3844118  50.0408983  75.3538752  71.9672155  48.9532185  76.3202763
  72.7943611  48.2675219  76.1365557  72.5237274  50.2195549  76.9591713
  73.2247210  50.5522490  76.1936426  71.7224455  50.9581804  76.9809628
  72.8258133  50.0878477  77.9981613  71.0588980  48.4125328  77.2859192
  70.7961845  47.5593519  76.9328403  72.0380402  49.8988152  73.9936686
  71.9661474  51.0834742  73.7289333  72.9601192  49.1377449  73.5001373
  72.9771280  48.1665611  73.7769222  73.9160776  49.6321154  72.5042820
  74.4595861  50.4469442  72.9825592  75.0049162  48.5848236  72.1836472
  74.5281744  47.9793596  71.4127827  75.8897734  49.0146446  71.7141962
  75.4342937  47.7089977  73.4127092  76.0316753  48.1194687  74.4232035
  75.2477551  46.5028906  73.2235861  73.2197762  50.1184797  71.1789322
  73.5299969  51.2092400  70.7527781  72.1734762  49.3762827  70.7155848
  71.7834806  48.5721207  71.1860371  71.3862705  49.7011852  69.5140219
  72.0911741  49.7008419  68.6826277  70.4265213  48.4838772  69.2730141
  71.1203146  47.6540709  69.1382122  69.8808765  48.1093407  70.1391029
  69.4727087  48.4323549  68.0639410  69.8466778  49.1666651  66.8429661
  70.7890081  49.6921873  66.7955017  68.9801788  49.1423178  65.7467461
  69.1698647  49.6086836  64.7912741  67.7680492  48.5138702  65.8469105
  67.2192860  48.4125328  64.9222565  67.4029541  47.8191805  67.0429659
  66.3964844  47.4308300  67.0939922  68.2488203  47.7900219  68.1462049
  68.0339384  47.2317362  69.0454006  70.7989979  51.0648060  69.5915079
  71.0794306  51.9583797  68.7635612  69.9762106  51.3056755  70.5828762
  69.7687864  50.5615473  71.2335300  69.2470980  52.5774479  70.7238054
  68.7142181  52.6949215  69.7802258  68.1664610  52.4222422  71.7995167
  67.5611925  53.3281326  71.8329620  67.4714899  51.6184473  71.5565729
  68.5394907  52.1527147  73.2723284  67.6804066  51.7393589  73.8007355
  69.3304968  51.4039421  73.2303047  68.9401674  53.4182262  74.0676594
  69.2770100  53.3095932  75.2359819  68.7220383  54.6133280  73.6045361
  68.9437199  55.4048014  74.1914988  68.3681488  54.7316265  72.6659870
  70.1584005  53.8072443  70.9713030  69.8966789  54.9593592  70.5222559
  71.3156652  53.5859680  71.5832520  71.5938902  52.6288843  71.7465782
  72.2924662  54.6119547  71.9578505  71.8126774  55.4257441  72.5015831
  73.3994532  54.0319061  72.8472614  73.4378099  52.9605484  72.6502180
  74.3843222  54.3764639  72.5319624  73.1738043  54.2743301  74.3107367
  73.0930424  55.3521061  74.4520950  72.1919012  53.8729572  74.5614719
  74.2834377  53.8402462  75.1988983  74.2707634  52.7503777  75.2099943
  75.2896881  54.0633011  74.8442078  74.0900612  54.5142412  76.6304970
  74.3507338  55.5664682  76.5166092  73.0561543  54.3145084  76.9120026
  74.9877071  53.9403772  77.6826000  75.0012684  52.9332399  77.6078606
  75.9033728  54.3566704  77.5911522  74.6598291  54.3044043  78.5658216
  72.9455709  55.0997543  70.6103134  72.8455687  56.2473583  70.2180147
  73.4399700  54.2330074  69.7483349  73.5312700  53.2903576  70.0993013
  73.9235783  54.4350624  68.3787966  74.7339058  55.1613855  68.4414768
  74.4710255  53.0365181  67.9044724  73.6293554  52.3456669  67.8553629
  74.9722481  53.1465769  66.9428253  75.1231289  52.5934696  68.6571836
  72.8622961  55.0053406  67.4412394  73.1732655  55.9282160  66.6744757
  71.5564346  54.5096731  67.5018072  71.4034605  53.7304735  68.1259441
  70.4306269  55.1833296  66.8286371  70.6011486  55.2298450  65.7530642
  69.0674067  54.4258070  66.9682693  69.1179514  54.2044973  68.0343723
  67.7493811  55.2343845  66.6959715  66.9037390  54.5555592  66.5855980
  67.7275515  56.0062456  67.4652910  67.9303789  55.6903267  65.7225990
  69.0014029  53.1012821  66.3256598  68.0521536  52.5984478  66.5105534
  69.1490841  53.2050037  65.2506971  69.7305250  52.4061155  66.7418623
  70.2678347  56.7155123  67.1929455  70.2898645  57.6324940  66.3436651
  70.2118587  57.0327044  68.5109997  70.3014946  56.3441515  69.2444563
  70.2672720  58.4243393  68.9283943  69.3800640  58.9000607  68.5104799
  70.0266123  58.5529852  70.4328728  70.6568670  57.8650475  70.9964466
  70.2682400  59.5709276  70.7386684  68.5945797  58.2458878  70.8484983
  67.6215935  58.4024000  70.1134968  68.3144426  57.8049850  72.0833731
  67.3466730  57.6493168  72.3268795  69.0896368  57.6484632  72.7116108
  71.5807247  59.1778421  68.4579468  71.5543413  60.3472328  68.2042027
  72.7239847  58.4890556  68.3616161  72.7698374  57.5144720  68.6227417
  73.9122486  59.0748405  67.6779079  74.1842651  59.9984598  68.1888247
  75.1667023  58.1582355  67.8013992  75.0795507  57.1386909  67.4258566
  75.8130741  58.6704350  67.0886898  75.8457327  58.2008362  69.1012526
  75.9216976  59.2186069  69.4839764  75.2803946  57.6511240  69.8537970
  77.1931839  57.5940752  68.9977455  76.9763660  56.5677452  68.7015486
  77.7950144  58.1276941  68.2621098  77.9533911  57.7224970  70.3370619
  78.2246733  58.7607956  70.5279636  77.1846437  57.5473356  71.0896969
  79.0580225  56.7069101  70.3096581  79.7385836  56.8469810  69.5766306
  79.5749235  56.6845083  71.1770773  78.6104965  55.8059645  70.2195501
  73.5474873  59.4484663  66.1969757  73.8027859  60.6046200  65.8248043
  73.0921984  58.5048914  65.3549099  72.8866577  57.5892019  65.7282209
  72.6316071  58.6671734  63.9947128  73.4857368  58.9198971  63.3664608
  72.1489382  57.2264099  63.5999298  72.9800701  56.5522528  63.8068962
  71.2996626  56.9510221  64.2252207  71.5953875  57.2131252  62.1718359
  71.0658121  58.1513929  62.0065784  72.7948332  56.9140816  61.2408829
  73.5881710  57.6103640  61.5127420  73.0365324  55.8547640  61.3276339
  72.4202681  57.1435881  60.2433205  70.5641317  56.0348368  62.0696783
  69.8560858  56.2310219  62.8748322  69.9635506  56.0717249  61.1608124
  71.0550165  55.0675058  62.1764278  71.6951609  59.8407984  63.7746000
  71.8356514  60.6580353  62.9056835  70.6751776  60.0056648  64.6143246
  70.4900980  59.2521763  65.2609348  69.7072983  61.0932875  64.4279766
  69.5468044  61.1944962  63.3546162  68.3231354  60.7904911  64.9399710
  68.4059477  60.8577442  66.0247374  67.6273632  61.5022326  64.4956446
  67.7206755  59.4098759  64.5909929  68.3643103  58.5491085  64.7724056
  66.4451170  59.2286968  65.4229641  65.5577469  59.7813988  65.1144218
  66.1874247  58.1808472  65.2689648  66.6806173  59.4466352  66.4646626
  67.3457718  59.3786716  63.1157255  68.3046579  59.3464327  62.5984287
  66.6018343  58.6286449  62.8471661  66.8531990  60.2876234  62.7703571
  70.1727104  62.4482775  64.9717999  69.5358229  63.4592533  64.8095226
  71.3137674  62.4908495  65.7233191  71.7487764  61.6717434  66.1232471
  71.8760443  63.7334108  66.2532854  71.1462545  64.5351934  66.1407804
  72.1880579  63.6635256  67.8002405  72.5540972  64.6791458  67.9506636
  70.9587383  63.3967638  68.6855078  70.3996086  62.5608110  68.2652044
  71.2593889  63.2265711  69.7193098  70.3726006  64.3091726  68.5757065
  73.1325912  62.6226902  68.0504751  72.5618458  61.8507767  68.0483007
  73.1203890  64.1339827  65.4373980  73.5224771  65.2847576  65.4756021
  73.7289667  63.1473064  64.6671820  73.3667088  62.2150230  64.8075819
  75.0316095  63.3470106  63.9661741  75.3791094  64.3708944  64.1040230
  76.0462046  62.4060535  64.5973873  76.1720705  62.6645803  65.6487799
  75.7435417  61.3734913  64.4232988  77.0070553  62.6386738  64.1383076
  75.0440407  63.1839705  62.4170494  75.8961105  63.7927628  61.7869139
  74.1149998  62.3532581  61.8893147  73.4072733  61.9896936  62.5114393
  74.0801191  61.8825293  60.4967976  74.6879148  62.5666142  59.9045849
  74.7082281  60.5244017  60.3107643  74.2469740  59.8894215  61.0671711
  74.4691420  60.1429892  59.3180609  76.0983229  60.6460238  60.5997562
  76.5496206  60.4375982  59.7784805  72.6912165  62.0300865  59.8564196
  72.3459625  61.3305998  58.8874006  71.8839455  62.9542160  60.3790855
  72.2605991  63.5037088  61.1382246  70.5852604  63.3437490  59.9717951
  70.2777910  62.6908588  59.1549110  69.5245743  63.2013464  61.0585403
  69.6713400  62.2649908  61.5968752  69.6813917  64.0308428  61.7480707
  67.9705954  63.3290958  60.7037210  67.8155708  64.2055893  60.0745726
  67.4401712  62.0657396  59.9668217  68.0269384  61.9097757  59.0615702
  67.4469757  61.2489033  60.6885099  66.4113426  62.3553896  59.7530222
  67.1665859  63.4383726  62.0078373  67.4017334  62.5425005  62.5824785
  67.5570011  64.2542076  62.6161909  66.1147547  63.4723759  61.7239380
  70.6304073  64.7283125  59.3496752  70.3627539  64.8513746  58.1074381
  71.0053921  65.7047033  60.1028919  68.1108665  42.4904966  71.5767431
  43.1604147  79.7451401  38.6313009  43.6562920  80.5915070  38.3907247
  43.4638166  79.5080757  39.5650268  42.1689463  79.9184799  38.7152028
  43.2891655  78.7186003  37.6166582  42.6286745  77.8765774  37.8236985
  42.8352356  79.2831326  36.2401247  43.2588005  80.2753448  36.0844970
  43.0260181  78.5138226  34.9504685  42.3136282  78.9843607  34.2728281
  44.0514755  78.6167955  34.5955849  42.7634954  77.4789762  35.1701832
  41.4931250  79.3972778  36.5089655  41.0347748  79.9062824  35.8363342
  44.7339439  78.0755138  37.7057505  45.5489588  78.1589890  36.7776775
  45.0202370  77.4133778  38.8209152  44.2649698  77.3790216  39.4906068
  46.4007521  76.9503784  39.1314530  47.1177959  77.1016455  38.3245683
  46.8931437  77.6811218  40.3433275  46.2442875  77.5947952  41.2149000
  47.8467846  77.2299337  40.6173706  47.1351719  79.1835976  40.1161098
  48.1713152  79.6589184  39.6840477  46.1654806  80.0258827  40.2652168
  46.5570021  80.9495735  40.1485443  45.2507544  79.7317553  40.5764341
  46.3774157  75.4653931  39.4464564  47.3532677  74.9451351  40.0401163
  45.3098774  74.7705603  39.2704296  44.4848061  75.2517653  38.9421034
  45.3270960  73.3503151  39.6904325  45.7059383  73.4114981  40.7106447
  43.9521837  72.6907825  39.8887014  43.5503483  72.6510429  38.8762522
  44.1083050  71.6822910  40.2717018  42.9506636  73.4960604  40.7056713
  43.1254673  73.3356953  41.7695427  42.8956938  74.5714951  40.5368137
  41.4918900  73.1402111  40.5088568  41.0208368  72.6840496  39.4933605
  40.6828070  73.1609249  41.5251970  39.7960734  72.6780415  41.5501976
  40.9181738  73.7676191  42.2976160  46.3881493  72.4055147  38.9956665
  47.0893192  71.6322231  39.6524954  46.4268303  72.4537420  37.7132940
  46.0176373  73.2994223  37.3424911  47.3634195  71.7067146  36.8967175
  47.3339748  70.6328726  37.0813870  46.9964123  71.7879057  35.3392291
  46.6433764  72.8092480  35.1966333  47.9164934  71.5459204  34.8072553
  45.8485603  70.9392834  34.8154879  45.1221657  70.8849525  35.6263542
  45.3934717  71.4980125  33.5395789  44.5064783  70.9579563  33.2083964
  44.9610329  72.4825811  33.7176967  46.2139511  71.4587831  32.8230739
  46.2941504  69.4430399  34.6584702  46.6912889  69.1803217  35.6389570
  45.4394150  68.7882996  34.4886112  47.0781279  69.3834543  33.9035368
  48.8788795  72.0967817  37.1244192  49.7701120  71.1904430  37.2227144
  49.1775131  73.3678961  37.3740649  48.4804964  74.0983343  37.3470616
  50.5491638  73.8483000  37.7744627  51.1916924  73.5763550  36.9370246
  50.7315063  75.3502035  37.7958941  50.4127645  75.7197332  36.8212390
  50.1761341  75.8153152  38.6103415  52.2512674  75.7660770  37.9798532
  52.6100445  75.4679871  38.9650059  52.8112936  75.2824736  37.1794820
  52.3216343  77.3102951  37.9609966  51.3178015  78.0178022  37.7907538
  53.4759140  77.9450083  37.9692101  53.4688139  78.9387035  37.7886081
  54.2938232  77.3759079  37.8041553  50.9654808  73.2357073  39.1289854
  52.0886326  72.7756643  39.3060637  50.0923967  73.3277273  40.1877880
  49.1248274  73.5331011  39.9834991  50.3031969  72.7634239  41.5094614
  51.1784410  73.1618929  42.0225620  49.1494179  73.2428503  42.4167585
  49.1584110  74.3327284  42.4302340  48.1903362  73.1344223  41.9102859
  49.1364431  72.6866007  43.8563585  49.8775721  73.3208609  44.8897696
  50.3751993  74.2368364  44.6073484  49.7664118  72.8483486  46.2359285
  50.3575706  73.2101154  47.0642138  48.8987589  71.7629576  46.5228653
  48.7733793  71.2895298  47.7475166  47.9074240  70.9910727  48.0349922
  48.2695770  71.0447407  45.4117393  47.6292515  70.2076244  45.6475830
  48.3311558  71.5690231  44.1045761  47.8030777  71.0707283  43.3050489
  50.4479647  71.2383842  41.5677404  51.2592125  70.7236004  42.3424292
  49.6591043  70.4743624  40.7851696  48.8685846  70.8916759  40.3150368
  49.7349834  69.0172863  40.6477642  49.5842123  68.6385441  41.6586685
  48.5919714  68.5230732  39.7261810  47.6088858  68.8199377  40.0915766
  48.7149763  68.9639044  38.7369180  48.4372282  67.0249844  39.7081804
  47.6604176  66.7364788  39.0000606  49.3010092  66.5288115  39.2656994
  48.1402063  66.2537861  41.2817526  46.4955711  66.9444561  41.7848444
  46.1682463  66.5697813  42.7546740  46.5568113  68.0180836  41.9628096
  45.7744980  66.6202927  41.0344648  51.0782719  68.5221148  40.2329350
  51.6778898  67.6561117  40.8571863  51.6722155  69.1646528  39.2581511
  51.0975361  69.8021555  38.7257695  53.0837488  69.1067505  38.9312100
  53.2833958  68.0369616  38.8696098  53.2025814  69.6404648  37.4996877
  52.3293352  69.2958689  36.9457936  53.3149052  70.7227993  37.4361515
  54.5601511  69.1981220  36.8564653  55.4416943  69.6577835  37.3033428
  54.7282410  68.1220627  36.9006777  54.5639467  69.6913719  35.4195571
  53.7648821  70.4809427  34.9125814  55.4534578  69.1683626  34.7224617
  55.4993057  69.5565653  33.7911701  56.2289381  68.6520958  35.1125860
  54.1221094  69.6755934  39.9249721  54.9659348  68.9910364  40.5171108
  54.0086651  70.9568310  40.2169323  53.2627010  71.4953804  39.8002791
  55.0968456  71.6742754  40.9694815  56.1054659  71.4078426  40.6535721
  54.9287558  73.1420279  40.7217169  53.9100361  73.4675169  40.9323692
  55.3937435  73.7143373  41.5244293  55.1651525  73.6782932  39.3015957
  55.2364683  72.9773951  38.2905865  55.2702284  74.9793530  39.1926098
  55.3875732  75.2919579  38.2393980  55.2540874  75.6154013  39.9770093
  55.1850748  71.4152098  42.5345278  56.1993599  71.7773914  43.1054020
  54.1137266  70.8719063  43.0970860  53.2346725  70.8359766  42.6010323
  54.1022635  70.4201698  44.5219994  55.0817680  70.6238508  44.9546528
  53.1941175  71.4102030  45.3363705  52.1778536  71.3808107  44.9433851
  53.0970335  71.0129356  46.7764091  52.7262354  71.8383932  47.3840523
  52.4148798  70.1962519  47.0126247  54.1363811  70.8646870  47.0694637
  53.6289501  72.8464413  45.1595592  54.7097158  72.8057909  45.2952480
  53.5162592  73.2361174  44.1478491  53.1731033  73.5049152  45.8989620
  53.7670231  68.9379311  44.7238302  54.5950937  68.2042313  45.2621269
  52.6001024  68.5357904  44.2473459  51.9761086  69.1963196  43.8064003
  52.0379400  67.2316790  44.5962334  52.0409966  67.1598101  45.6838560
  50.6384802  66.9802999  44.2079401  50.5610847  67.1943092  43.1419611
  49.9944592  65.6851721  44.5767689  48.9700985  65.8098650  44.9278259
  49.7815561  65.0809002  43.6949348  50.4939032  65.1330805  45.3729153
  49.9050617  68.1407356  44.8081160  48.8302994  68.0286741  44.6651840
  50.2853680  68.5020971  45.7635641  49.9624777  68.9929771  44.1309977
  52.9548454  66.0711193  44.1135311  53.3668423  65.2398252  44.9130011
  53.3142519  66.0180807  42.8172922  52.9617167  66.6391277  42.1030617
  54.0575695  64.8127651  42.3488283  53.6110830  63.8848305  42.7061653
  53.9057589  64.6648598  40.8567095  52.8641272  64.8687029  40.6086111
  54.6729612  65.7085514  40.0372791  54.4543982  65.5968094  38.9752817
  54.3540764  66.7017221  40.3535461  55.7278919  65.5242729  40.2404022
  54.2149544  63.2794094  40.2640390  53.8964987  63.2006741  39.2245770
  55.2833080  63.0701399  40.3181791  53.7851477  62.4393415  40.8096123
  55.4430771  64.8984385  42.9043198  56.0670280  63.8247108  42.9867458
  55.9631920  66.1355066  43.1439018  55.3727627  66.9308805  42.9467154
  57.3011255  66.2399721  43.8014030  58.1122255  65.7389879  43.2729673
  57.7157879  67.7267075  43.7827730  57.0377874  68.3306980  44.3857765
  58.6323404  67.8397369  44.3618011  57.8804874  68.2019329  42.3446321
  57.2536993  67.5952435  41.6910553  57.3322487  69.1422939  42.4016142
  59.3080187  68.2686901  41.8613768  59.8691607  69.0121508  42.4274921
  59.8248529  67.3385620  42.0977068  59.3474722  68.7032890  40.3831291
  58.7988138  67.8931665  39.9027371  58.9594555  69.7171164  40.2846766
  60.7489157  68.6915874  39.8979855  60.8606243  68.8267422  38.9033198
  61.2686014  69.4339466  40.3439999  61.2851191  67.8740835  40.1514959
  57.3913622  65.7445288  45.2039146  58.3158541  64.9932718  45.5918741
  56.2786293  66.0633564  45.9091520  55.6331539  66.6934061  45.4547310
  55.9836054  65.6795216  47.3675823  56.8089294  65.9965992  48.0050802
  54.7547770  66.3845396  47.9623079  53.7744427  66.1454105  47.5501537
  54.5059252  66.4135361  49.4928026  53.5701942  66.8628931  49.8253632
  54.4635057  65.3371668  49.6593380  55.3149080  66.9604778  49.9770451
  54.9284267  67.7265978  47.7348471  55.1075840  67.9064417  46.8090200
  55.8592987  64.1852617  47.5352526  56.5609980  63.6102819  48.4018898
  55.0902891  63.4902668  46.7151117  54.4340658  64.0328503  46.1719084
  55.1105833  62.0390701  46.5535879  54.8433590  61.7188406  47.5606346
  53.8887405  61.6375303  45.5560160  54.0617466  61.9828701  44.5367479
  53.8194036  60.5532360  45.4687691  52.5477314  62.0397091  46.0422707
  52.5999451  63.0576277  46.4285564  51.6753626  61.9732094  44.7351694
  50.6610298  62.3346853  44.9041939  52.1174955  62.5240517  43.9049911
  51.5297651  60.9328508  44.4443798  52.0379257  61.1143827  47.0281887
  51.0942459  61.4790058  47.4339151  51.9058371  60.1480770  46.5414524
  52.6114607  60.9206963  47.9346323  56.3413954  61.3678074  46.0152626
  56.6211462  60.3119755  46.5133238  56.9631100  61.8316269  44.9008560
  56.6626978  62.7450895  44.5919228  58.1476068  61.2070656  44.2412329
  57.9165792  60.1507235  44.1038513  58.3078384  61.8246174  42.8009319
  57.3530579  61.7455149  42.2810888  58.6181259  62.8656578  42.8907347
  59.3604422  61.1659479  42.0038986  60.6846094  61.1212730  42.2472239
  61.2507725  61.5700865  43.0499840  61.3225889  60.5667496  41.1678314
  62.2031164  60.9404135  40.8435678  60.4087543  59.9236584  40.3778315
  60.5072784  59.0843582  39.3122602  61.4589262  58.6490536  39.0452814
  59.3706512  58.9080477  38.4722948  59.4466639  58.3197355  37.5697923
  58.1294441  59.3878460  38.8292933  57.2955084  59.0768576  38.2175446
  58.0085802  60.1037788  40.0162315  57.0374966  60.4962397  40.2796173
  59.1537189  60.3945541  40.7992220  59.3268681  61.2419462  45.1954174
  60.1265383  60.3567219  45.1639557  59.4745588  62.2813559  45.9805489
  58.9697218  63.1233501  45.7433128  60.6147194  62.4686575  46.8785429
  61.4174318  61.8362570  46.4993000  61.0763741  63.9050579  46.7977190
  60.4437351  64.6392918  47.2964811  62.0292044  63.8504457  47.3242474
  61.5423298  64.4828987  45.4152632  62.2261667  63.7585163  44.9728346
  60.6923103  64.6189308  44.7466373  62.0433569  65.9236717  45.6235504
  61.2825727  66.5065002  46.1428022  62.9345942  65.9515285  46.2504673
  62.2094774  66.5890408  44.2715740  62.6351357  65.8873081  43.5542965
  61.2037516  66.8780851  43.9665127  63.1140614  67.7108526  44.3132067
  64.0383482  67.3364782  44.4733238  63.2022953  68.2988548  43.4967661
  62.8684664  68.3389235  45.0650740  60.3338861  61.9659758  48.2844782
  60.8333683  62.5718164  49.2184401  59.4786310  60.9410143  48.4349775
  59.0595531  60.5925941  47.5846386  59.2177820  60.2900934  49.6097088
  59.6463585  60.8579779  50.4355001  57.6748848  60.2063656  49.7768116
  57.2251129  61.1923027  49.6596289  57.2765398  59.6533632  48.9261580
  57.2773981  59.6929932  51.1042929  57.3346949  58.4139299  51.5669250
  56.8449688  58.4317493  52.8212929  56.7047930  57.5404549  53.4148788
  56.5921354  59.6709156  53.1614733  56.2672377  59.9795675  54.0666151
  56.7315340  60.4890203  52.0573997  56.5783119  61.5521622  51.9449091
  59.7945166  58.8537073  49.6098852  59.7962761  58.2713413  48.4806824
  60.2709055  58.3086014  50.7513618  60.2465010  58.9029741  51.5675926
  60.9528589  57.0180845  50.8355999  61.8381929  57.0125914  50.1997852
  61.3484669  56.8672180  52.2822189  62.0027590  57.6919365  52.5647831
  60.4395342  56.9635868  52.8760719  61.9387865  55.5311394  52.7476311
  62.1476650  55.5989361  53.8152790  61.0898352  54.8544931  52.6499510
  63.1871557  55.0554466  51.9674158  63.9884567  55.7865095  51.4541674
  63.4449482  53.7655973  52.0299149  64.2330694  53.4812832  51.4658785
  62.8920174  53.1109381  52.5645065  59.9913502  55.8643579  50.3761911
  60.5131006  54.7969818  50.0279999  58.6846590  56.0090828  50.4314756
  58.3642054  56.9200706  50.7273006  57.6779985  54.9389601  50.2462769
  58.1118679  53.9981985  50.5851507  56.3561392  55.3479958  50.9667063
  56.1314774  56.4122343  50.8958340  55.5177259  54.9052906  50.4289532
  56.0869312  55.0399446  52.3824215  56.9034767  54.1600943  53.1159592
  57.7210617  53.6925030  52.5874615  56.6661024  53.8621426  54.4306707
  57.2302437  53.1166506  54.9713945  55.6334877  54.4867182  55.1502228
  55.5759478  54.2265606  56.1968374  54.8103428  55.3899527  54.4260645
  54.0037680  55.8831978  54.9481249  54.9692345  55.5643415  53.0081940
  54.2623425  56.2142467  52.5138950  57.3671770  54.6423101  48.7654495
  56.5973616  53.7340784  48.4488869  57.9201841  55.4443026  47.7558374
  58.5781860  56.1173820  48.1220341  57.5032139  55.6007624  46.3836384
  56.4665222  55.3136539  46.5595150  57.5397491  57.1077394  46.0875797
  58.5382175  57.5431824  46.1270046  57.1864939  57.3706484  45.0904894
  56.9131517  57.6814365  46.7704725  58.1089306  54.7118807  45.2589083
  57.5577593  54.4829082  44.1755629  59.2390919  54.0865946  45.6625271
  59.6038151  54.4348288  46.5376329  59.9993658  53.0665159  44.8164034
  60.3745937  53.5744905  43.9279938  61.1505079  52.4864483  45.5688143
  61.7150593  51.7957211  44.9424934  61.8685913  53.2881498  45.7412577
  60.8749342  51.7846966  46.7902803  60.6881380  52.3459053  48.0204487
  60.8813047  53.3904314  48.2155180  60.4085588  51.3787270  49.0018702
  60.2013350  51.5580511  49.9739790  60.2120733  50.1623917  48.4151983
  59.8595333  48.9309454  48.9968920  59.6550798  48.8127613  50.0507545
  59.7081137  47.7938604  48.1495619  59.2803812  46.9130230  48.6051655
  59.9718809  47.9909372  46.7939806  59.8495007  47.1387482  46.1419010
  60.3904390  49.2321444  46.2001705  60.5841017  49.3475437  45.1439619
  60.5397749  50.3635788  47.0058584  59.2277479  51.9577789  44.0905952
  59.6210051  51.5426493  43.0281734  58.0410767  51.5258932  44.5502043
  57.5437450  51.5751123  45.9154749  56.7458439  52.3160362  45.9653473
  58.2506180  51.7631340  46.7236042  56.8243313  50.2059031  46.1328030
  56.0479212  50.1950788  46.8977690  57.6158810  49.5272636  46.4506054
  56.3344622  49.7604322  44.7688103  55.2786541  49.9706078  44.5979357
  56.4858198  48.7212849  44.4766378  57.2548485  50.5387115  43.8197279
  57.9703045  49.7662449  43.5377264  56.4362240  51.1862278  42.6709175
  55.8824635  50.4293108  41.8821430  56.3218307  52.5136995  42.6246357
  56.8078709  53.0101013  43.3577442  55.5571270  53.2968855  41.6600800
  54.8945475  52.5941133  41.1549139  54.6628094  54.2958736  42.4155760
  55.2234173  55.1573229  42.7785063  53.9058542  54.6665335  41.7243958
  53.7730551  53.7814951  43.5362577  52.5775671  53.1674337  43.2763386
  52.2582340  53.0340195  42.2532892  51.7850256  52.5997686  44.3104458
  50.8380318  52.1132326  44.1291046  52.2015429  52.7445555  45.6445265
  51.6192341  52.3922968  46.4831161  53.4643507  53.2327604  45.9244728
  53.8303709  53.4425116  46.9186735  54.2388010  53.7582016  44.8953772
  55.1185274  54.3524551  45.0937605  56.2742186  54.0593290  40.5595732
  55.6299257  54.6295261  39.7446036  57.6050186  54.2334080  40.7061863
  58.1393147  53.8632488  41.4792395  58.2893562  55.0897121  39.7901583
  57.7407169  56.0314846  39.8027205  59.7501612  55.3133106  40.1397467
  60.2301741  54.3347359  40.1306868  60.2964211  55.6653309  39.2646503
  60.0375986  56.0589170  41.4183092  59.3378258  57.1983337  41.7648602
  58.5280657  57.6088858  41.1799383  59.6423769  57.7530670  43.0202532
  59.1226339  58.6481333  43.3286762  60.6423473  57.2622633  43.8620710
  61.0408163  57.9524517  44.9304771  60.7654190  58.8674498  44.8381138
  61.2929201  56.0627079  43.5356617  62.1057749  55.7173395  44.1572666
  60.9689713  55.4418087  42.3352146  61.4144468  54.5049334  42.0348597
  58.2218313  54.5344591  38.3442020  58.4186268  55.3652239  37.4369764
  58.1139326  53.1979132  38.1581426  57.8374434  52.6081896  38.9300776
  58.0433750  52.4832630  36.9222975  58.2114983  53.2510757  36.1671185
  59.2747641  51.6399717  36.7122054  59.4901896  51.2159204  37.6929569
  59.2229843  50.8000994  36.0193610  60.6063795  52.3494053  36.2930942
  61.3746262  51.6588497  35.9452009  60.3380632  52.9623127  35.4326010
  61.3050747  53.3254719  37.2735095  61.5911579  52.9489470  38.4098363
  61.6869354  54.5026970  36.8657947  62.2644234  55.0353813  37.5005031
  61.6380072  54.8171234  35.9072351  56.7811489  51.5701628  36.8382525
  56.2182808  51.2792349  37.9263616  56.3419247  51.0528994  35.6561542
  56.7487192  51.6287184  34.3608785  57.8316307  51.7390060  34.3039584
  56.1950064  52.5448942  34.1556478  56.2186766  50.5731201  33.3781552
  56.9591904  49.7757578  33.3152270  56.0579681  51.0244942  32.3991060
  54.8975039  50.1491451  33.9619303  54.6256733  49.1287088  33.6918855
  54.1389132  50.8805084  33.6831021  55.2078724  50.2072144  35.4636335
  54.4023228  50.7229662  35.9863091  55.3918266  48.7815475  36.1188269
  56.4422941  48.4236860  36.6674256  54.3437624  47.9448652  36.0046649
  53.4927177  48.3409882  35.6319475  54.3275023  46.5780830  36.4745140
  55.0526762  46.4455366  37.2774172  52.9595232  46.3650560  37.1135044
  52.1010733  46.4291620  36.4448833  52.8843069  45.0175858  37.8684974
  51.9120026  44.9937868  38.3605838  52.8610992  44.2011309  37.1467233
  53.6478424  44.8918200  38.6361504  52.7423382  47.5127649  38.1206107
  52.0371819  47.2328854  38.9032507  53.6480618  47.7121353  38.6933422
  52.4708843  48.4251070  37.5895286  54.7261858  45.6368494  35.2607203
  53.9156055  45.0403166  34.5339537  56.0403442  45.4655075  35.1008511
  56.6075420  46.1074829  35.6358862  56.6400385  44.7140980  33.9544964
  56.1409903  44.8435116  32.9941297  58.0628157  45.2320957  33.6229897
  58.5901117  45.3730869  34.5664859  58.5768032  44.4778156  33.0271864
  58.0660868  46.5379858  32.7484798  56.9977283  46.8352270  32.1981955
  59.0913439  47.2359943  32.6838684  56.7024231  43.2169485  34.3231416
  57.4751663  42.8081226  35.2007318  55.8230639  42.3988962  33.7636685
  55.1510906  42.7800274  33.1130648  55.3546476  41.0507298  34.1685033
  54.8848200  41.1687136  35.1449466  54.3565941  40.5973577  33.1703472
  53.4238434  41.1501217  33.2823038  54.6508932  40.7216978  32.1282220
  54.0716505  39.6012306  33.5089397  56.5548658  40.0378275  34.2654109
  56.8163109  39.3439531  35.3112411  57.3482895  39.9037600  33.1804681
  57.0718431  40.3814650  32.3346090  58.4415627  38.9408183  33.0480814
  57.9786444  37.9622149  33.1751347  58.9975214  38.9857650  31.5930128
  59.3473768  40.0097895  31.4623332  60.0855780  37.9460812  31.4019084
  59.7034550  36.9418168  31.5850234  60.3613710  37.8557444  30.3512478
  60.9698486  38.0648136  32.0280600  57.9042387  38.6742067  30.4861212
  57.3632622  39.5913982  30.2533007  58.3733273  38.4339571  29.5320058
  56.8589258  37.5556278  30.6010103  56.1221027  37.4678874  29.8025751
  57.3822021  36.6027927  30.5210972  56.3415670  37.6035953  31.5592074
  59.5831442  39.2096186  34.0266395  60.3249693  38.3046746  34.4030213
  59.8060513  40.5197382  34.3603420  59.2402315  41.1481428  33.8080215
  60.7754230  40.9950352  35.2905846  61.6977024  40.4149771  35.2585030
  61.0141563  42.4958277  34.9611473  60.0693417  43.0387926  34.9364257
  61.6907358  42.8806734  35.7241893  61.7090750  42.6193666  33.5452247
  62.4554682  41.8382645  33.4007025  60.8991432  42.3921967  32.8520393
  62.3141479  43.9587593  33.1992364  62.8873205  44.2920160  34.0644002
  62.9696751  43.8716459  32.3327541  61.2034178  44.9887609  32.9349279
  60.6667995  44.7062635  32.0292020  60.5693626  44.8242140  33.8061357
  61.7846823  46.3113070  32.7608085  61.0612392  46.9761181  32.5267911
  62.2173405  46.7240429  33.5747838  62.5552797  46.3260508  32.1080732
  60.3540611  40.8881712  36.7798352  61.1438751  40.4075909  37.6076674
  59.1097832  41.2831354  37.0520282  58.6041546  41.7547560  36.3158107
  58.5639334  41.2430811  38.3907557  59.3978453  41.5169764  39.0370321
  57.4171829  42.2960949  38.6370754  56.6989231  42.1636534  37.8279638
  56.9066811  42.0485306  39.5677781  58.0247116  43.6887455  38.5232925
  58.5499096  43.7127066  37.5684667  56.9841814  44.7482252  38.5407424
  56.6784430  44.7888613  37.4952888  56.1241913  44.5951462  39.1927314
  57.4474907  45.6984377  38.8063240  59.0378046  44.0916538  39.6494174
  59.2886639  45.1523972  39.6499610  58.5538197  43.7585878  40.5675316
  59.9421167  43.4924889  39.5429683  58.0647182  39.7858572  38.7831330
  57.7789402  39.5105982  39.9196410  57.9474449  38.7930751  37.8188181
  58.0384636  39.1063643  36.8629599  57.4134302  37.4680996  37.9062891
  57.4814272  37.0434523  36.9047141  58.2885885  36.5318322  38.6935639
  58.2638502  36.8062520  39.7481656  57.7666616  35.5754876  38.6604476
  59.7582197  36.4559388  38.3057189  60.5558968  36.4307642  39.1868162
  60.0423479  36.2899995  37.0500135  60.9940386  36.3339639  36.7146778
  59.2493916  36.0288572  36.4815688  55.9617949  37.6027298  38.3500409
  55.5323315  36.9184422  39.3074632  55.1812029  38.5652423  37.8331566
  55.5860424  39.1068816  37.0829368  53.8211966  38.8343716  38.2555866
  53.5208082  38.1676078  39.0638518  53.6907768  40.3169250  38.7964320
  54.1274881  40.9644890  38.0361366  52.6365042  40.5793047  38.8845730
  54.4280243  40.5895948  40.1756144  55.4984140  40.6435871  39.9769807
  53.9380407  41.9768810  40.6632328  54.4979429  42.3166990  41.5345192
  54.2293072  42.6526213  39.8590946  52.8762865  42.0488024  40.8990383
  54.1378593  39.6033335  41.3266802  53.1022453  39.2654514  41.3645983
  54.6184731  38.6685610  41.0380363  54.3672657  39.9651146  42.3289728
  52.9289055  38.5684848  37.0502758  52.2831917  39.5529127  36.5467978
  52.7168465  37.3549247  36.5683556  53.2993603  36.1551118  37.0711660
  53.3114624  36.1490417  38.1610823  54.3370771  36.0508323  36.7543483
  52.5360680  35.0771022  36.3578558  51.5809584  34.8297381  36.8211794
  53.1405735  34.1714287  36.3085246  52.3373461  35.6156731  34.9911499
  51.4813852  35.1158118  34.5377469  53.1827116  35.3671265  34.3495250
  52.0414591  37.0577741  35.2420640  52.5024986  37.7725911  34.5604634
  50.5410337  37.2885633  35.2563548  49.9425793  37.3285961  34.1713691
  49.9272585  37.3911405  36.3894558  50.4577255  37.3006821  37.2441649
  48.5042667  37.5388384  36.4960551  48.0729008  37.1771383  35.5626774
  47.9530382  36.5216231  37.5120950  46.8803215  36.6641450  37.6427293
  48.0539083  35.5164623  37.1027303  48.6506367  36.5359950  38.8996220
  48.6555672  35.4801941  39.5897460  49.0131760  37.6342082  39.3984866
  48.1046581  38.9915109  36.8242311  46.8882179  39.3147206  36.7823529
  49.0076590  39.9244523  37.0115924  49.9480295  39.6060109  36.8261290
  48.6857271  41.3317442  37.3873329  48.1926107  41.2593603  38.3567142
  49.9278593  42.2174597  37.4803424  50.7515240  41.7070246  37.9794669
  50.3343821  42.4552488  36.4973354  49.6621656  43.6367035  38.0976725
  49.3149710  44.6935463  37.2863150  49.1523027  44.5444298  36.2291002
  49.2714214  46.0206413  37.8257728  49.0097952  46.8883848  37.2384262
  49.3422937  46.2124538  39.1910648  49.2040205  47.4040604  39.8111725
  49.4925880  47.3613787  40.7257795  49.6111155  45.1215744  40.0578213
  49.7990322  45.3672266  41.0925913  49.8215580  43.8462067  39.5107889
  50.0855398  42.9958534  40.1220322  47.6866293  41.8945360  36.3858819
  46.6669226  42.3755836  36.7990541  47.9215050  41.8977261  35.0429296
  48.7256241  41.4009619  34.6869540  47.1099997  42.5836754  34.0249777
  46.8760777  43.6125231  34.2985749  47.9998636  42.8028822  32.7818775
  48.2895947  41.7998314  32.4687624  47.3874044  43.3204508  32.0435476
  49.1720438  43.7696505  33.0374885  49.0497637  45.1459503  33.2022643
  50.2006817  45.6301689  33.6439037  50.4772282  46.6255760  33.9586949
  51.0446262  44.5908642  33.8490915  51.8888664  44.6967983  34.3932748
  50.4221392  43.4523535  33.3837080  50.8785820  42.4746847  33.3365250
  45.7063723  41.9363928  33.7282991  44.8016357  42.6559782  33.3114552
  45.5337715  40.6346512  34.0348792  46.3542461  40.2324104  34.4651389
  44.2056990  39.9517226  34.0081620  43.6527014  40.2918196  33.1325912
  44.2822790  38.4323740  33.8658261  44.8218536  38.0503869  34.7324562
  43.2748175  38.0163097  33.8613009  45.0865841  38.0950451  32.5726080
  44.5018625  38.5682940  31.7837882  46.0712528  38.5566831  32.6462722
  45.3047657  36.5611744  32.4422073  46.1435461  36.2738204  33.0762219
  44.4954681  36.0609365  32.9740953  45.4497147  36.1332798  31.0348892
  44.5075130  36.4112234  30.5625486  46.3632917  36.5909147  30.6553555
  45.4750633  34.6504974  30.9912968  44.5982218  34.2674589  31.3146019
  45.4966164  34.3299866  30.0337434  46.2502384  34.2378163  31.4902091
  43.3639717  40.4543829  35.2368999  42.1449518  40.2311897  35.3434062
  43.9452505  41.0240984  36.3047624  44.9408960  41.1776590  36.2326169
  43.3612680  41.3873434  37.6030564  42.3723936  40.9316206  37.5526023
  44.1339540  40.8071661  38.7975836  45.1475334  41.1759090  38.6401725
  43.5827494  41.2316895  40.1674366  43.6828423  42.3150349  40.2340031
  42.5893688  40.8518362  40.4062080  44.2441750  40.8637714  40.9518194
  44.1632748  39.2452860  38.8258815  43.1562901  38.8384914  38.9185858
  44.5517683  38.9241743  37.8594136  45.1234627  38.7642956  39.9595070
  44.5589685  38.6529708  40.8852768  45.5538177  37.8151703  39.6400452
  45.8687496  39.5578265  40.0138569  43.1600571  42.9081106  37.6977277
  42.1363783  43.3865595  38.2374954  44.0863752  43.6970901  37.2166824
  44.8994493  43.1445122  36.9850111  44.0665913  45.1586246  37.0822787
  43.3380795  45.5800533  37.7749372  45.4799557  45.6839561  37.6191378
  46.3449430  45.2298450  37.1357298  45.6786776  47.1601534  37.2951865
  46.5823364  47.5440741  37.7685952  45.8725691  47.3364305  36.2371540
  44.7966194  47.7231503  37.6003337  45.6382656  45.4918957  39.1204953
  45.8511972  44.4448853  39.3362021  46.4535570  46.1368322  39.4483042
  44.3390560  45.7611895  39.9406171  43.6065531  44.9581766  39.8586011
  44.4779921  45.8338022  41.0192871  43.9090633  46.7130041  39.6287680
  43.8301182  45.6001806  35.5968738  44.7218132  45.5593681  34.7540164
  42.5755215  45.9443808  35.3002119  41.8396854  45.8680105  35.9878278
  42.1706676  46.4161015  33.9156175  42.4714136  45.6717014  33.1783795
  40.6082153  46.5090990  33.8836980  40.2125740  45.5846882  34.3044519
  40.3014898  47.3368502  34.5231080  40.0114250  46.7696571  32.4948955
  40.2040386  47.8290415  32.3254895  40.5765676  46.1330175  31.8141556
  38.5166669  46.5729475  32.4063301  38.4299541  45.4952669  32.2678471
  38.0336380  46.8556499  33.3416772  37.8315997  47.1532726  31.1655235
  38.1679702  48.1891012  31.1206269  38.1538367  46.6969490  30.2295589
  36.3494611  47.1225500  31.2413812  36.0006547  47.8388357  31.8621635
  35.8346701  47.3596191  30.4053855  35.9659243  46.2121916  31.4517188
  42.8141832  47.7116966  33.4669852  43.0745554  47.8348494  32.2699738
  43.1001568  48.6419868  34.4196653  42.9441595  48.3320951  35.3682041
  43.5725117  50.0101709  34.2605472  43.8944721  50.1120806  33.2241774
  42.3761845  51.0478544  34.4648504  41.9093752  50.9800625  35.4474974
  42.7490568  52.0506620  34.2564249  41.3270426  50.7995367  33.3550596
  40.3159428  50.2242565  33.6951113  41.4279890  51.3760805  32.1813178
  40.6507111  51.0888004  31.6039038  42.1213531  52.0954275  32.0333648
  44.9177647  50.2746677  34.9694347  44.9086618  50.7372570  36.1071897
  45.9828424  49.7299004  34.3977642  46.0423231  49.0263796  33.1403089
  45.5843067  49.5306873  32.2894263  45.6348515  48.0289745  33.3053923
  47.5525856  48.9247942  32.6986361  47.8394175  49.8162079  32.1407771
  47.7809763  48.0738497  32.0568895  48.1229019  48.8663530  34.0847206
  49.1762877  49.1463947  34.0769958  48.0132484  47.8620720  34.4939756
  47.3013639  49.8465919  34.9462724  47.4617147  49.4670582  35.9554029
  47.8504324  51.2327194  34.7646117  47.6300812  51.9038868  33.6937046
  48.4427166  51.8402386  35.8068371  48.7232494  51.2496090  36.5766191
  49.0685892  53.1932688  35.9897876  49.4365835  53.5131931  35.0149345
  47.9454517  54.1776276  36.4622164  47.1750879  54.2098999  35.6917572
  47.4814463  53.7369394  37.3445964  48.3464003  55.6124353  36.7595530
  47.3782921  56.0910034  36.9073486  49.0322447  55.7007027  37.6021194
  49.1181803  56.5831709  35.4018426  48.1407928  56.1582279  33.8993454
  48.0426073  55.0881100  33.7168407  47.1429491  56.5500498  34.0965462
  48.5403061  56.5303040  32.9559207  50.3066635  53.1445074  36.9512224
  50.3751183  52.2233772  37.7852297  51.2596130  54.1013765  36.8143487
  51.0834455  54.7667360  36.0751867  52.5077772  54.2137909  37.5390887
  52.2872877  53.8813734  38.5534787  53.6686659  53.4075308  36.9414711
  54.5536518  53.5270405  37.5664687  53.3761454  52.3575211  36.9396877
  53.9942694  53.8438892  35.5097103  53.4600449  53.1970739  34.5604777
  54.8711538  54.7066307  35.3238034  52.8677845  55.7136965  37.5214791
  52.3175812  56.4719248  36.7233300  53.5204554  56.1496782  38.5847688
  53.9685345  55.4803133  39.1940928  53.8728189  57.5363588  38.9681005
  52.9497433  58.1135225  38.9141226  54.4624519  57.4913931  40.4216385
  54.0034580  56.6979885  41.0114956  55.5436563  57.3536253  40.4324007
  54.2769814  58.7255144  41.2651348  54.7949123  59.5718813  40.8140087
  53.2017994  58.8810825  41.3539219  55.0019455  58.7396765  43.0186415
  53.7146139  57.7574730  43.8592339  53.7045193  56.7093706  43.5601091
  53.7909651  57.8849077  44.9390650  52.7231932  58.1823635  43.7022018
  54.7685385  58.2141829  37.9051304  54.7007895  59.4255209  37.6756334
  55.6532335  57.4445438  37.3026299  55.6166697  56.5084362  37.6800776
  56.3331413  57.7595186  36.0489106  57.1053553  58.5082579  36.2254858
  56.8274403  56.8063593  35.8611584  55.4985762  58.2401037  34.8682904
  55.7081175  59.3732500  34.3761849  54.4010019  57.4816227  34.6046638
  54.2983723  56.5252590  34.9127817  53.4538698  57.9896116  33.5794926
  53.8883734  58.2175255  32.6061606  52.4156141  56.8819237  33.1961536
  51.8152475  56.5437078  34.0407062  51.4660168  57.2604942  32.2159529
  51.9339132  57.7768517  31.3777709  50.9422207  56.4229727  31.7551851
  50.6917620  57.8719378  32.6793838  53.0715418  55.7581234  32.6541209
  53.6596632  55.4422522  33.3440065  52.6817036  59.2481518  34.0155721
  52.4282455  60.0801706  33.1388068  52.2491360  59.3312216  35.2793431
  52.4743605  58.5394621  35.8645630  51.6145706  60.5046892  35.7091212
  50.7122421  60.7896376  35.1680946  51.1515713  60.4080391  37.2018337
  52.0652962  60.1983690  37.7579403  50.4924965  61.6976213  37.7184129
  51.2266684  62.4760866  37.9259586  49.6467352  61.9182539  37.0671701
  49.9136400  61.5181780  38.6244106  50.1521778  59.2837906  37.3774147
  49.2549944  59.4692802  36.7868614  50.7873917  58.4538221  37.0679927
  49.7139788  58.8920593  38.8027954  49.0710592  59.6899462  39.1744637
  49.1207170  57.9778719  38.7828064  50.5567026  58.8143158  39.4897318
  52.5740814  61.7497396  35.4639888  52.1534300  62.7286053  34.8091626
  53.8425636  61.6375303  35.9060621  54.1435719  60.8030748  36.3889456
  54.8860216  62.6593542  35.6572318  54.5497036  63.5427094  36.2000656
  56.2668371  62.2358513  36.2899852  56.2056398  62.1286583  37.3729753
  56.6691256  61.3541126  35.7911825  57.2089720  63.3744621  36.0066557
  57.6806688  63.2120705  35.0375152  56.7633772  64.3686342  36.0408735
  58.3363819  63.3323479  37.0333934  58.9777613  64.2000103  36.8788290
  57.9100323  63.3795309  38.0354428  59.2831182  62.1355677  36.9828391
  58.6730146  61.2629080  37.2159481  59.5216942  62.0621634  35.9218049
  60.5838490  62.1969032  37.6949835  60.3734970  62.5101614  38.6318517
  61.0888147  61.3360882  37.5397038  61.1249876  62.9515934  37.2978640
  55.0467205  63.0349493  34.1373801  55.0139093  64.2435980  33.8217044
  55.1631832  62.0300770  33.2592702  55.1125574  61.0981369  33.6453080
  55.1699877  62.1103287  31.7488742  56.1137486  62.5597620  31.4399695
  55.3539896  60.6942511  31.1380315  56.1583614  60.1800203  31.6640139
  54.4546843  60.1003599  31.3012338  55.6253815  60.6714344  29.6387792
  54.7777224  61.0700274  29.0813708  56.5727043  61.2019682  29.5427918
  55.8841896  59.1899920  29.2070007  56.7046690  58.8072014  29.8139501
  54.9334478  58.7019825  29.4215584  56.2760210  59.0099049  27.7534771
  55.5242682  59.6283007  27.2630095  57.2264194  59.5195484  27.5950503
  56.3348818  57.6428795  27.2312093  55.4471588  57.1922255  27.4013925
  56.6083336  57.4994612  26.2695670  57.0306778  57.1600151  27.7814937
  53.9671564  62.8598022  31.0753345  54.1891861  63.5851192  30.1225924
  52.7918339  62.6527596  31.6518664  52.6705837  61.8646479  32.2717714
  51.4966297  63.2664108  31.2200379  51.4747381  63.1353045  30.1381731
  50.2787638  62.5553894  31.8825388  50.4514551  62.2688007  32.9199123
  49.4432354  63.2540178  31.9263339  49.8257303  61.2590456  31.1890793
  49.5270157  61.4910936  30.1668167  50.6931210  60.6013060  31.1333346
  48.6866379  60.6011248  31.8798280  48.8321972  60.5230570  32.9572415
  47.8099442  61.2481213  31.9099212  48.3086109  59.3390512  31.2815380
  48.9644623  58.9608288  30.6130266  47.1239281  58.7660265  31.1912394
  46.0383892  59.0518999  31.8584657  45.9805155  59.5323849  32.7449656
  45.2842379  58.4064865  31.6719103  46.9513369  57.8152180  30.3695321
  47.7009439  57.6036024  29.7265601  46.0941076  57.2811604  30.3636169
  51.5255117  64.7668171  31.5939331  51.2133694  65.5997467  30.7182598
  51.9166279  65.1540327  32.8461432  52.1818447  64.4411564  33.5106540
  52.0842028  66.5262222  33.1735897  51.0995150  66.9340038  32.9450870
  52.4376631  66.7535353  34.6657419  53.3978748  66.3096905  34.9285841
  52.4056578  67.8187370  34.8947072  51.3822794  66.1491632  35.5571842
  51.0902500  65.2071810  35.0929689  51.7358112  65.8710957  37.0008850
  50.9039593  65.6438255  37.6675749  52.3402262  64.9657154  36.9454360
  52.3042917  66.7107725  37.4007273  50.1380157  67.1827459  35.5602384
  49.2107534  66.7228413  35.9019637  50.3838873  67.9067183  36.3370967
  49.9562597  67.7179384  34.6282339  53.1200314  67.3142576  32.3242974
  52.9125309  68.4320641  31.8459773  54.2641306  66.6426802  32.0530987
  54.3633938  65.7420826  32.4993801  55.3579187  67.0502520  31.0875821
  55.8880281  67.9298258  31.4528608  56.4114141  65.9786367  31.0345244
  56.9226360  65.8540392  31.9891047  56.0434771  64.9712610  30.8397818
  57.5701761  66.3012123  30.0158143  57.2690058  66.1495829  28.9792800
  57.8005266  67.3639870  30.0902486  58.8302135  65.4993391  30.1672578
  59.9081230  66.1393118  30.1576710  58.7439156  64.2540026  30.0980473
  54.8563004  67.4097967  29.6683240  55.2319908  68.4150314  29.1057634
  54.1044569  66.4812660  29.1556740  53.9877319  65.6032372  29.6410108
  53.5582733  66.6168785  27.7724218  54.1368294  67.3890018  27.2652769
  53.6188173  65.3173113  26.9747591  52.9551268  64.6296883  27.4989605
  53.2555103  65.4771996  25.9596014  54.9656773  64.6192741  26.7137408
  55.6493139  64.9073505  25.6980062  55.4189491  63.7444782  27.5426245
  56.4182186  63.5978127  27.5501990  54.9375343  63.7135553  28.4299707
  52.1259260  67.2507429  27.6958227  51.4497948  67.0926857  26.6876817
  51.6367340  67.8401232  28.7748408  52.2395849  67.8650761  29.5848107
  50.3492451  68.5423994  28.8428116  50.1860476  68.7625504  29.8977995
  50.4672003  69.9119425  28.2051349  50.6500673  69.7823524  27.1384287
  49.5342731  70.4753399  28.2232618  51.6286945  70.7495213  28.8092852
  51.3858318  71.4768839  29.7560430  52.8351021  70.6479836  28.2702589
  53.6038113  71.2708473  28.4733152  52.8552532  69.9772167  27.5154305
  49.1068316  67.6884508  28.4253716  48.2363939  68.0718517  27.7552700
  48.9880276  66.4890480  28.9432979  49.6759748  66.2807131  29.6528244
  47.9352474  65.5001211  28.6014557  48.0298615  65.4253626  27.5181460
  48.2977867  64.1884899  29.2142248  49.3176126  63.8796711  28.9846778
  48.2546997  64.3210936  30.2952719  47.2839403  63.1228781  28.8766837
  46.2659693  62.7968550  29.7982287  46.2733269  63.3230209  30.7413626
  45.4000616  61.7116737  29.5232773  44.6348619  61.3333178  30.1848769
  45.6013060  60.9896660  28.2656622  44.8799229  59.9330235  27.8320622
  45.3961802  59.3811226  27.2400475  46.5934324  61.3425970  27.3328590
  46.6993761  60.8352613  26.3853407  47.4514055  62.4504423  27.6237273
  48.2192373  62.7881145  26.9434285  46.4607525  65.9286547  28.9322424
  45.5425501  65.7282305  28.1104350  46.3017368  66.5167046  30.0855541
  47.0794487  66.9190073  30.5889583  45.0281620  66.6647053  30.7870054
  44.4466639  65.8374882  30.3799748  45.1402617  66.5149879  32.3063755
  45.6623983  67.3659277  32.7438450  44.1567039  66.4229727  32.7670836
  45.8721256  65.3078985  32.8124619  45.2353668  64.0415525  32.8189850
  44.2376900  63.9673376  32.4121261  45.8230495  62.9719067  33.4145212
  45.2568007  62.0706177  33.5973930  47.1065378  63.1058788  34.0678239
  47.6252460  62.1223783  34.8536444  47.3399973  61.2311554  34.6392727
  47.8411150  64.3004656  34.0798306  48.6867857  64.4211054  34.7406578
  47.1873236  65.4138088  33.4525633  47.7206230  66.3527203  33.4734631
  44.2984819  68.0008698  30.4558086  44.9615717  69.0287209  30.3187561
  42.9675293  68.0628252  30.2949071  42.5298977  67.1565866  30.3804374
  42.1709156  69.3036699  30.3386903  42.6936626  70.0587511  29.7515845
  40.8733273  69.1290140  29.5346808  41.1161518  68.8285494  28.5154390
  40.4531813  68.3268833  30.1414442  39.9868751  70.3826809  29.3980026
  38.7141085  70.5548954  29.8504090  38.1420255  69.7629070  30.3107238
  38.2497334  71.8321896  29.4895768  37.2644329  72.0314741  29.5873809
  39.1652918  72.5147390  28.8387442  39.2100620  73.8129997  28.3071089
  38.2355380  74.2772818  28.3410835  40.3145218  74.3244267  27.5886488
  40.2382660  75.2629566  27.0597339  41.4487648  73.5186052  27.5770807
  42.3897219  73.7954617  27.1250296  41.4001369  72.1400166  28.0373096
  42.3165417  71.5786695  27.9300642  40.3098679  71.6326857  28.6968565
  42.0022917  69.8330736  31.8218422  41.9355345  71.0319328  32.0017362
  42.1137524  69.0047455  32.8727293  42.1380091  68.0213928  32.6435447
  41.8318272  69.4608068  34.2341256  42.2968769  70.4274797  34.4274521
  40.3067970  69.5514774  34.4460344  40.2384663  69.9853039  35.4436445
  39.8064041  70.1321650  33.6711097  39.7315359  68.2448483  34.6004319
  39.8967886  67.8483200  33.7419105  42.4807024  68.5555458  35.3188753
  42.8446293  67.3992205  35.0267935  42.6104689  69.0415955  36.5768909
  42.0666456  69.8875141  36.6705608  43.3188486  68.3943987  37.6379538
  44.3465805  68.2370615  37.3106766  43.4746552  69.4337463  38.7622237
  43.8451195  70.3821468  38.3731270  42.4686384  69.6027660  39.1462398
  44.1316605  69.1671371  39.5900917  42.6505232  67.1621943  38.1895590
  43.3146048  66.1667013  38.5147357  41.3359356  67.1207047  38.2142901
  40.8927584  68.0171347  38.0724621  40.4453516  65.9152126  38.3175731
  40.3816700  65.6244946  39.3661571  39.0089226  66.2700415  37.9213834
  38.7377405  67.0720148  38.6079669  38.9342999  66.5499163  36.8705726
  38.1624269  65.0748062  38.1864262  38.0327129  64.9830151  39.1331816
  40.9227991  64.7044897  37.5924850  40.8566618  63.5778284  38.0748272
  41.4331484  64.8476315  36.3352156  41.5110588  65.7846212  35.9663296
  41.7172098  63.7391663  35.4252458  40.9608459  62.9544020  35.4126763
  41.8413734  64.2349815  33.8887143  42.6296997  64.9834967  33.8089275
  42.1071720  63.4688950  33.1603217  40.5105734  64.8840809  33.3778691
  39.7580719  64.1363335  33.1274438  39.9895382  65.4586220  34.1437197
  40.6985188  65.8127260  32.2362542  40.0619650  66.8695354  32.2046852
  41.5499258  65.4565859  31.4092588  42.9555941  63.0258560  35.9351850
  43.0456543  61.7742968  36.0318446  43.9863634  63.7580824  36.3472247
  43.8915014  64.7622061  36.2939739  45.2039480  63.2829952  37.0458961
  45.6075668  62.4080610  36.5362978  46.2133360  64.4409466  37.0354724
  46.2780476  64.8486996  36.0266852  45.8288622  65.3203917  37.5520515
  47.9368305  64.0114546  37.5832534  48.2323647  63.2476902  36.5276861
  44.9771929  62.7951813  38.4738851  45.4744339  61.6833735  38.9007759
  43.9714098  63.3578396  39.2146277  43.5261440  64.2124462  38.9121604
  43.5053635  62.8890944  40.4830122  44.3518686  62.7701473  41.1593151
  42.5080395  63.9628649  41.0688639  41.7176580  64.2934704  40.3950024
  42.0260763  63.6472273  41.9941664  43.3295679  65.1688719  41.5537643
  43.9384604  64.8779917  42.4097729  43.9442921  65.3876686  40.6806421
  42.3360682  66.6342735  41.9568825  41.1519432  66.0083246  43.1822538
  41.7623806  65.5216122  43.9428997  40.7922459  66.8837500  43.7229490
  40.3635025  65.4327106  42.6973534  42.8134108  61.4966631  40.3423262
  42.8802109  60.7270908  41.3308334  42.2088480  61.1301422  39.2219806
  41.9938517  61.8800402  38.5804772  41.6165400  59.7718191  39.0195084
  41.1935186  59.4612026  39.9748492  40.5511856  59.7379065  37.8922725
  39.9116802  60.6007195  38.0785131  41.1375570  60.0010014  37.0119023
  39.7198701  58.4873343  37.7187490  39.0797114  58.5451460  36.8384314
  40.3236866  57.5815058  37.6641774  38.6771441  58.2599735  38.9058208
  38.5707641  59.0371561  39.8743987  38.0191422  57.1353197  38.8701272
  37.3550034  56.9497299  39.6080828  38.1121111  56.6358995  37.9971790
  42.7657747  58.7846327  38.7076926  42.7052021  57.5552082  39.0916014
  43.7962580  59.2566538  38.0350995  43.7059879  60.1116419  37.5050569
  45.0187922  58.3759022  37.8373694  44.6830463  57.4142027  37.4494195
  46.0077190  59.0429306  36.8974924  46.2880182  60.0534630  37.1947551
  46.9494629  58.5119057  37.0361614  45.5923557  58.9629793  35.4236555
  44.6305561  58.2654762  35.0315809  46.1708879  59.7165108  34.5922327
  45.6279373  57.9304171  39.2107797  45.8938837  56.7512941  39.5071578
  45.8839893  58.9079714  40.0400782  45.5946636  59.8105097  39.6910667
  46.4920950  58.7341976  41.4001322  47.4172068  58.2120705  41.1558819
  46.6815853  60.1274252  42.1122074  45.9278154  60.8532000  41.8069410
  46.4680862  60.0330496  43.1769180  47.9818916  60.7676792  41.7691278
  47.9802561  62.1014023  41.2776995  47.0456266  62.5895929  41.0441828
  49.1723299  62.7604198  41.1021566  49.1178656  63.7387514  40.6479549
  50.4205465  62.1296120  41.3939142  51.3358307  62.6384115  41.1297703
  50.4077625  60.7403135  41.7692804  51.3837481  60.2874279  41.8627834
  49.2125225  60.0181866  41.9611692  49.2595530  58.9879704  42.2818661
  45.5866432  57.8631973  42.1689129  46.0429859  56.9545889  42.8005362
  44.2428064  57.9683876  42.0707083  43.9238644  58.6948681  41.4457321
  43.2919693  57.0720863  42.7271461  43.5707903  56.9853592  43.7773085
  41.8498755  57.5793219  42.5313282  41.5965796  58.4648657  43.1142092
  41.6324902  57.7583122  41.4783287  40.8926439  56.5322828  42.9796219
  40.1009941  55.9144020  42.2991991  40.9060431  56.2056589  44.2405653
  40.3811979  55.4421711  44.6427202  41.5874004  56.7600822  44.7390270
  43.5161734  55.6378841  42.2005749  43.6156702  54.6915770  42.9891920
  43.5714626  55.5032396  40.8322477  43.5833406  56.3495445  40.2811337
  43.5284138  54.1569710  40.1352119  42.6572037  53.5488701  40.3787470
  43.5829020  54.2842865  38.6448836  44.5371962  54.7425699  38.3852696
  43.5006189  53.0079889  37.8369856  42.6356840  52.4052238  38.1138778
  43.4547043  53.1813240  36.7618346  44.4676590  52.5417757  38.0256033
  42.3845196  54.9461222  38.3629680  42.4489975  55.8498335  38.6803794
  44.8056316  53.3920574  40.4977131  44.8085070  52.2450066  40.8655262
  45.9697533  54.1355133  40.5071068  45.8321857  55.1339912  40.4421473
  47.2913980  53.5615444  40.8467913  47.5512505  52.7913189  40.1206160
  48.2978582  54.7153330  40.6630373  48.1558609  55.2181482  39.7064185
  48.1412601  55.5254650  41.3752604  49.7241497  54.1731024  40.7255507
  49.7982121  53.4891748  41.5710449  49.9203300  53.6063766  39.8153663
  51.0087633  55.4416370  40.7478189  50.7724047  56.1812925  42.3975706
  49.7757244  56.6128397  42.4897242  50.8287334  55.3376102  43.0854177
  51.6245508  56.8288326  42.6040745  47.3235083  53.0208445  42.2890425
  47.8287077  51.9429398  42.5586176  46.8131495  53.7967205  43.2207346
  46.3416719  54.6429586  42.9349136  46.7697334  53.3819485  44.6278572
  47.7332544  52.9993820  44.9645615  46.4463425  54.5684576  45.5550146
  45.5117989  55.0353956  45.2440643  46.2490845  54.2153215  46.5671825
  47.5841188  55.6102943  45.6994152  48.9698267  55.2475214  45.7987642
  49.2286539  54.1990089  45.7930851  50.0127077  56.2129927  45.9070206
  51.0310793  55.9268856  46.1248732  49.6700096  57.5548887  45.7564020
  50.4423857  58.2869053  45.9407663  48.3377647  57.9094934  45.5955791
  48.0464220  58.9455414  45.5054092  47.2634220  56.9579935  45.6829309
  46.2193346  57.2306681  45.6390285  45.7060432  52.2840166  44.8230982
  45.9804583  51.2498951  45.4269075  44.4839716  52.4018621  44.2761326
  44.4164991  53.1307411  43.5802317  43.4731293  51.3461828  44.1320562
  43.0525780  51.1693001  45.1219845  42.2710657  51.8490648  43.3301878
  42.5486040  51.9451952  42.2805023  41.1238050  50.7859087  43.3498955
  40.3183651  51.1985111  42.7423429  41.4791107  49.8033619  43.0393219
  40.8054876  50.6248331  44.3798590  41.6902781  53.0317879  43.9027500
  42.3547411  53.7243271  43.9246845  44.0238571  50.0167990  43.6285353
  43.6482859  48.9804745  44.0903139  44.8329067  49.9587536  42.5467396
  45.0595188  50.8471823  42.1231318  45.3454971  48.6728764  41.9910622
  44.5297718  47.9923344  41.7470312  46.1623001  49.0906954  40.7317114
  46.9491673  49.7626019  41.0744667  46.6576290  48.2416010  40.2607632
  45.3195953  49.6380234  39.6739244  44.1155243  49.7140026  39.6743321
  45.9934425  50.1623297  38.6537123  45.5317497  50.5647516  37.8505969
  46.9915438  50.0149393  38.6071062  46.2401867  47.9630375  43.0761433
  46.2156773  46.7356300  43.2203150  47.0196533  48.6743689  43.8552618
  47.2574759  49.6536827  43.7883091  47.7694654  48.0567694  44.9692774
  48.2791853  47.2099924  44.5096540  48.8236904  49.1375065  45.4926205
  49.4321442  49.4510984  44.6443605  48.2562780  50.0183344  45.7931089
  49.9045753  48.5000467  46.8054724  50.4866982  47.4660254  46.1915970
  46.8637514  47.5050259  46.0087919  47.0969486  46.4246655  46.4964724
  45.7449818  48.1349993  46.2802649  45.7267189  49.0932226  45.9615564
  44.7813511  47.6141739  47.2515678  45.2191591  47.3990965  48.2263327
  43.7365103  48.6642218  47.6042700  43.1490850  48.8217258  46.6997099
  43.0383253  48.3392811  48.3756590  44.2988396  49.9868488  48.0843496
  45.5584097  50.0448751  48.6483812  46.1564827  49.1631842  48.8253832
  46.0758305  51.3324308  49.0408802  47.0348644  51.3302755  49.5375204
  45.3254175  52.4711037  48.8136816  45.7622766  53.6278963  49.3325806
  45.1058245  54.2521811  49.6502781  44.0130997  52.4376297  48.2889986
  43.5218143  53.3941460  48.1884146  43.5425615  51.1394882  47.8520250
  42.5781202  51.0485744  47.3745394  44.1622162  46.2699652  46.8185425
  44.0908289  45.2735376  47.5274992  43.6753988  46.2048674  45.5623484
  43.5688257  47.0327139  44.9936533  43.2570219  44.9454594  44.9418306
  42.4861908  44.6594477  45.6574583  42.5993586  45.1246262  43.5579443
  43.3766603  45.4590893  42.8709030  42.0365381  43.8004255  43.0466080
  41.3656998  43.3152819  43.7556314  41.5136337  43.9906883  42.1093369
  42.8125668  43.0777979  42.7942371  41.4442873  46.2021160  43.4793472
  40.4832220  45.7857990  43.7812233  41.6948605  47.0078611  44.1693401
  41.2780666  46.8330383  42.0676517  42.2718525  46.9861746  41.6468906
  40.7001257  46.1802626  41.4134598  40.7766962  47.7989864  42.0070887
  44.3283272  43.8534451  44.9061775  44.0418005  42.7053881  45.2570868
  45.5223703  44.2025614  44.4935036  45.6241751  45.1645184  44.2030287
  46.5431595  43.1726456  44.2632771  46.0042238  42.3436117  43.8046360
  47.5438976  43.6375761  43.2037497  46.9713736  44.1042376  42.4021626
  48.1990099  44.3983030  43.6282730  48.4019279  42.4936485  42.6211262
  47.7801466  41.7946529  41.5897465  46.9036245  42.1935797  41.1008978
  48.4679747  40.7171059  41.0767221  47.8797579  40.2245998  40.3165627
  49.7534180  40.3284359  41.5582800  50.4832697  39.3593097  40.9712982
  49.9987078  38.8067746  40.3536320  50.4005909  41.0882998  42.5261211
  51.4377117  40.9035683  42.7641392  49.6726322  42.1186352  43.1028795
  50.1485920  42.6212978  43.9318514  47.1682739  42.4663734  45.4443884
  47.4101877  41.2705278  45.4564810  47.4665737  43.2970333  46.4381647
  47.1471739  44.2506552  46.3449478  48.3257627  42.9626369  47.6188517
  48.8906145  42.0574093  47.3961258  49.3407965  44.1026306  47.8911114
  48.7504911  44.9956512  48.0964231  49.9837780  43.8394642  48.7310076
  50.2123785  44.3688011  46.6637087  51.2242222  43.7281370  46.3975477
  49.8307419  45.3533125  45.8394766  50.4089594  45.5708981  45.0404644
  49.0190077  45.8752441  46.1374474  47.4580383  42.7441216  48.8516426
  46.5037918  43.4704065  49.1083145  47.6179838  41.7286015  49.6834755
  48.2648087  41.0365295  49.3331099  46.7961931  41.4381504  50.8260012
  45.7373762  41.4399767  50.5671549  47.0951986  39.9779105  51.2745714
  46.2718868  39.7649097  51.9564009  46.9967747  39.3022752  50.4249096
  48.4348965  39.7458458  51.9958878  49.2670679  40.0695753  51.3707447
  48.4901285  40.2428818  52.9643965  48.4808016  38.2352090  52.1496391
  47.6035309  37.9690242  52.7392530  48.4140968  37.6403499  51.2387085
  49.7713232  37.7281690  52.7894402  49.9477196  38.0820656  53.8051844
  49.7686338  36.6446853  52.9084063  50.9148026  38.1115127  51.9444036
  51.1031246  39.1003156  52.0275164  51.7781734  37.6235008  52.1355534
  50.6653452  37.9700780  50.9759712  47.0619535  42.4280024  52.0010805
  48.0877066  43.0814266  52.0840836  46.0653019  42.7422714  52.8624773
  44.7766685  42.0352745  53.0811977  44.9708176  40.9660053  52.9971457
  43.9961243  42.2526169  52.3520708  44.3239164  42.4636316  54.5233583
  44.8039579  41.8699551  55.3013134  43.2360315  42.4688005  54.5910645
  44.8784399  43.8608789  54.6089172  45.0484562  44.2037392  55.6295252
  44.1795588  44.5272112  54.1032839  46.1320400  43.9084816  53.7985039
  46.1624146  44.8717546  53.2893038  47.3329782  43.8833332  54.8199129
  47.7239227  44.8628902  55.4255056  47.8425741  42.7066755  55.0573921
  47.6082563  41.9585800  54.4205666  48.8476515  42.4394655  56.0983133
  48.7745571  43.1611347  56.9119167  48.5232019  41.0637236  56.7123270
  49.2123795  40.8035231  57.5157213  47.0799971  40.7698441  57.2696781
  47.1848965  39.7316813  57.5848198  46.7893887  41.4004374  58.1099272
  46.3908195  40.8519983  56.4292145  48.8608503  40.0440550  55.8161545
  49.8172188  40.0102520  55.7398844  50.3234768  42.5818586  55.6779051
  51.2498426  42.6336050  56.5329409  50.5782175  42.9708672  54.4131231
  49.7653198  43.0699015  53.8219404  51.7949295  43.4969997  53.8659573
  52.6876163  43.1026173  54.3514156  51.8938637  43.1050205  52.3705578
  51.0320807  43.5445881  51.8683434  52.8155136  43.4776306  51.9235420
  51.7530918  41.5864372  51.9869900  51.9916916  40.7545137  52.8785992
  51.6730309  41.3460016  50.7829332  51.9525051  45.0421238  53.9009285
  51.0605764  45.7755184  53.4332514  53.0237341  45.5319691  54.4852161
  53.7251186  44.8342800  54.6886826  53.4419441  46.9653273  54.5895624
  52.6826859  47.4599552  55.1953459  54.7073221  47.0713663  55.5006742
  55.3779507  46.2570715  55.2262878  55.1341295  48.0681896  55.3898621
  54.4501448  46.9355011  56.9906092  53.4435368  46.3757229  57.4383497
  55.2957582  47.4585533  57.7975368  53.6657333  47.6472473  53.2090712
  53.7045813  48.9164114  53.2241488  53.6379337  46.9638777  52.0717001
  53.7872934  45.9753227  52.2150469  53.2272243  47.5210381  50.7265377
  53.8928699  48.3568287  50.5109835  53.3437252  46.4826918  49.5521688
  52.4589396  45.8464241  49.5726156  53.4107351  47.1317244  48.1640148
  54.1618824  47.9031467  47.9943323  53.6334181  46.4295340  47.3606205
  52.4033737  47.5396919  48.0810118  54.6209145  45.4774523  49.6910000
  54.6718502  45.0776386  50.7037449  54.5013714  44.6464157  48.9958811
  55.9821415  46.1061573  49.5862913  56.7759609  45.3967047  49.8200083
  56.1127329  46.5876341  48.6171532  56.1428261  46.9314909  50.2799129
  51.9140625  48.2680035  50.6915379  51.8380547  49.4024849  50.2527332
  50.7821941  47.7319384  51.1638641  50.8432341  46.7865229  51.5139532
  49.5255423  48.4567118  51.4323711  49.0753126  48.7798071  50.4937553
  48.4894276  47.4585056  52.0128441  48.8179684  47.1711159  53.0116272
  47.0149231  48.0541849  52.0826626  46.9202948  49.0698957  52.4666739
  46.6230011  48.0964756  51.0664368  46.4231682  47.4549961  52.7746820
  48.4052753  46.1218643  51.1433697  49.2076635  45.3946209  51.2674570
  47.5723886  45.4621601  51.3866758  48.4249973  46.3471699  50.0770903
  49.6727371  49.6762133  52.3607111  49.0138817  50.6708002  52.0609617
  50.4758501  49.5545816  53.4538651  50.8789158  48.6401224  53.6001444
  50.7643080  50.5967760  54.3742990  49.8101902  50.9010267  54.8046350
  51.6130686  50.0746536  55.5288172  51.0891342  49.2061138  55.9278631
  52.5974751  49.7161627  55.2279425  51.7210817  51.1365032  56.6308260
  50.9751272  51.8951607  56.3940048  51.5262413  50.6141663  58.0698586
  51.6032743  51.4325809  58.7856531  50.5200100  50.1999140  58.1330395
  52.2585726  49.8335218  58.2757425  53.0982494  51.7013359  56.5250111
  53.8785172  51.0463476  56.9126749  53.3937836  52.1534491  55.5782557
  53.0988359  52.5338316  57.2286081  51.3566494  51.8216085  53.7452078
  50.9148788  52.9621506  53.8577604  52.4178886  51.6130066  52.9519653
  52.7984381  50.6822681  52.8570700  53.0609179  52.6336002  52.1223545
  53.3907413  53.4813118  52.7229404  54.1677427  52.0208883  51.2165737
  53.8002729  51.2986326  50.4875946  54.6652079  52.7093506  50.5334520
  55.3198481  51.3299704  51.9533920  55.4746580  51.9637203  52.8266048
  55.0817251  50.3266621  52.3066187  56.9107676  51.2621737  51.0563231
  56.3839483  50.0919867  49.7876167  55.9102583  49.1942883  50.1849508
  55.6815195  50.6201267  49.1428232  57.3065186  49.8386669  49.2653275
  52.0267153  53.2836199  51.1206245  51.9151068  54.4936323  51.0629749
  51.2342405  52.3681927  50.4413605  51.2731266  51.3743258  50.6169271
  50.2714729  52.8078222  49.4465256  50.9016562  53.3441496  48.7370682
  49.6277571  51.6107321  48.8068867  50.3901529  50.9979582  48.3258867
  49.1437101  50.9568024  49.5322704  48.8158894  52.0911169  48.2608128
  49.2625904  53.8677740  50.1104450  49.0517187  55.0031900  49.5748472
  48.7101412  53.5354280  51.3040066  49.1229010  52.7382469  51.7668581
  47.7382994  54.3913698  52.0750380  46.9742823  54.6819496  51.3539648
  47.2487068  53.4960699  53.2274199  48.0133438  53.0358076  53.8531923
  46.6409159  54.1213131  53.8814545  46.2611103  52.4310112  52.7296877
  45.4435396  53.0363321  52.3381996  46.7406416  51.7657757  52.0116282
  45.7056856  51.5729523  53.8999033  46.1978245  51.5043592  55.0255156
  44.7925091  50.6879807  53.7019014  44.5609808  50.1037455  54.4925785
  44.5921230  50.3597879  52.7679634  48.3961582  55.7249975  52.5576782
  47.8233910  56.7792511  52.4480057  49.6680593  55.7042313  53.0291891
  50.1304102  54.8064613  53.0475664  50.4090929  56.8726730  53.4904146
  49.7062540  57.4149275  54.1229296  51.6050816  56.5009451  54.3401909
  51.2175274  56.2578249  55.3295326  52.1127033  55.7446241  53.7415218
  52.2238302  57.3982763  54.3332291  50.7051229  57.8395081  52.3267698
  50.6554317  59.0411854  52.4684334  51.0219717  57.3621607  51.0899019
  51.0669136  56.3545179  51.0376072  51.2286806  58.1836319  49.9211121
  51.8428516  59.0474415  50.1755428  52.0610285  57.2826147  48.9832878
  51.6947746  56.2568569  48.9410210  51.9108963  57.7309227  48.0011559
  53.6145496  57.2253084  49.2031956  53.8591957  56.9521093  50.2296543
  54.1844606  56.2319708  48.1905603  53.9673042  55.2477455  48.6055756
  53.6408567  56.3112688  47.2491217  55.2678108  56.3383722  48.1346130
  54.2797041  58.5291862  48.7778282  53.9885235  58.7979031  47.7623987
  54.0545511  59.2381239  49.5745850  55.3631401  58.4311724  48.8460541
  49.9452400  58.7212133  49.3427277  49.8414326  59.9129581  49.0915394
  48.8603592  57.9011917  49.4499350  49.0445232  56.9131756  49.5499802
  47.4627542  58.3686256  49.1700745  47.4722099  58.8089895  48.1730318
  46.5160465  57.1688700  49.2545891  46.8526459  56.4253902  48.5320616
  46.5583467  56.7586040  50.2635431  45.0921011  57.6745939  48.9862776
  44.9791479  58.5445738  49.6331739  45.0118065  58.1162214  47.9929876
  43.9342213  56.6228247  49.0885067  42.9812384  56.7054749  48.3174372
  43.9306927  55.7251883  49.9824095  47.1331596  59.5279121  50.0733852
  46.7164421  60.5632496  49.5308447  47.4696827  59.4048166  51.3917112
  47.9362869  58.5906935  51.7653275  47.2830200  60.4862452  52.3908138
  46.2802887  60.9134388  52.4028397  47.5382233  60.0296879  53.8334084
  48.5046768  59.5376444  53.7240458  47.5089645  60.8922529  54.4991541
  46.5326643  59.0266371  54.3952322  46.4561224  58.1459570  53.7575436
  46.8564987  58.7257767  55.3915834  45.1488400  59.5951557  54.3949413
  45.1505184  60.5935383  54.8323536  44.7069311  59.5336246  53.4004402
  44.2580843  58.6770153  55.2572346  44.0975618  57.6934052  54.8158216
  44.8549366  58.3540440  56.1102057  42.9393721  59.2462444  55.6626320
  42.4073410  59.6682167  54.9149752  42.4235630  58.4847403  56.0799503
  43.1630898  60.0465250  56.2367439  48.0766582  61.7601252  52.0175266
  47.4715948  62.8164148  51.9730330  49.3716383  61.7547846  51.6556263
  49.9237919  60.9098196  51.6201639  50.0781965  62.9463243  51.2219095
  50.0408459  63.6242723  52.0746088  51.5278959  62.6597452  50.9321880
  51.4948320  61.8192387  50.2389669  52.1557760  63.8542843  50.3004360
  53.2162714  63.6670113  50.1319933  51.6692400  64.0925217  49.3545914
  52.1581173  64.7095442  50.9761763  52.2820330  62.3064041  52.2699499
  52.5554037  63.2061052  52.8212309  51.6850424  61.5832233  52.8255701
  53.6187029  61.5395975  52.0225334  54.3979502  62.3012304  51.9945097
  53.7052488  60.8108187  52.8284454  53.4584999  60.9824657  51.0994720
  49.3296242  63.6133623  50.0557375  49.0288782  64.8004580  50.1342583
  48.9502048  62.8268719  49.0387726  49.1879702  61.8487883  49.1219568
  48.2399416  63.2965946  47.9300833  48.8920736  64.0451622  47.4801111
  47.9224300  62.1581078  46.9389868  48.7890720  62.0054483  46.2957668
  47.7724552  61.2407398  47.5082350  46.7158079  62.2513866  46.0517406
  46.7354155  63.1139135  44.9451065  47.4986744  63.8614702  44.7870064
  45.7633781  63.0122423  43.9116716  45.8498383  63.5245132  42.9648304
  44.6073484  62.1482658  44.1295195  43.7882042  62.0184469  43.4377480
  44.5780849  61.2784386  45.2159500  43.7916946  60.5454254  45.3192854
  45.6329441  61.3256884  46.1995411  45.6277752  60.5950403  46.9948578
  46.9363689  64.0652132  48.3815050  46.6970634  65.2115774  47.9836369
  46.0907125  63.4566545  49.2508841  46.4095640  62.5851774  49.6495771
  44.8303413  64.1071224  49.7094679  44.4305420  64.6315670  48.8415813
  43.7738323  63.0482197  50.2013731  44.2096949  62.5133657  51.0452080
  42.9050875  63.6421347  50.4853678  43.3722401  62.1272564  49.0527010
  44.2327595  61.5320921  48.7471199  42.3570538  61.2007093  49.7996855
  42.4006987  60.1513815  49.5079374  42.4827957  61.2489700  50.8813286
  41.3595581  61.5752649  49.5698786  42.7583790  62.7113199  47.7982044
  41.8910503  63.3478880  47.9731941  43.4317398  63.3406687  47.2163105
  42.3808718  61.8847227  47.1962690  44.9466801  65.3022718  50.6408358
  44.0968084  66.1727285  50.6221437  45.9865761  65.2816296  51.4747477
  46.7509317  64.6324110  51.3548470  46.2546825  66.5117931  52.2456837
  45.3145027  66.7995167  52.7162027  47.1944714  66.1382008  53.4463024
  46.6958761  65.3930473  54.0661764  48.1070375  65.6929016  53.0500174
  47.6137877  67.3640060  54.2750025  48.1582499  66.9676208  55.1320601
  48.3083296  67.9301214  53.6543369  46.5301275  68.2218075  54.7450972
  45.3451157  67.9118347  54.8618031  46.9328403  69.3501091  55.1498842
  46.2528181  69.9922037  55.5311871  47.8993607  69.6063232  55.0074530
  46.7168760  67.7197218  51.3817120  46.4484310  68.9090586  51.6025925
  47.4223089  67.4030256  50.3427362  47.6001883  66.4235306  50.1723146
  47.7819681  68.4404850  49.3710089  48.0955744  69.3780613  49.8300314
  48.9918137  67.9580784  48.5260010  48.8059044  66.9475031  48.1623173
  48.9646816  68.6169672  47.6581049  50.4480028  67.9608679  49.0394020
  50.5813503  67.0811844  49.6690655  51.0661602  67.9871511  48.1420279
  50.8206940  69.0944386  49.9666357  50.3951263  70.0275469  49.5974445
  50.4237700  68.8600636  50.9543705  52.3561668  69.2459679  50.0881624
  52.8169441  68.3702946  50.5453062  52.8443098  69.3896770  49.1242313
  52.7556372  70.3889465  51.0118723  52.5139427  70.1032162  51.9499779
  53.7382412  70.6165123  50.9588337  52.1509361  71.1828423  50.8564043
  46.6310167  68.7803602  48.4400034  46.5678024  70.0124693  48.2966805
  45.6530142  67.9011393  48.1378508  45.8530188  66.9237375  48.2952690
  44.4005108  68.2424593  47.4929237  44.6766520  68.7886286  46.5909576
  43.5557890  67.0258474  47.1824169  43.5534525  66.3790321  48.0597591
  42.1234322  67.3835135  46.7478943  42.1454811  68.2011700  46.0274458
  41.5981817  66.4876652  46.4167356  41.5645361  67.7928400  47.5894308
  44.1055202  66.2430811  46.0716581  44.0149784  66.8550491  45.1742220
  45.1455736  65.9328604  46.1724091  43.4361029  65.3937006  45.9354925
  43.5629272  69.2454529  48.3992434  43.0984545  70.2949715  47.9300737
  43.5876465  69.0450001  49.7367001  44.2523575  68.3485031  50.0419092
  42.9519415  69.9533796  50.7246065  41.9020510  70.1127529  50.4787683
  42.9381847  69.4000340  52.1177578  42.3523474  68.4863949  52.0169735
  43.8716936  69.0699482  52.5735044  42.4635410  70.1355076  52.7672911
  43.6702251  71.3410854  50.7518148  43.0070829  72.3655987  50.9947395
  44.9636507  71.3902950  50.4273653  45.4948759  70.5448866  50.2750826
  45.7892418  72.5671577  50.2349854  45.3502274  73.3891201  50.8004475
  47.1392202  72.2407818  50.7856178  47.5547981  71.4323854  50.1840448
  47.7476692  73.1330204  50.6379509  47.1216154  71.9221210  52.3032570
  46.5268469  72.6535654  52.8503799  46.5589523  71.0234022  52.5558758
  48.5170364  71.7264843  52.8302860  48.8780355  70.6125498  53.2718992
  49.3539906  72.6936817  52.8619766  50.2664661  72.5047398  53.2515907
  48.9980364  73.6323452  52.7510834  45.8107042  73.0954123  48.7861919
  46.5975046  73.9595222  48.5185242  45.0688696  72.5040817  47.8428936
  44.4548750  71.7266273  48.0395603  45.1910973  72.9287148  46.4961100
  46.2089825  72.8123140  46.1240101  44.4132614  71.8711424  45.6951952
  44.8042440  70.9067202  46.0194302  43.3678627  71.8934679  46.0029936
  44.5188332  72.0310259  44.2168951  43.8695335  72.8584766  43.9308167
  45.4738569  72.3871279  43.8306093  44.0086699  70.5349398  43.2363415
  42.2444677  70.7314205  43.6545372  41.9686031  71.7839909  43.5905504
  41.5289164  70.1926565  43.0333900  42.1635723  70.2588749  44.6334457
  44.6248579  74.4043922  46.1781025  43.5715723  74.8283195  46.6095781
  45.3214645  75.1892376  45.3201962  46.6715574  75.0035286  44.7917414
  46.7879677  74.1837788  44.0828276  47.3462582  74.9281788  45.6445026
  46.9865084  76.2473869  43.9595079  46.6943932  76.0984612  42.9199934
  48.0571651  76.4504576  43.9358425  46.1820269  77.4008274  44.5887136
  45.8777571  78.2667398  44.0007353  46.6340685  77.7078581  45.5318403
  44.9354219  76.6104269  45.0384283  44.6102762  77.1307087  45.9393692
  43.7695980  76.6177893  44.0392971  43.5553360  75.5839920  43.3978462
  43.0958462  77.7529621  43.8644600  43.2651424  78.4898090  44.5341587
  42.1086550  77.9992771  42.7489138  41.4839458  77.1075296  42.6977158
  41.2434244  79.2615938  42.9964733  41.7295456  80.2152157  42.7905893
  40.3803778  79.2347860  42.3312473  40.5430794  79.3098354  44.3626738
  41.3490629  79.5195246  45.0658989  39.8601222  80.1587582  44.3308449
  39.7302914  78.0469990  44.7645664  39.5706296  77.1124887  44.0134335
  39.3434596  77.9108667  46.0125923  38.9517260  77.0628786  46.3967276
  39.4679379  78.7868118  46.4997530  42.8121281  78.0740690  41.3538122
  43.7266684  78.9093208  41.2797928  42.4518013  77.5159550  40.2973938
  88.4167767  35.5343509  34.4089365  87.4725151  35.2798748  34.6613503
  88.8580132  36.0938501  35.1247430  88.7761784  34.6004534  34.2719316
  88.3956146  36.1364865  33.0762506  89.4117546  36.4745474  32.8731084
  87.8969097  35.1089311  32.0512605  86.9740868  34.7449589  32.5029469
  87.7182865  35.5873513  31.0882926  88.9657211  34.0783405  31.8224621
  89.8756790  34.5357108  31.4340138  89.3524933  33.5686255  32.7049088
  88.4450817  32.9347491  30.9698677  87.6205349  32.4718094  31.5120053
  88.0402374  33.3447957  30.0446343  89.5606804  31.9748020  30.6165242
  89.2062187  31.3446856  29.8007965  90.4647064  32.3881078  30.1693082
  89.9778652  31.0713148  31.6777349  90.2506256  31.5404820  32.5295448
  89.2099571  30.4594636  31.9145155  90.7165718  30.4844475  31.3171840
  87.6031399  37.4118185  32.9911518  86.7006397  37.6023483  33.8110924
  88.0515099  38.3140826  32.0848441  88.8368893  38.0250382  31.5193892
  87.6092148  39.6175551  31.8579507  86.6150570  39.8707652  32.2262287
  88.5965824  40.5738640  32.5459170  88.5180473  40.3841925  33.6164141
  89.5841408  40.2680683  32.2005081  88.4162712  42.0548582  32.3505616
  88.4692001  42.2393799  31.2775970  87.1305752  42.6275253  32.9371047
  86.3699627  42.2637129  32.2463107  86.8463802  42.3160696  33.9422560
  87.2592163  43.7084198  32.8803873  89.6749401  42.6141167  32.9895210
  90.6105232  42.1815586  32.6349950  89.7665691  43.6993790  32.9458380
  89.5705032  42.4008083  34.0533328  87.4841690  39.8365283  30.3419495
  88.2820702  40.3910923  29.5723796  86.2775612  39.4249225  29.9129534
  85.6559467  39.0620804  30.6215024  85.7298946  39.7366834  28.5233974
  86.4732361  39.5462799  27.7492595  84.5812798  38.8672733  28.1876516
  84.0743542  39.0972614  27.2505116  85.0101662  37.8657866  28.1531978
  83.5803032  38.8459468  29.1524601  83.0381203  38.0572343  29.0778089
  85.3548717  41.2206697  28.4230971  85.2665138  41.9113541  29.4483995
  85.0793362  41.7152596  27.2659969  84.9242783  41.1025667  26.4781761
  84.4562435  43.0832911  27.1627975  85.0382900  43.8854504  27.6165152
  84.3861008  43.3441687  25.6509948  85.4073334  43.2549381  25.2805567
  83.7641811  42.6228666  25.1208568  83.9243793  44.8053360  25.3215933
  84.0651131  44.8733139  24.2428565  82.8905678  44.9253941  25.6455016
  84.6682549  45.9615088  25.9360433  84.1315460  47.0528126  26.1682892
  85.8225060  45.8800840  26.3590288  82.9580593  43.0893803  27.7163410
  82.3359871  44.0715790  28.1919289  82.3287678  41.8789244  27.7529716
  82.6403809  41.1613131  27.1141982  81.0570431  41.5436172  28.4741139
  80.4047489  42.3753166  28.2078528  80.3804684  40.2364063  27.8508973
  80.9934616  39.3378043  27.9205728  79.5429993  40.0713205  28.5287619
  79.8978472  40.4128170  26.4316082  80.0508118  39.5034575  25.3711534
  79.4744492  40.0463820  24.2672586  79.3676805  39.6684790  23.2611799
  79.0005445  41.2913465  24.5970345  78.5140848  41.9644594  24.0222478
  79.3078375  41.5406322  25.9462833  79.0585327  42.4516964  26.4699435
  81.2900066  41.5338898  29.9740672  80.4069424  41.8934107  30.6612659
  82.4852562  41.2015581  30.4642200  83.2340622  41.1435604  29.7889233
  82.7871513  41.1803389  31.9214916  81.8679619  41.0072803  32.4811721
  83.7930202  40.1472187  32.4427795  84.2672729  39.7412610  31.5492535
  84.5802212  40.6608391  32.9947114  83.3382607  38.9284468  33.2533431
  84.1447449  38.2120872  33.4099102  82.9121971  39.1852307  34.6931887
  81.9546413  39.6986771  34.7801971  82.7084827  38.2042098  35.1223803
  83.6648369  39.6943712  35.2951956  82.2397518  38.1485748  32.4497867
  81.4723015  38.8913870  32.2321630  82.5594044  37.8611016  31.4481473
  81.9047260  37.3547649  33.1174111  83.1805325  42.5614309  32.4299407
  82.7717495  42.9252863  33.5185337  83.7849045  43.3756161  31.5124154
  84.1784286  43.0298090  30.6488991  83.8489056  44.8633718  31.7445159
  84.3463707  44.9385643  32.7114582  84.7528458  45.5240679  30.7303691
  85.6884670  44.9690962  30.6616545  84.3184566  45.4077387  29.7374535
  85.1081562  47.0033979  31.1520147  84.2611408  47.6503420  30.9236908
  85.4093552  47.0532370  32.1983886  86.2071133  47.5834131  30.3167152
  86.6762066  48.4579325  30.7675719  87.0336056  46.8781090  30.4036427
  85.8078766  47.8786898  28.9477324  85.5089474  47.1172428  28.3553314
  85.8748436  49.0051365  28.3297205  85.6082153  49.1354895  27.1038175
  85.1722527  48.3902264  26.5797806  85.5232525  50.0665760  26.7217755
  86.1656189  50.1874590  28.8333130  86.5215111  50.2569771  29.7759724
  86.5278149  50.8797073  28.1932330  82.4552345  45.5116415  31.8925381
  82.2488689  46.4091825  32.6688576  81.4803696  44.9771738  31.0807705
  81.6618729  44.2423010  30.4120970  80.0857258  45.3816652  31.1615944
  80.0356579  46.4680386  31.2350082  79.3391705  45.0656652  29.8930979
  79.9770260  45.3177834  29.0459371  79.0925074  44.0069103  29.8137403
  78.1476927  45.9759903  29.7860980  76.8585587  45.5819464  30.1920295
  76.7357588  44.6647263  30.7488370  75.7163382  46.3525152  29.9927330
  74.7517776  45.9804487  30.3051233  75.7979250  47.4419165  29.1249752
  74.6936226  48.1380272  28.6825347  74.9485207  48.9497328  28.2378268
  77.0515203  47.8775501  28.6186337  77.1354198  48.6874294  27.9090810
  78.2302856  47.1767712  29.0342999  79.1560984  47.5720692  28.6431241
  79.3913364  44.8918581  32.3700237  78.5501289  45.6151390  32.9954457
  79.5216417  43.6126661  32.7794051  80.1086330  43.0393076  32.1905136
  79.0547848  43.1217146  34.0559006  77.9691219  43.2124281  34.0210938
  79.4791365  41.6341114  34.2722201  80.5688190  41.6096783  34.2617083
  79.2347765  41.2263966  35.2531147  78.5742521  40.6158876  33.1241894
  79.2622185  40.9875345  32.0409155  79.4667912  43.9550924  35.2536416
  78.5955429  44.4100666  36.0172415  80.7535648  44.0768051  35.4860878
  81.3618374  43.6752605  34.7868943  81.2742615  45.0844765  36.4468789
  81.2549973  44.5864344  37.4162507  82.7926922  45.3026772  36.2447143
  83.2495499  44.3194866  36.1319232  82.9998493  45.9214354  35.3715992
  83.5872459  46.0736704  37.3758435  82.9484367  46.5276670  38.3635211
  84.7900867  46.2819004  37.1972108  80.3967571  46.3405657  36.5386558
  79.8570776  46.6904497  37.6456285  80.2236938  47.0354176  35.3984690
  80.6556129  46.6743565  34.5599103  79.4415760  48.2317066  35.3170848
  79.9246168  48.9657259  35.9620595  79.5388985  48.8660812  33.9851093
  80.5650902  48.8833523  33.6180544  79.0211916  48.2757330  33.2290912
  78.9784908  50.1700449  34.0781093  78.4693289  50.3597116  33.2866645
  77.9659319  48.1474781  35.7940006  77.4079895  49.0993404  36.4384270
  77.3088837  46.9443130  35.6660771  77.8350353  46.2399960  35.1688838
  75.9674168  46.6023111  36.1221504  75.3130770  47.4406815  35.8832431
  75.4262114  45.3225994  35.3488064  76.0711765  44.4736576  35.5755663
  74.0372944  44.9839020  35.8682060  73.3516073  45.8308268  35.8427286
  73.5104275  44.1809988  35.3525949  74.0792990  44.7089815  36.9221306
  75.2625942  45.4661655  33.8320422  74.4820261  46.1885691  33.5934043
  76.1966705  45.8787060  33.4507084  74.9223042  44.1755533  33.0744481
  75.7395506  43.4546041  33.0953598  74.0898561  43.6071157  33.4891939
  74.6577358  44.3897867  32.0389724  76.0017109  46.2980223  37.6058269
  75.1542234  46.8777084  38.3457184  76.9449997  45.5239105  38.0461931
  77.6792765  45.1740837  37.4473882  77.1181536  45.2009010  39.4713879
  76.2143564  44.7424412  39.8727131  78.2340860  44.0964317  39.6797872
  77.8203249  43.1660271  39.2908835  79.1425371  44.2681885  39.1024518
  78.6251593  44.0005159  41.1397314  78.7878036  44.9707508  41.6090870
  77.5371981  43.3771515  42.0658445  78.0087662  43.1223536  43.0149460
  76.6949129  44.0497732  42.2278309  77.2096062  42.3979473  41.7166519
  79.8673010  43.1700945  41.2851143  80.6758308  43.7005091  40.7820845
  80.1104832  43.0543041  42.3413134  79.7330523  42.1874142  40.8329868
  77.3649597  46.4953136  40.3024292  76.7822123  46.6696835  41.3874102
  78.3170605  47.3453951  39.9261689  78.7492514  47.1868610  39.0271783
  78.6510611  48.5612154  40.7069540  78.8530207  48.2315016  41.7260742
  79.9663782  49.2151356  40.3806305  80.2558422  49.8582125  41.2117577
  80.7805729  48.4906244  40.3972960  79.9403334  49.8969364  38.9878178
  79.7261572  49.2212009  38.1598020  79.1352034  50.6307125  38.9498758
  81.2198734  50.5831003  38.7947965  81.2004566  51.1959457  37.8936052
  81.4267635  51.2578201  39.6254897  82.3528385  49.6183205  38.7296939
  82.0829391  48.6451006  38.7395549  83.6236858  49.9047995  38.3797455
  84.1340733  51.0890865  38.3848357  83.5332966  51.8544245  38.6558223
  85.0300217  51.2794685  37.9592419  84.4750977  48.9582300  38.0225277
  84.1369152  48.0085468  37.9605794  85.3656006  49.2856264  37.6762295
  77.4151945  49.5160770  40.8760738  77.4116993  50.2559566  41.8482637
  76.4638376  49.5671034  39.9013710  76.7216873  49.0092182  39.0998864
  75.1807022  50.3226137  39.9288750  75.2525425  51.3540125  40.2740717
  74.5010090  50.2896881  38.4855747  75.1464796  50.6822014  37.6998281
  74.3696070  49.2329311  38.2529783  73.2047701  51.0566139  38.4302139
  72.8229475  51.1957502  37.4188042  72.5080252  50.3852892  38.9321852
  73.1712914  52.4149609  39.2087674  72.1266508  52.6600313  39.8655224
  74.0059471  53.3023977  39.0749454  74.2981958  49.5690155  40.9346914
  73.7023973  50.1397896  41.8567801  74.1479397  48.2361603  40.8677149
  74.6820688  47.7093077  40.1915264  73.3070183  47.3561430  41.7127037
  72.2722530  47.6530981  41.5418816  73.4870863  45.8901644  41.1752319
  73.3752537  46.0630465  40.1048565  74.5314169  45.6530237  41.3783073
  72.3519707  44.8767185  41.5255642  72.5760221  44.5519209  42.5416374
  71.3970041  45.3778696  41.3674927  72.4947548  43.3638573  40.5481625
  70.8482933  42.6289272  40.9799242  70.1272631  43.4314871  40.8246851
  70.6189442  41.8061113  40.3028154  70.9001112  42.2170258  41.9877768
  73.6793804  47.4301910  43.1866980  72.8173256  47.5752449  44.0757847
  74.9986219  47.4652958  43.4464407  75.6670618  47.3783922  42.6942921
  75.5307436  47.7492952  44.7620773  74.9630737  47.1516371  45.4752779
  77.0403957  47.3965883  44.7666359  77.5597000  47.7261925  43.8667536
  77.6180935  47.8905869  45.5478716  77.2483063  45.8998251  45.1374245
  76.7293358  45.2330303  44.4488335  78.7415934  45.6055975  45.0466537
  79.2817879  46.3374376  45.6472397  78.8671541  44.5539665  45.3043795
  78.9838696  45.6764793  43.9862871  76.8577051  45.5601025  46.5933180
  77.2093058  46.2875843  47.3249197  75.7688046  45.5277634  46.6300392
  77.1976233  44.5518064  46.8297386  75.3356409  49.1996861  45.1984406
  75.3391027  49.5206118  46.4079237  75.2621937  50.1919842  44.2998171
  75.2093506  49.8964500  43.3354712  75.2038431  51.6420221  44.6598053
  76.1782503  51.8994427  45.0749636  75.1029301  52.5447512  43.4105635
  75.4848671  53.4747267  43.8317251  75.7243824  52.1634722  42.6003027
  73.7253666  52.6300526  43.0249310  73.4577751  51.7296553  42.8267431
  74.0312719  51.9381046  45.6048632  73.0309010  51.2414360  45.6576014
  74.1741514  52.8499651  46.5380764  75.0725222  53.3095026  46.4948893
  73.3480453  53.1955338  47.6993275  73.1977129  52.3164129  48.3259392
  74.0478325  54.3197203  48.4831285  74.4737625  55.0373030  47.7818727
  73.3905172  54.9578619  49.0737343  75.0705051  53.8170767  49.4335938
  74.5622015  53.0178976  49.9730730  75.8329153  53.3321476  48.8239431
  75.6789494  54.8346472  50.3933716  76.0468483  55.6513214  49.7722435
  74.9109268  55.2554893  51.0423183  76.8154240  54.2957640  51.2483311
  77.6423311  54.0789461  50.5720854  77.0343590  55.0535297  52.0006371
  76.5616131  52.9505014  51.9595385  75.8778715  52.9163694  52.7021217
  76.1997986  52.3162365  51.2617588  77.4679947  52.6008606  52.2357893
  72.0029926  53.7443781  47.3259306  71.0937595  53.7521124  48.1718922
  71.8163633  54.2719841  46.1259222  72.6103449  54.3849754  45.5119801
  70.4720211  54.8610163  45.7839012  70.2829552  55.5825996  46.5786791
  70.5902338  55.5405426  44.4078875  69.7131586  56.1865282  44.3686867
  71.5055180  56.1316109  44.3763685  70.5621910  54.7725916  43.0521870
  71.1696196  53.8688898  43.1016779  69.5751047  54.3590307  42.8454876
  70.8432817  55.5877256  41.8121910  70.6244659  54.9842787  40.9312439
  70.1120710  56.3959122  41.7958641  72.3425579  56.1050463  41.8099785
  72.4895477  56.9619226  41.1525202  72.6896524  56.5419817  42.7463102
  73.2894564  55.0155401  41.5246344  74.2230225  55.3535080  41.3393450
  73.3439159  54.2432594  42.1732664  72.9959726  54.6532774  40.6286812
  69.3299866  53.9056206  45.7655811  68.1671095  54.2960310  45.9182882
  69.6536255  52.6159096  45.6969118  70.6231213  52.3705053  45.5556297
  68.6879396  51.4289045  45.8081007  67.7593136  51.7856646  45.3625917
  69.2317772  50.3076649  44.9141788  70.2607918  50.0397062  45.1538277
  68.5293865  49.4786024  45.0001907  69.3459606  50.7902718  43.4543037
  68.3885288  51.4080858  42.6724720  69.0955400  51.7163038  41.5616322
  68.6054659  52.1556616  40.7053709  70.3481150  51.2220907  41.5345430
  71.0914612  51.6946745  41.0403824  70.5367804  50.6939840  42.7384758
  71.4264917  50.2028656  43.1040144  68.4078884  50.9195042  47.2044182
  67.5339842  50.0813293  47.3092794  69.0077066  51.5064287  48.2506418
  69.4611931  52.3945332  48.0902719  69.1158867  50.8899069  49.5624495
  69.6774960  49.9601507  49.4716215  69.8537827  51.6859102  50.5511379
  69.4632292  52.7020550  50.6061029  69.7806025  51.2609529  51.5522146
  70.9019995  51.6800499  50.2522993  67.7054214  50.5648947  50.0743389
  67.5258398  49.5689297  50.7886076  66.7318010  51.3453388  49.7549200
  66.9018984  52.1298122  49.1419220  65.3809881  51.2647200  50.1925707
  65.3177261  51.4933443  51.2564421  64.6042585  52.3126602  49.4257021
  64.5478487  52.0484400  48.3697176  63.6303043  52.1908379  49.8997068
  64.9878454  53.3120108  49.6312714  64.7649860  49.8702335  49.9793148
  63.8779593  49.3962812  50.6974602  65.2109241  49.1413450  48.9063072
  65.8213902  49.5856667  48.2354736  64.9679089  47.7708530  48.6298513
  64.3388891  47.3686886  49.4240141  64.1199923  47.7420568  47.3434925
  64.0538168  46.7216682  46.9659662  63.1161308  48.0274916  47.6579618
  64.5355654  48.6572886  46.2222910  64.0801144  49.9713087  46.1561298
  63.4681940  50.3036880  46.9816494  64.5245695  50.8876991  45.1682281
  64.2535353  51.9328308  45.1428509  65.4192972  50.4671860  44.2075634
  65.7080746  51.3316870  43.1257343  66.5761852  51.1250353  42.7717829
  65.8891201  49.1234922  44.2683840  66.6138458  48.8191938  43.5277271
  65.5124998  48.2272100  45.2993917  65.8320093  47.1956301  45.2868938
  66.2386179  46.8131399  48.5644960  66.0134554  45.6178284  48.7498760
  67.4316454  47.3401117  48.3776140  67.4757767  48.3146191  48.1159067
  68.6614847  46.5613174  48.1426716  68.3857059  45.5592489  47.8141832
  69.4865084  47.2845411  47.0780611  69.6115398  48.3002663  47.4532604
  70.4542208  46.7829132  47.0751572  68.9664650  47.4486589  46.1342812
  69.4556236  46.2330914  49.4275522  70.5154037  45.5754328  49.3766880
  68.9255905  46.6879368  50.6072664  68.0952120  47.2628832  50.6103754
  69.5254946  46.4663744  51.8932295  70.5265093  46.8922615  51.8247128
  68.7810516  47.2350550  53.0530930  69.4096947  47.2441483  53.9435005
  68.7580395  48.2954311  52.8017569  67.4334669  46.7997026  53.3931112
  66.3259840  47.3736191  52.9206467  66.3208008  48.1522465  52.1722364
  65.2698708  46.6218567  53.4353828  64.3439531  46.6688442  53.0346823
  65.6910658  45.5739450  54.2757273  65.0417709  44.5577240  54.9758196
  64.0080023  44.3198299  54.7730207  65.8380604  43.6330986  55.7295418
  65.3499937  42.7506828  56.1162424  67.2311974  43.6968231  55.7041597
  67.8324318  42.9130793  56.1408091  67.8689814  44.7470903  55.0070238
  68.9478827  44.7827244  55.0402641  67.1279860  45.6892967  54.2877531
  69.7288275  45.0281906  52.2574234  70.8228827  44.8062229  52.7949429
  68.9461231  43.9673948  51.9182062  67.5681639  44.0565205  51.3180828
  67.6679373  44.0106916  50.2336264  66.9738245  44.8584700  51.7559624
  66.8221378  42.7470779  51.7450762  66.4723921  42.1040106  50.9374619
  65.9890223  42.9083681  52.4291897  67.8568840  41.9307232  52.5351191
  67.9010773  40.8748579  52.2681046  67.6866770  41.9372225  53.6117315
  69.2062378  42.5621939  52.2438288  69.7640419  42.6097202  53.1790829
  70.0428009  41.8428707  51.1385441  70.4098892  40.7408333  51.3738346
  70.2891779  42.4873829  50.0241375  70.0044394  43.4534168  49.9479008
  71.0215712  41.9540262  48.8216972  71.0929155  40.8703184  48.9144039
  70.2485418  42.1298122  47.4601603  70.4378033  43.0991793  46.9990635
  70.6716442  41.3117266  46.8772173  68.7960911  41.6975594  47.6417398
  68.4976912  40.2864647  47.7324009  69.2013550  39.5115376  47.4664068
  67.1625090  39.9941683  48.1176138  66.9566631  38.9346385  48.0798721
  66.2181520  40.9814739  48.4269094  65.2124214  40.7518482  48.7465763
  66.5418339  42.2932005  48.1310034  65.8136511  43.0905390  48.1108570
  67.7952766  42.7029467  47.7008343  67.9429293  43.7526131  47.4939442
  72.4848413  42.4673033  48.8567829  73.4046745  41.6956425  48.5317659
  72.7990198  43.6912012  49.2883205  72.0801926  44.3717241  49.4890118
  74.2334938  44.1139984  49.4338131  74.6373606  44.2282200  48.4278584
  74.3080902  45.4765463  50.1796484  74.0617561  45.2847385  51.2239838
  75.3222084  45.8686686  50.1027870  73.5578442  46.6813183  49.5859003
  73.6266613  46.9031811  48.1536961  74.1456270  46.2528563  47.4651098
  72.8683901  47.9995584  47.6919460  72.8851604  48.1695032  46.6255331
  72.2514391  48.9532280  48.4989882  71.6869640  50.0908852  47.9105520
  72.1888494  50.2074862  47.1005392  72.3813868  48.8179350  49.8865318
  72.1643591  49.6348238  50.5588388  72.9830408  47.6078415  50.3988075
  73.1223774  47.5242805  51.4665174  75.1942587  43.1376648  50.1690054
  76.3718319  43.1617785  49.8462868  74.7145319  42.4475908  51.1838150
  73.7322474  42.5412893  51.3993073  75.5792475  41.6377306  52.0041800
  76.3254547  41.1800194  51.3547373  76.1561775  42.6269674  53.0368996
  77.1284819  42.2556305  53.3606768  76.3325024  43.5373211  52.4639511
  75.2715683  42.9901028  54.2625284  74.4148588  43.5892248  53.9539909
  75.0361252  42.0764923  54.8084116  76.0328913  43.9383745  55.2335739
  76.3645840  44.8242426  54.6919775  75.3748989  44.2671251  56.0379791
  77.2885036  43.2389927  55.8533525  76.9797993  42.6881552  56.7418242
  77.6538372  42.5197649  55.1203108  78.2142639  44.1593742  56.4020777
  77.7337599  44.7423983  57.0723820  78.8858747  43.6760998  56.9812822
  78.6691046  44.6309948  55.6334448  74.9161053  40.4651451  52.6961374
  73.7397289  40.2741718  52.4573565  75.6579208  39.5561600  53.3292770
  77.1201420  39.5912790  53.4941435  77.2998905  40.2736187  54.3249321
  77.5731182  40.0195551  52.6000023  77.5387764  38.2052112  53.7566566
  78.4755659  38.0824876  54.3002272  77.7188826  37.7181697  52.7982950
  76.3094616  37.6474047  54.5072985  76.4305592  38.0780721  55.5012655
  76.2624598  36.5585732  54.4890642  75.1194191  38.2384062  53.8304567
  74.8643160  37.6044035  52.9813051  73.8863039  38.2602143  54.7224426
  73.7306118  39.2702365  55.4266882  73.0621529  37.2256637  54.8149014
  73.2636166  36.4419675  54.2104673  72.0870543  37.1136689  55.8947754
  71.8038511  38.1196856  56.2043285  70.8620977  36.3972068  55.3583860
  71.2055492  35.5522203  54.7616100  69.8910189  35.9591341  56.5328598
  69.4929361  36.7803788  57.1288443  69.0097332  35.4529357  56.1389112
  70.3094244  35.1667690  57.1535015  70.1464653  37.3251128  54.4398451
  70.8383274  37.9386687  53.8628006  69.4869137  36.7373109  53.8014269
  69.5551682  37.9922915  55.0670147  72.6654625  36.4214063  57.1317005
  72.9561186  35.2004552  57.0263004  72.8874874  37.1431494  58.2528639
  72.6685858  38.1281900  58.2095766  73.5249043  36.5544510  59.4330692
  74.1854239  35.7327461  59.1562796  74.3383932  37.5944686  60.1490164
  73.7909746  38.5361385  60.1078939  74.5897579  37.2247458  61.1431122
  75.6951237  37.9595327  59.4227505  75.8229303  39.0735292  58.8705301
  76.5326500  37.0477653  59.2845154  72.4193192  35.9007382  60.2437019
  71.8626595  36.3404012  61.2114239  71.9548941  34.7999072  59.6203566
  72.2784758  34.6124840  58.6821318  70.8318472  33.9771724  60.1257181
  69.8720694  34.4555616  59.9305964  70.8479071  32.7670074  59.2013884
  71.8555260  32.3518538  59.2228270  70.1484728  31.9981527  59.5296574
  70.5406857  32.9672575  58.1749296  70.9146452  33.6179948  61.6017103
  69.8358583  33.5629725  62.1771145  72.0645332  33.2901597  62.1586847
  72.8323507  33.3261728  61.5035057  72.3510027  33.1097317  63.5785723
  71.6722107  32.4104595  64.0667963  73.7264442  32.4796581  63.7300396
  73.7962294  31.4688826  63.3280897  74.4127560  33.0118918  63.0714035
  74.3187714  32.5255656  65.1529503  74.5290709  33.5648203  65.4055786
  73.4959221  32.2226834  65.8004761  75.6515121  31.7685151  65.2688313
  76.6083956  32.0040417  64.4965649  75.6875992  30.7038021  65.8739710
  72.0567751  34.3871212  64.3422604  71.2403297  34.4234776  65.2578783
  72.6838970  35.5522394  64.0592718  73.2338667  35.4322243  63.2206869
  72.4758482  36.8516159  64.6803856  72.8619671  36.9055724  65.6982756
  73.3611202  37.8982425  63.9254189  73.2358122  37.8298235  62.8448057
  73.2909107  38.9521885  64.1944361  74.4023275  37.6039743  64.0572977
  71.0467911  37.3049927  64.7548437  70.7783604  38.1046391  65.6232929
  70.2146721  36.9058251  63.8400841  70.6452131  36.4220977  63.0650043
  68.7668991  37.1909666  63.7215614  68.5492945  38.0647016  64.3358421
  68.4706736  37.5009537  62.2564316  68.6324883  36.5955114  61.6715479
  67.3963928  37.6684380  62.1791363  69.2225027  38.6639118  61.5724468
  70.3096867  38.6360860  61.6456461  68.9888668  38.7211800  60.0526667
  67.9358196  38.7811875  59.7777176  69.5738602  39.5407391  59.6352816
  69.3776178  37.7757716  59.6742821  68.8605595  40.0182343  62.2035170
  67.7816820  40.1400566  62.2998953  69.2818546  39.9508739  63.2065439
  69.4039488  40.7887268  61.6565514  67.8692722  36.0271740  64.1854668
  66.6827822  36.2657332  64.2165995  68.3169746  34.8531103  64.6460104
  69.3263674  34.8326230  64.6174383  67.5847530  33.6710739  65.0784779
  68.2959652  32.8726268  65.2900505  66.9670296  33.8869596  66.3924837
  66.1705399  34.5984745  66.1746407  66.5484715  32.9494095  66.7584229
  67.8642797  34.5339108  67.4933147  68.6428356  33.8004112  67.7029133
  68.3465862  35.4367971  67.1187830  67.0959902  34.9523926  68.7528896
  67.1311760  36.1250997  69.2741156  66.3948870  34.0373683  69.3290854
  66.5356636  33.0729175  64.0772009  65.4150009  32.7970982  64.5019817
  67.0154715  32.7979589  62.8397036  67.9977274  32.9593062  62.6687002
  66.1922026  32.3560214  61.7104340  65.1553965  32.4974275  62.0156384
  66.3316202  33.2131720  60.3840208  67.3074913  32.9930997  59.9511814
  65.5058765  32.8901935  59.7500420  66.2398100  34.7569847  60.6807899
  66.8082952  34.8640227  61.6046238  66.9271851  35.5863333  59.6235228
  66.7275906  36.6500902  59.7526836  67.9812384  35.3552198  59.7773647
  66.5840912  35.3344512  58.6200571  64.7601748  35.1564550  60.8457327
  64.3517494  34.5998955  61.6892529  64.6668148  36.2220907  61.0550308
  64.1737270  34.9658918  59.9469233  66.4702892  30.8971071  61.4857197
  67.4694729  30.5197620  60.8950996  65.6941175  30.0959229  62.1385527
  64.9461889  30.5269670  62.6628685  65.9671545  28.6493659  62.2405767
  66.9811058  28.5647082  62.6315260  65.1277161  28.0052567  63.3895159
  64.0760088  28.2398152  63.2252216  65.0616693  26.9206905  63.3031654
  65.5779791  28.4716439  64.8014116  65.4836845  29.7261214  65.3216743
  65.7342815  29.6165323  66.6159678  65.7664299  30.3814173  67.3777533
  65.8926868  28.3186889  66.9193554  65.9185171  28.0021811  67.8781366
  65.6512117  27.5521040  65.7966471  65.6803846  26.4816260  65.6565571
  65.8853006  27.8376055  60.9280729  66.6047812  26.8608022  60.8802700
  64.9944925  28.1205249  60.0147915  64.2985582  28.8520551  60.0401354
  64.9747562  27.4239278  58.7015867  65.1463461  26.3487411  58.7528753
  63.5473251  27.5715852  58.0220747  63.3011293  28.6064792  57.7844048
  63.5724020  26.9772482  57.1087122  62.4538231  27.0058656  58.9046383
  62.7607870  26.0395932  59.6189404  61.2330770  27.3303318  58.7922716
  66.0476780  27.7576256  57.6284504  66.2942123  26.9129181  56.7443180
  66.6797400  28.9151669  57.6864052  66.5731525  29.4671464  58.5254860
  67.4163628  29.4680738  56.5555096  66.7674160  29.5649600  55.6851149
  67.8922081  30.8791494  56.9982052  67.1307182  31.4662433  57.5115824
  68.6898279  30.7597995  57.7314615  68.5745811  31.6301489  55.8743382
  69.9833727  31.5607238  55.8347654  70.5498409  30.9741235  56.5428734
  70.6801796  32.2054243  54.7876120  71.7473841  32.0685983  54.6940613
  69.9503088  33.0228639  53.9161873  70.6923294  33.5774827  52.8766155
  71.6097355  33.7403202  53.1078291  68.5378742  33.1639266  53.9891672
  68.0090857  33.7431097  53.2466459  67.8523302  32.4011207  54.9471140
  66.8077230  32.5543451  55.1745319  68.6120796  28.6453986  56.0540104
  68.8111544  28.4616423  54.8493099  69.4185543  28.0523515  56.9690847
  69.2279577  28.2632709  57.9382563  70.4554939  27.0411539  56.6266489
  70.9199762  27.2749591  55.6686831  71.5428638  27.0730972  57.6445580
  71.0349703  26.9366097  58.5992908  72.1600676  26.1890936  57.4842596
  72.2986364  28.3577776  57.6030922  72.6686764  29.0356350  56.3908052
  73.3309889  30.1545978  56.7464685  73.8498020  30.8777094  56.1346340
  73.4368181  30.1412249  58.0731773  73.7633705  30.9289813  58.6143827
  72.8627205  29.0025949  58.6158991  72.6374483  28.7404037  59.6390820
  69.8619175  25.6073022  56.4724779  70.5587101  24.6983171  56.0540724
  68.6368561  25.3742361  56.6580248  68.0698538  26.1541200  56.9586706
  67.9273939  24.1362357  56.1237669  68.5578823  23.2490301  56.1825323
  66.8009806  23.7527204  57.0852661  65.9652042  24.4406700  57.2129393
  66.3357019  22.8404593  56.7119074  67.2355843  23.4017992  58.4887981
  66.3628197  23.4122348  59.4396448  68.4190559  23.0545640  58.7137175
  67.4323702  24.3022203  54.6518087  67.6081133  23.3880138  53.8625717
  67.0421648  25.5017519  54.2458534  66.9442844  26.2292647  54.9395752
  66.6055536  25.7445693  52.8204966  66.2053299  24.8261499  52.3910379
  65.4621649  26.8057752  52.7535057  65.8371210  27.7847242  53.0521154
  64.8605680  27.0513248  51.3704109  64.1379881  27.8632998  51.4520836
  65.6867981  27.2793627  50.6970263  64.3235254  26.1653161  51.0317707
  64.3102980  26.4032483  53.7729359  63.8324404  25.4614949  53.5030270
  64.7134829  26.1292076  54.7478485  63.1882000  27.4182272  54.0051222
  62.6428652  27.4486589  53.0618382  62.6264524  27.0511198  54.8640633
  63.5773277  28.3550477  54.4039297  67.6919460  26.1586046  51.9353771
  67.8352118  25.5825853  50.8499479  68.5986376  27.0750761  52.3413801
  68.4193230  27.5480366  53.2155991  69.5967579  27.6301837  51.4703894
  69.2123079  27.6811647  50.4517078  69.9034309  29.0992618  51.9289446
  70.3936148  29.0699553  52.9020643  70.8950710  29.7381306  50.8959198
  70.5608940  29.6591187  49.8614216  71.0538578  30.7894826  51.1358261
  71.8840551  29.2799926  50.9065914  68.6278629  30.0415158  52.0682621
  67.9613924  29.6759868  52.8494835  68.9890194  31.0309386  52.3488092
  67.7960968  30.0685692  50.7768345  68.4425735  29.9294806  49.9103355
  67.0152092  29.3088984  50.7419538  67.5248289  31.1242342  50.7863808
  70.8697796  26.7750406  51.3946295  71.8803215  26.9917631  52.0649481
  70.7574034  25.8256459  50.4541588  69.8658991  25.8113909  49.9796963
  71.8263578  24.9296927  50.0041676  71.9568825  24.2245746  50.8250713
  71.4954901  24.2719841  48.7483883  71.1466408  25.0647163  48.0865908
  72.3913622  23.8943768  48.2554960  70.4004955  23.2156157  48.9380360
  69.5187521  23.6016178  49.4495344  70.1476669  22.8231525  47.9530764
  70.9267855  21.9674349  49.6900606  71.6405439  21.4704704  49.0330410
  71.4445305  22.2511649  50.6063223  69.8667717  20.9941316  50.0362778
  69.2301750  21.2403679  50.8861113  69.1724777  20.9625030  49.1965914
  70.4223824  19.6682966  50.1481295  70.9119606  19.4510531  49.2918444
  71.1487341  19.6190763  50.8481932  69.7290659  18.9338481  50.1479959
  73.1453323  25.6921411  49.7332811  74.2557669  25.1957488  50.0419378
  73.0779123  26.9168830  49.2711735  72.1256828  27.0635533  48.9681101
  74.0979481  27.8179264  48.7532616  74.9679470  27.5714040  49.3618917
  74.3590498  27.4895883  47.2775745  73.5159206  27.8235602  46.6728449
  75.1820374  28.1277323  46.9557619  74.6291971  26.0830832  46.9665861
  73.8568830  25.3512335  46.1003256  74.4106197  24.1333032  46.0480690
  74.0016556  23.3246160  45.4605532  75.6384611  24.1572046  46.7042065
  76.3915586  23.5056758  46.5354729  75.7073021  25.3607750  47.3750925
  76.4782572  25.6428885  48.0768394  73.9046001  29.3130636  49.0285826
  73.1470537  29.9443841  48.2798862  74.5546103  29.9605918  50.0200367
  75.6936312  29.5031619  50.7739544  76.4372873  29.0300703  50.1326561
  75.3038788  28.7973642  51.5074682  76.2501097  30.7433414  51.5538120
  77.0417070  31.1906981  50.9526968  76.5875816  30.4091215  52.5348902
  75.1010466  31.6919327  51.5443325  75.5277538  32.6923656  51.4725351
  74.4978142  31.5858126  52.4459696  74.3179846  31.4236808  50.2318478
  73.2644987  31.6947865  50.3009319  74.8944378  32.4029565  49.1450691
  76.0152626  32.1060777  48.5957623  74.3073368  33.4946299  48.7904692
  73.4021282  33.7783670  49.1371536  74.8244238  34.5181680  47.8539467
  75.9125185  34.5209527  47.9184532  74.6290302  33.9992571  46.4139891
  75.0212002  33.0013704  46.2177086  73.5448265  33.9612508  46.3083267
  75.2817869  34.8944354  45.3689861  75.1206589  34.7436404  44.3015575
  74.9859571  35.9065819  45.6449270  77.1255302  35.0924921  45.5034637
  77.5522518  33.4343266  44.8947763  76.8633127  33.2088399  44.0807581
  78.6345911  33.4316158  44.7658157  77.3936176  32.6845241  45.6698465
  74.3182087  35.9461427  48.1899214  73.1820726  36.1943650  48.5605907
  75.2374935  36.9017243  48.0298758  76.1002588  36.6163993  47.5890493
  75.0466728  38.3222914  48.3642292  74.0632105  38.7397289  48.1482410
  75.4654551  38.5194445  49.8632717  75.4044819  39.5858765  50.0803137
  74.7997379  37.9592776  50.5198860  76.9684839  38.2371688  50.0721025
  77.3005724  37.0460224  50.3008223  77.8091860  39.1748691  50.0353479
  75.8967447  39.0619612  47.3332739  76.7999411  38.5474777  46.7271233
  75.6146336  40.3301191  47.1692324  74.7908163  40.7344770  47.5910378
  76.2902975  41.1949396  46.1799097  76.4012289  40.5650282  45.2972984
  75.4473257  42.3795271  45.8823252  75.3385830  42.8845358  46.8421412
  76.1260796  43.0226231  45.3221226  74.1299391  42.3068380  45.1694870
  73.5513973  41.5723610  45.7297945  73.2972956  43.6131287  45.2351189
  73.7533760  44.4619083  44.7255421  72.3388052  43.3494329  44.7880507
  73.0687237  43.8952351  46.2628698  74.2393589  41.9814348  43.6685562
  74.6334124  42.8148317  43.0869389  74.8912811  41.1120844  43.5829449
  73.3044291  41.7115879  43.1774473  77.6845837  41.6718721  46.6099167
  78.4767723  42.0079565  45.7033968  78.0569506  41.6010761  47.8667784
  77.4962521  41.1110497  48.5491180  79.4718170  41.7759228  48.1655455
  79.7417688  42.6176167  47.5277519  79.7532034  42.2369528  49.6108198
  79.5030737  41.5333319  50.4048300  80.7970810  42.5504589  49.6225166
  79.0289783  43.4962034  49.8154163  78.0974150  43.2695150  49.7663784
  80.3958702  40.6447363  47.8758430  81.5248871  40.8527327  47.4591064
  79.8653364  39.4033623  47.8893042  78.9944363  39.2658544  48.3819723
  80.5871964  38.1833625  47.4504566  81.6455650  38.1684947  47.7107048
  79.9769354  36.9527578  48.2403135  78.9484692  36.7948079  47.9156446
  80.6835175  35.5855703  47.8847075  81.7036438  35.6470394  48.2637358
  80.1266289  34.8378205  48.4493828  80.7164192  35.4024696  46.8106985
  80.0420856  37.1022844  49.6084356  79.1047192  37.0818114  49.8146582
  80.6203556  37.9774714  45.9459162  81.6137600  37.5989938  45.3481960
  79.5506525  38.4042430  45.2338743  78.6635494  38.5276508  45.7006836
  79.6594143  38.6423254  43.7215137  80.0605106  37.7354670  43.2689333
  78.3319187  38.9099097  43.0378723  77.9875898  39.8359346  43.4983301
  78.3075285  39.0364003  41.4756107  77.4008226  39.4286704  41.0150528
  79.0838623  39.7189593  41.1298943  78.4826994  38.0910873  40.9619951
  77.3317385  37.7529740  43.4283352  77.7298355  36.7620492  43.2099485
  76.9624662  37.8469348  44.4495630  76.4305449  37.8535628  42.8234863
  80.7593441  39.6161485  43.4192705  81.6890812  39.2919374  42.6173019
  80.8031559  40.7836819  44.1056728  80.2260780  40.9355927  44.9205351
  81.9058228  41.7907572  43.9408875  81.8993568  42.1050406  42.8971958
  81.6286373  43.0362892  44.8257017  80.8774757  43.6739016  44.3595409
  81.2361908  42.7026653  45.7863140  82.7878666  44.0037155  44.9581671
  83.5457039  43.4877300  45.5476952  83.1983566  44.1878080  43.9653397
  82.4788666  45.3334093  45.7544899  81.7405987  45.9229279  45.2108669
  82.0979691  45.0525856  46.7364025  83.7276649  46.0629892  46.0285282
  83.5080910  46.9745111  46.5844107  84.3947220  45.4752779  46.6591930
  84.3890190  46.4694071  44.7484255  85.0116253  45.7716799  44.3667889
  83.7393379  46.7138815  44.0147734  84.9675369  47.2943258  44.8186111
  83.2934284  41.2446833  44.3124580  84.2032909  41.5595102  43.5537863
  83.4243679  40.3587675  45.2844954  82.6294327  40.1042223  45.8531666
  84.6835613  39.7186613  45.6696701  85.4853916  40.4471016  45.7903290
  84.4454002  39.0400648  46.9978046  84.2349243  39.7298646  47.8151035
  83.5758781  38.3942437  46.8755150  85.7404327  38.2218480  47.4743938
  85.6370163  37.6455474  48.3937883  85.9759808  37.4783230  46.7129564
  86.8730164  39.0967631  47.8619719  86.4940834  40.0533772  48.2216978
  87.4315834  38.6083841  48.6604643  87.7236080  39.2637420  46.7359066
  87.6303387  38.6509943  45.9384489  88.6255932  40.2086210  46.5777349
  89.2982292  40.2521658  45.4454851  89.4541359  39.3647361  44.9891233
  89.9258709  41.0240602  45.2713013  88.7242699  41.3073874  47.3587036
  88.2710838  41.2280369  48.2578230  89.3082523  42.0901251  47.1010447
  85.0578690  38.7907124  44.5030499  86.2271404  38.7076664  44.0611124
  84.1596413  38.0012465  43.8818216  83.2156086  38.0247211  44.2400837
  84.3787670  37.1449494  42.7328014  85.2468395  36.5164614  42.9316854
  83.2572269  36.1265373  42.6689386  82.3718643  36.6392899  43.0448771
  83.1671238  35.9081221  41.6048527  83.5156441  34.8387432  43.5468531
  84.4289875  34.3299556  43.2385683  83.4799862  35.2115440  44.5704937
  82.3572063  33.7839389  43.4036398  82.4255848  32.9957342  44.1534138
  81.4262962  34.3434334  43.4957218  82.3236465  33.2045436  42.0167446
  82.1456718  34.0311694  41.3289165  83.2960320  32.7645469  41.7954540
  81.2175560  32.2861266  41.8688107  81.4206791  31.4788222  42.4407434
  80.3598595  32.7297020  42.1649361  81.0573196  31.9659233  40.9244108
  84.7213078  37.9897261  41.4809513  85.7254219  37.7345872  40.8355093
  83.9520836  39.1004634  41.2318420  83.1378746  39.2413664  41.8126345
  84.2689610  40.1259661  40.1827145  84.3549919  39.6207428  39.2207098
  83.0945683  41.0990191  40.1760292  82.1155071  40.6290388  40.0829792
  83.0932617  41.6970968  41.0872889  83.2167244  42.1533346  39.0269232
  82.5752449  43.0181456  39.1963673  84.1604042  42.6988363  39.0300608
  82.9252911  41.5741253  37.3095942  81.1309338  41.1638594  37.5671387
  80.5929756  41.4053059  36.6504049  81.0634232  40.0789213  37.6474643
  80.7736588  41.6259289  38.4874296  85.6379795  40.8752823  40.2734709
  86.3134384  40.9168005  39.2665482  85.9409046  41.4627218  41.4390182
  85.1917076  41.5306044  42.1129608  87.1744156  42.0697117  41.7854548
  87.3927307  42.9411268  41.1681414  87.1247578  42.6072168  43.2273626
  86.6843224  41.8154812  43.8333893  88.1541538  42.6893806  43.5761929
  86.4474392  43.9526796  43.5698509  86.4562416  44.3332052  44.7493124
  85.8785439  44.6653461  42.6976776  88.3429527  41.1018896  41.6877794
  89.3867493  41.5949535  41.2093401  88.1775761  39.8331094  42.0435476
  87.2883034  39.5185137  42.4045467  89.1900063  38.7729764  41.8982315
  90.1294613  39.3163800  41.9993925  89.2762470  38.1185961  42.7656746
  89.1736889  37.9801941  40.5699635  89.9767971  37.0184731  40.3905916
  88.3194351  38.3399725  39.5931268  87.7069378  39.1199040  39.7845840
  88.2329082  37.7619910  38.2071638  87.3834991  38.3090663  37.7981257
  89.4810295  38.2002544  37.4568224  90.4033279  37.9939961  37.9998922
  89.4752216  37.6030040  36.5450335  89.6041107  39.6231294  37.0106721
  90.5692768  39.5523763  36.5091348  88.8732433  40.0783539  36.3423085
  89.8858070  40.5681849  38.1168771  89.1203785  40.5136919  38.8909864
  90.8436108  40.3113270  38.5693574  90.0328922  41.9566536  37.6195621
  90.8462524  42.1713543  37.0605898  89.0589046  42.8274918  37.4000168
  87.8283501  42.7025747  37.8316736  87.6200581  41.9686031  38.4934950
  87.1173668  43.3854151  37.6118374  89.3223572  43.9333916  36.7847013
  90.2719784  44.1455126  36.5139222  88.5779762  44.3637419  36.2547898
  87.8812122  36.2288713  38.1711650  88.3835220  35.5003691  37.3240519
  86.9499207  35.8384061  39.0021467  86.7034817  36.4253855  39.7862554
  86.6126251  34.4196725  39.1806602  87.5148964  33.8122559  39.2517066
  85.9681702  34.3180394  40.6177425  85.1744652  35.0626707  40.6781483
  85.5360126  33.3226943  40.7208490  86.9749451  34.3654442  41.7264700
  87.6326084  35.2190161  41.5621090  86.5080547  34.6826434  42.6589346
  87.7672195  33.1049085  42.0226431  87.3272896  32.2039247  42.7939987
  88.9428806  33.0608392  41.6159010  85.6940842  33.9268780  38.0394292
  85.6859684  32.7048111  37.7414465  84.8823071  34.7994661  37.4559140
  84.9080276  35.7787251  37.7018595  83.9399433  34.3895602  36.4094925
  83.4442329  33.5178709  36.8367267  82.9512978  35.5388546  36.1762238
  83.5354042  36.4070415  35.8709812  82.2877979  35.2429438  35.3636336
  82.2112465  35.9048986  37.4387097  81.6534519  34.8116779  38.1557012
  81.7222977  33.8180161  37.7382135  81.0217285  34.9557304  39.4207811
  80.4750061  34.1357636  39.8625350  80.9342957  36.2842059  39.9109006
  80.3238964  36.3886189  41.1785507  79.9136353  35.5900192  41.5184402
  81.4768696  37.4193358  39.2339063  81.3785648  38.3472681  39.7776747
  82.3141003  37.1767950  38.0489469  82.8611755  37.9737878  37.5673747
  84.6325302  34.0259433  35.1146793  85.4868603  34.7968793  34.6510267
  84.2473125  32.9090524  34.4269633  83.2659626  31.9537854  34.9363279
  82.3436737  32.4211335  35.2814031  83.6769295  31.3593006  35.7522869
  83.0052376  30.9910655  33.7586284  82.1950436  31.4337325  33.1792092
  82.7986526  29.9992633  34.1608047  84.3255806  31.0633564  32.9904723
  84.1335583  30.8037257  31.9494081  85.0768566  30.4432535  33.4795022
  84.7920799  32.5411630  33.1496191  85.8795929  32.6146197  33.1451988
  84.1791725  33.3346176  31.9765282  84.8450565  33.3055258  30.9207726
  83.0317974  34.0107608  32.2488499  82.5804996  33.8491774  33.1378531
  82.1524239  34.6821475  31.2759161  82.6200294  35.6206107  30.9780335
  81.7260742  33.8018250  30.0615263  81.0499382  34.3474889  29.4033551
  82.6111889  33.5385251  29.4824195  81.0053921  32.4633980  30.4232907
  79.8635101  32.5494933  30.8856273  81.4508533  31.3592958  30.0187826
  80.8186722  35.2004671  31.8816757  80.3950691  34.8342800  33.0087590
  80.1375484  36.0775733  31.1381125  80.4738331  36.3600659  30.2285957
  79.0373707  36.9119000  31.6740870  79.5022011  37.5283766  32.4434972
  78.5290813  37.8378415  30.5836248  79.3708038  38.5241675  30.4910851
  78.3202648  37.1900630  29.7322249  77.6499033  38.4600735  30.7508922
  77.8912973  36.0944772  32.2896361  77.3930454  36.4266658  33.3741522
  77.5244188  34.9446225  31.6402984  77.9519176  34.6609879  30.7702994
  76.4888430  34.0688920  32.2024655  75.7006836  34.7779369  32.4557686
  75.9677362  33.0837154  31.1301947  76.8686152  32.6740098  30.6733990
  75.2617550  32.2997904  31.4043307  75.4250050  33.9298654  29.9961829
  76.0557985  34.7472858  29.6468592  75.3796721  33.2312417  29.1607356
  74.0233088  34.5130968  30.2379370  73.2642698  34.2388439  31.1416006
  73.7209272  35.4831648  29.4438338  72.7348709  35.7015705  29.4533372
  74.3016863  35.8257008  28.6918426  76.8340778  33.3536959  33.5444856
  75.9076500  32.9772758  34.2100596  78.1334829  33.1740189  33.8615894
  78.8154221  33.4912372  33.1874681  78.5614061  32.7284026  35.2380919
  78.0856752  31.7831326  35.4993296  79.6443892  32.6131749  35.1937246
  78.2471180  33.7562823  36.3321376  77.8655100  33.3287144  37.4361515
  78.5130692  35.0077844  36.0087276  78.8256836  35.2375317  35.0762105
  78.2460213  36.1538601  36.8608999  78.7132311  35.9237695  37.8184366
  78.8339901  37.4010468  36.1934614  79.8147535  37.5468683  36.6461635
  78.9578819  37.2194982  35.1258469  78.0855846  38.7095714  36.4458179
  78.4277439  39.5013499  37.5996947  79.2375231  39.1663814  38.2309222
  77.6890182  40.6326818  37.9198766  77.9689264  41.1783266  38.8088822
  76.6014481  41.1030149  37.1268892  75.9984589  41.9668674  37.3647189
  76.3015890  40.4202986  35.9552550  75.4251814  40.6474257  35.3664231
  77.0172358  39.2344546  35.6070757  76.8202496  38.6668038  34.7096515
  76.6935110  36.2327313  36.9568038  76.1955357  36.4374948  38.0554748
  75.9895706  36.1673403  35.8320856  76.3932991  36.1836481  34.9064302
  74.5819473  36.1456513  35.8835053  74.2545795  37.0902848  36.3177872
  73.9141369  35.9659600  34.4844484  74.1423702  35.0315428  33.9717269
  72.8568172  36.2006474  34.3615723  74.4585180  36.6356421  33.8186598
  74.0395880  34.9757862  36.7808414  73.1226778  35.1844430  37.5554442
  74.6390295  33.7587142  36.6380715  75.2463341  33.6096907  35.8449292
  74.1334391  32.6248503  37.3799658  73.0574083  32.5731373  37.2138834
  74.8263359  31.2949467  36.9961667  75.9139824  31.2705564  37.0634556
  74.3787289  30.5763364  37.6827168  74.4832230  31.0667109  35.9870672
  74.2316628  32.8278208  38.9116144  73.2583284  32.5209355  39.6209669
  75.3628349  33.3891654  39.4037700  75.9356165  33.8274646  38.6967206
  75.5108118  33.8115954  40.8260679  75.4500771  32.9428267  41.4815474
  76.8731260  34.5339990  41.0807085  77.1426868  35.1079082  40.1941013
  76.7073393  35.2722979  41.8652630  77.9794550  33.5800433  41.5278053
  77.9250860  32.3398185  41.4418173  79.0667486  34.1641307  41.8898344
  74.4714355  34.8318124  41.1912823  73.8453531  34.7210193  42.2835875
  74.1305637  35.8541369  40.3275585  74.4686794  35.9240389  39.3784046
  73.0769300  36.8669367  40.6804848  73.3520842  37.2097230  41.6779327
  73.1671953  38.0890131  39.6830416  73.1526756  37.6146603  38.7017775
  71.9047260  38.9693284  39.9010611  72.0338678  39.7257543  39.1269541
  70.9661293  38.4164214  39.8630619  71.9311047  39.4782233  40.8646107
  74.3518066  39.0233707  39.9646711  74.4444466  39.7861719  39.1915941
  74.1574860  39.5760798  40.8838272  75.2550840  38.4176421  39.8920584
  71.6990423  36.2024736  40.7870626  70.8891726  36.5629911  41.6891050
  71.4031172  35.2683878  39.8498654  72.1121597  34.9226522  39.2191339
  70.1499319  34.4676852  39.7425079  69.2745161  35.1125598  39.8192120
  70.0963354  33.6423683  38.4035230  71.0587883  33.1565261  38.2430840
  69.3807650  32.8208995  38.4388089  69.9414396  34.5600486  37.2184825
  68.9151859  34.9273086  37.2239304  70.6373644  35.3972268  37.2724819
  70.2515030  33.9425969  35.7843184  71.3196135  34.0379524  35.5889893
  69.8263550  32.9403663  35.7306838  69.6760845  34.7545195  34.7616148
  69.0091991  35.4474831  35.0701070  69.9394751  34.8799467  33.4805942
  69.3286657  35.7613850  32.7501059  68.6527634  36.3887024  33.1620979
  69.6269798  35.9365010  31.8011904  70.8071947  34.1320896  32.8860044
  71.2787771  33.3588767  33.3330488  70.7436848  34.1927958  31.8798327
  70.0419474  33.4905171  40.9006548  68.9443064  33.3298850  41.4090300
  71.1184645  32.9620218  41.4217663  71.9963646  33.1026316  40.9425783
  71.1164522  32.1556807  42.6701546  70.3061819  31.4293933  42.6063442
  72.5002384  31.4142728  42.6900625  72.4958706  30.7153535  41.8536472
  73.2873821  32.1551228  42.5499058  72.8297281  30.6335282  44.0250921
  72.5299311  31.2580013  44.8666716  72.0257187  29.3562841  44.0850163
  71.0059452  29.6996880  44.2589331  72.1492863  28.8473797  43.1290627
  72.2814178  28.5899067  44.8167181  74.3515921  30.4934335  44.1706610
  74.8947763  31.4070868  43.9292097  74.4814444  30.2319837  45.2208424
  74.7808933  29.7296190  43.5222864  70.8425426  32.9791021  43.9811134
  70.0533867  32.5212502  44.8563385  71.3903141  34.2004228  44.0351486
  72.0701838  34.4215488  43.3217192  71.0602522  35.1705551  45.0480032
  71.2544680  34.7061682  46.0148191  71.9028282  36.4618182  44.9645424
  72.8605843  36.0743165  45.3118801  71.8362331  36.8046522  43.9320087
  71.4136267  37.6102948  45.9359074  70.3299761  37.7218533  45.8991528
  71.6209698  37.3506260  46.9740200  72.0248938  39.2962837  45.5798197
  70.9439898  39.6217299  44.0865612  70.7491493  38.6990190  43.5399914
  69.9591780  39.9333334  44.4346333  71.3126755  40.4048872  43.4241152
  69.5448399  35.4554820  45.0901937  68.9624596  35.5755663  46.1814022
  68.9414644  35.6884623  43.9121199  69.4300508  35.8823109  43.0496740
  67.4667597  35.9457588  43.9035511  67.2213602  36.6067624  44.7347927
  67.0524406  36.5514636  42.5478792  67.6794147  36.0345387  41.8213797
  65.9832048  36.3960266  42.4040890  67.2403479  38.0600429  42.3173761
  66.8705893  38.9947891  43.2962322  66.2666178  38.5976076  44.0986443
  67.1278620  40.3402948  43.1290674  66.8412638  41.0542202  43.8870764
  67.8922081  40.7976675  42.0338964  68.0307913  41.8646002  41.9398355
  68.3219624  39.8077869  41.1079597  68.8144541  40.1048803  40.1938581
  67.9563856  38.5087299  41.1907053  68.2893467  37.8839064  40.3751469
  66.6324806  34.6523976  44.2443609  65.6290865  34.6992254  45.0028992
  66.9366741  33.4874034  43.6049986  67.6008368  33.4105825  42.8479767
  66.3589144  32.1311164  43.8879538  65.3882217  32.0457482  43.3995152
  67.2688818  31.0809731  43.2330418  67.3857975  31.3492346  42.1830559
  68.1994057  31.0915446  43.8006020  66.7110062  29.8064756  43.2637978
  65.9075451  29.7221971  42.7451944  66.2455797  31.8137026  45.3701496
  65.2353859  31.3852644  45.7718849  67.2940826  32.1181798  46.0936213
  68.1338978  32.3804307  45.5976057  67.3425674  31.9293547  47.5161314
  67.1532536  30.8735490  47.7098942  68.7133503  32.3329163  48.0512381
  68.9493275  33.2950425  47.5965595  68.6340380  32.3075533  49.1380548
  69.8453617  31.3395548  47.7180862  69.5573092  30.2558851  47.3418665
  71.0893774  31.7196250  47.8726912  71.8829679  31.1010242  47.7852583
  71.2550783  32.5946498  48.3491087  66.2696743  32.7729201  48.2646227
  65.5342102  32.2437501  49.0976858  66.1254406  34.0947294  47.9137278
  66.6613579  34.3887067  47.1096992  65.0662327  34.8967123  48.4556961
  65.2438021  35.0869751  49.5141745  65.1398325  36.3154578  47.8354692
  66.0276794  36.8231559  48.2123947  65.2932501  36.1889386  46.7637634
  63.7216091  37.2948241  48.2718801  64.4493198  38.4151196  48.2883501
  63.6319399  34.2273188  48.3034945  63.0126238  33.9565802  49.3044901
  63.2507038  33.9536548  47.0636654  63.8643503  34.2041707  46.3015747
  62.0148230  33.2998490  46.6981554  61.2281942  33.9418292  47.0946169
  61.8783569  33.2549572  45.1413107  62.5120020  32.4932742  44.6869612
  60.8216763  33.0424333  44.9789715  62.1291161  34.5866346  44.3717051
  61.7930841  35.8217716  44.9315262  61.3480616  35.9664249  45.9048843
  62.1667480  37.0367193  44.3372774  62.0150185  37.9843211  44.8326874
  62.8810596  36.9625282  43.1303501  63.2130766  38.0890131  42.5107050
  63.3825350  37.7765131  41.6189480  63.2264185  35.7597923  42.5429821
  63.6958647  35.7420063  41.5705109  62.8892946  34.5495510  43.1884384
  63.0575657  33.6515093  42.6125765  61.8433857  31.8897080  47.3191881
  60.7184553  31.6062236  47.8124332  62.8760958  31.0374880  47.4291897
  63.7370777  31.3038206  46.9732523  62.7031994  29.7554111  48.1348133
  61.8191433  29.2021537  47.8178835  63.8530302  28.8384318  47.7313662
  64.1230583  29.1087151  46.7105198  64.7402477  29.1304874  48.2931948
  63.6162519  27.3469639  47.8098679  63.4640646  27.1130395  48.8635349
  62.6194143  27.2124147  47.3899651  64.6951103  26.3660955  47.2336769
  65.5649042  26.4916849  47.8784990  64.4461107  25.3063798  47.2893524
  65.1448298  26.7228985  45.8257484  64.2855358  26.6868567  45.1561069
  65.4865789  27.7572298  45.8642101  66.2806606  26.0064697  45.2563620
  66.2022924  25.8742213  44.2581272  67.1596766  26.4134026  45.5424356
  66.2880993  25.0789666  45.6560946  62.6198959  29.9171233  49.6723080
  61.8305302  29.1817522  50.1837873  63.2650900  30.8858037  50.3094721
  63.9685583  31.4674282  49.8770952  63.2162046  30.9630871  51.7812443
  63.2716751  29.9628639  52.2108650  64.4992638  31.6953325  52.3161364
  65.3001261  30.9642291  52.2056675  64.8277998  32.4599886  51.6122437
  64.3681765  32.2324014  53.6874914  64.3838930  31.3922954  54.7856522
  64.6763420  30.3607655  54.6559334  64.0673256  31.8374920  56.0600853
  64.2903519  31.2347150  56.9280243  63.7046003  33.1936836  56.1934805
  63.4171915  33.7279558  57.4468517  63.5522890  33.1279826  58.1839943
  63.7919664  34.0323877  55.0773621  63.5604572  35.0776887  55.2193165
  64.1310358  33.5957766  53.8308334  64.1709900  34.3198013  53.0304670
  61.9077635  31.7218947  52.2345924  61.2443876  31.2382889  53.1760645
  61.5460539  32.7958870  51.6109037  62.0992994  33.1658196  50.8511877
  60.5397749  33.6856985  52.1968365  60.7130623  33.6775613  53.2729435
  60.6869936  35.0954890  51.6773033  60.6114483  35.0996804  50.5899334
  59.9115324  35.7701039  52.0401478  61.8806601  35.8549953  52.2604895
  61.9626999  36.1150360  53.4502459  62.9058790  36.2497139  51.4744377
  63.6916590  36.6023421  52.0019865  62.9209852  35.9680820  50.5046177
  59.0876198  33.2329130  51.9965315  58.8715649  32.3519111  51.1814499
  58.0972767  33.8875723  52.6170540  58.1484413  34.7110176  53.8146925
  58.1817198  35.7553077  53.5041189  58.9964247  34.5551896  54.4815826
  56.7732811  34.4789147  54.4887400  56.5775824  35.2971339  55.1817942
  56.6749620  33.5227394  55.0027084  55.7939863  34.4439769  53.2735872
  55.4510021  35.4443955  53.0097246  54.9028158  33.8597846  53.5030079
  56.6586113  33.7103796  52.2290421  56.3838291  32.6556063  52.2359085
  56.3506699  33.9921618  50.7567692  57.1595001  34.6858478  50.0815487
  55.2719355  33.4210205  50.0800323  54.3115807  32.4959588  50.7080126
  53.4560823  33.0287528  51.1231756  54.8004532  31.7187023  51.2953615
  53.6813545  31.7553091  49.5569897  52.6797342  31.4342260  49.8429298
  54.2222118  30.8563185  49.2613649  53.6513901  32.8111601  48.4618425
  52.8593206  33.5147142  48.7182474  53.5303450  32.4062872  47.4570942
  54.9979544  33.5583997  48.6649323  55.7649755  33.0011344  48.1271219
  54.8804665  35.0092673  48.1713867  55.1462126  35.3560686  46.9940281
  54.3061256  35.9075475  49.0138531  53.7710381  35.6124187  49.8180151
  54.1945839  37.3665023  48.6409903  54.9704552  37.7126503  47.9581213
  52.7905178  37.5807405  47.9324722  52.6758289  38.6486411  47.7466393
  52.8358412  37.2340941  46.9000578  51.4716053  37.1209741  48.5761976
  50.7455444  37.9659081  49.1649675  51.1152887  35.9068871  48.4482002
  54.4124222  38.1486249  49.8841619  53.7570620  37.9225087  50.9527445
  55.3017235  39.1143298  49.8360586  55.8782291  39.2346001  49.0155268
  55.9705639  39.5452952  51.1061144  55.1856565  39.7808623  51.8248177
  56.8411350  38.3630419  51.6087103  56.1410332  37.6445413  52.0349836
  57.4249220  37.9323244  50.7952118  57.7434444  38.7250543  52.7089357
  59.0830517  38.8772440  52.5750637  59.5294476  38.6743283  53.8141203
  60.5978918  38.6132216  53.9593458  58.5650778  38.6308622  54.7716570
  58.6649895  38.5133839  55.7698154  57.3614359  38.7477684  54.0306377
  56.3805485  38.5818958  54.4510508  56.8431759  40.8662701  50.8590651
  57.2476530  41.1148882  49.7158766  57.1463919  41.6491270  51.9949341
  56.7566967  41.4356613  52.9019547  58.0572414  42.8407574  51.9435978
  57.6123095  43.6456299  51.3585234  58.3091259  43.4072447  53.3156061
  58.7605953  42.6466799  53.9526463  58.9864254  44.2564106  53.2245731
  57.1516275  44.0260649  54.0463686  57.5335455  44.5668125  54.9122953
  56.6990471  44.8309088  53.4671402  56.0723019  43.1221628  54.6429539
  56.2127829  41.8868923  54.6906519  55.0615263  43.5971642  55.1638937
  59.3728590  42.5296164  51.1891270  59.6395636  43.2026243  50.2004623
  60.1513624  41.5352297  51.6002607  59.8714638  40.9407377  52.3672867
  61.5009832  41.2203789  50.9609556  62.1247530  42.1065235  50.8436346
  62.3797274  40.3234339  51.9363689  61.8140697  39.4325113  52.2091198
  63.6900520  39.8111629  51.3544559  64.2114830  39.1455150  52.0422983
  63.5247231  39.1434765  50.5089045  64.3126774  40.6503725  51.0443544
  62.6473570  41.1286354  53.2762384  61.7157602  41.2912989  53.8182402
  63.3013391  40.5609322  53.9381504  63.1342220  42.0757484  53.0437565
  61.3652802  40.6559086  49.5664692  62.2005558  40.9825039  48.7316418
  60.3424788  39.8098087  49.3659306  59.7597170  39.5786214  50.1577902
  60.0259113  39.3862557  48.0401802  60.8235025  38.8543534  47.5215054
  58.8077831  38.4888244  48.1326914  58.0080557  39.0231729  48.6455345
  58.2785749  38.1764674  46.7522907  58.9214182  37.5174427  46.1687374
  57.4267006  37.5214696  46.9350338  57.9236317  39.0390062  46.1882496
  59.2122459  37.1370649  48.8677740  58.3261824  36.5122414  48.9799595
  60.0562382  36.6496205  48.3797359  59.5097828  37.2884250  49.9053955
  59.7373009  40.6362677  47.1808529  60.3979921  40.6823349  46.1082268
  58.8793135  41.5851593  47.4579144  58.2238340  41.4333248  48.2111692
  58.6546707  42.8317785  46.6802168  58.4139729  42.5139570  45.6657457
  57.4769449  43.6246014  47.3262548  57.1028185  44.4971275  46.7906952
  56.6164494  42.9759264  47.4901819  57.7965355  43.9497805  48.3163118
  59.9224758  43.7124491  46.4885998  60.0552797  44.2989635  45.4349422
  60.7809973  43.7953186  47.5010109  60.5119848  43.3842802  48.3834982
  62.0301104  44.5358133  47.4381113  61.8332863  45.5377388  47.0566559
  62.7165890  44.6570396  48.7791729  62.5619745  43.7136602  49.3028450
  63.7378073  45.0234938  48.6746550  62.0616674  45.7831049  49.6752882
  62.0347404  46.6778517  49.0533495  61.0020351  45.6059504  49.8593950
  62.8688145  46.2166214  51.2601233  62.3059845  44.7730541  52.1600628
  63.0781126  44.0235376  51.9864559  62.2646523  45.0418758  53.2155848
  61.2904024  44.5371008  51.8422318  63.0601835  43.8549900  46.4875221
  63.6338329  44.4951296  45.6788445  63.0929184  42.4935865  46.4536190
  62.5940275  42.0249176  47.1962833  63.8908434  41.6653204  45.5035448
  64.8414803  42.1761417  45.6566954  63.8278818  40.1775885  45.9390497
  64.7237301  39.7154975  45.5242872  63.8660049  40.1401472  47.0277452
  62.9452896  39.7146797  45.4976368  63.4872007  41.9021416  44.0550470
  64.2894745  42.1082067  43.2269049  62.1987963  41.8747234  43.8457489
  61.6361713  41.7468071  44.6747160  61.5530443  41.9323301  42.5416803
  62.1046829  41.2275314  41.9195414  60.0733709  41.6024113  42.6662016
  59.7516060  41.8089819  43.6869335  59.4514990  42.0984316  41.9209862
  59.8427153  40.0698709  42.3987627  59.9420881  39.7523189  41.3607931
  60.5662727  39.5526433  43.0288839  58.4105110  39.7086930  42.8309822
  58.4062052  39.9225736  43.8997841  57.6032734  40.2484131  42.3358297
  58.0642128  38.3399582  42.6718903  58.5801411  37.7443743  42.0400620
  57.0339823  37.7920222  43.2414961  56.9985867  36.5022087  43.2781839
  57.7628708  35.9748292  42.8808928  56.2944889  36.0981822  43.8791037
  56.1586046  38.4417081  43.9059639  56.1807537  39.4290805  43.6945105
  55.3045321  37.9468608  44.1199350  61.8132544  43.3230686  41.8442869
  62.1550465  43.3141041  40.6240511  61.8467474  44.3887520  42.5702095
  61.7783594  44.2737103  43.5713100  62.2596169  45.6733894  42.0521927
  61.7568064  45.9297323  41.1196804  61.9231081  46.7423773  43.0859280
  60.8595562  46.6339350  43.2985449  62.5136042  46.5955305  43.9902782
  62.2695208  48.1600332  42.6004124  62.0045805  48.8872004  43.3679676
  63.3457470  48.1475210  42.4281168  61.6145706  48.6786366  41.3216305
  61.9529486  48.0417442  40.5043364  60.5251551  48.6429930  41.3225985
  62.0604086  50.1238585  41.1908531  61.8708563  50.6129742  42.1463299
  63.1453562  50.1284933  41.0861397  61.4260530  50.7182455  40.0450277
  60.4566288  50.7655239  40.3244543  61.7890406  51.6518831  39.9159598
  61.5485382  50.0672770  39.2825651  63.7193155  45.6639814  41.6756296
  64.0788937  46.2096500  40.6692171  64.5709658  45.0715303  42.4354315
  64.2482710  44.6085787  43.2730722  66.0693550  44.9885035  42.1062517
  66.4417887  45.9792852  41.8459845  66.9089842  44.6594048  43.3627844
  66.5346622  45.2819395  44.1754532  66.6610622  43.6158562  43.5567904
  68.4241438  44.8321676  43.1592989  68.7534904  44.1785860  42.3515463
  68.8018131  46.3058043  42.7959108  68.4771538  46.3932943  41.7590666
  68.3974648  47.1166515  43.4018230  69.8845243  46.4157438  42.7347326
  69.2202806  44.4402456  44.3828821  68.8893604  43.5226965  44.8693943
  70.2699041  44.3106604  44.1190672  69.2080450  45.1771307  45.1859713
  66.3252401  44.0226460  40.9535170  67.2047853  44.2291689  40.1893854
  65.3515863  43.1310320  40.7528687  64.6671295  43.0010986  41.4841270
  65.3625822  42.1775150  39.6436286  66.4162540  41.9530344  39.4778347
  64.5940208  40.8637953  40.0052500  64.8791170  40.4912853  40.9891462
  63.5238075  41.0648727  40.0533199  64.7533894  39.7555900  38.9679956
  64.4376183  40.1721573  38.0115128  65.7855368  39.4149613  38.8858581
  63.8522243  38.5856533  39.3535042  64.2718172  37.6389790  40.0896692
  62.6045227  38.5392427  38.9857101  62.0713615  37.8066659  39.4319987
  62.1001530  39.2430925  38.4658003  64.9159670  42.8570175  38.3105397
  65.5967808  42.7645111  37.3440838  63.7966061  43.6123943  38.3483100
  63.3273745  43.6424971  39.2421865  63.3980131  44.5916414  37.3254466
  63.0087852  44.1265011  36.4197707  62.1432400  45.3954172  37.8759289
  61.4293814  44.5781422  37.9786849  62.4240541  45.8157206  38.8416386
  61.5107059  46.3494396  36.8677568  61.6898060  46.3183784  35.6496549
  60.8732224  47.3098660  37.3303056  64.5644236  45.5509615  36.9248700
  64.7311020  45.8065701  35.7235169  65.3298998  46.1525011  37.8658676
  64.9668312  46.1290550  38.8080668  66.5235043  46.9226980  37.5159621
  66.2122250  47.7370405  36.8616962  67.1781158  47.5874853  38.7462544
  67.2269917  46.8436861  39.5415401  68.5891533  48.1958246  38.4906220
  69.2061615  47.3005486  38.4138703  68.6266613  48.8139629  37.5936294
  68.9211178  48.9194584  39.2351031  66.2077761  48.7504244  39.3346596
  65.2678871  48.3274794  39.6893811  66.6577864  49.1154385  40.2578926
  66.0855675  49.4569063  38.5136533  67.5515890  46.0235929  36.8064809
  68.0488825  46.3249207  35.7768536  67.7154875  44.7985268  37.2746921
  67.2542334  44.6061039  38.1523705  68.7323046  43.8591146  36.6599417
  69.6743965  44.3955660  36.5468884  69.0092659  42.6343918  37.5651598
  69.4527578  43.0669117  38.4620070  68.1084585  42.0872450  37.8431535
  70.0292349  41.5972805  37.0244622  71.3912821  42.0205212  36.7936420
  71.7658329  43.0158377  36.9819784  72.1789265  41.0178423  36.1603594
  73.1739998  41.2892914  35.8401299  71.7471123  39.7478747  35.8129144
  72.3555565  39.0737081  35.2283645  70.4593420  39.2918706  36.2575340
  70.1006508  38.2788873  36.1497879  69.6093321  40.2667236  36.8029976
  68.5997820  40.0024700  37.0811796  68.4193277  43.4336090  35.2514434
  69.2428446  43.5712337  34.3521571  67.2200871  42.8488588  35.0719738
  66.6696024  42.9042292  35.9169602  66.7216396  42.2205400  33.8203764
  67.4250031  41.4359093  33.5415483  65.2709103  41.7931747  33.8726497
  64.6421623  42.5468493  34.3467355  64.9035263  41.7164421  32.8493023
  64.9976397  40.4621363  34.4836879  65.3696012  40.4589558  35.5082536
  63.9170408  40.3484678  34.5702147  65.5788183  39.2691517  33.7007618
  66.2453699  38.4152198  34.3557644  65.1432037  39.1290569  32.5073123
  66.8403387  43.2456589  32.7219987  67.3389959  42.9192877  31.6528702
  66.3951111  44.4866037  32.9714966  66.2607193  44.7587013  33.9348245
  66.6625834  45.5965519  32.0227075  66.1839056  45.3341436  31.0792494
  66.1681175  46.8566704  32.7097034  65.1742983  46.6331100  33.0975723
  66.8359041  47.0894098  33.5391617  66.0183048  48.0561733  31.7731595
  66.1145306  47.7264452  30.7386923  65.0403833  48.4980297  31.9643116
  67.2189426  49.3387890  32.1165800  67.0438576  49.7479773  33.8949966
  66.0026598  49.9131060  34.1720200  67.4602413  48.9475918  34.5066452
  67.6963091  50.5969286  34.0991688  68.1740475  45.7982969  31.7293501
  68.5558653  45.7514334  30.5152678  69.0409136  46.0157156  32.6752424
  68.6504364  46.2202501  33.5839748  70.5084276  46.3535023  32.5283217
  70.6102657  47.2537136  31.9222331  71.0864305  46.7025042  33.9806175
  70.6400299  46.0788298  34.7551227  72.1687174  46.5755653  34.0059829
  70.6374931  48.0897808  34.2013359  71.0485744  48.6560297  33.3655858
  69.5496082  48.1488562  34.2347074  71.0266829  48.6648369  35.5499959
  70.3929281  48.1818104  36.2937307  72.0599604  48.5409307  35.8741593
  70.6821442  50.0979376  35.5773807  69.8776054  50.3487301  36.1340928
  71.2117863  51.1315870  34.8836231  72.3555994  51.0965300  34.2519641
  72.8741121  50.2378559  34.1339612  72.8268862  51.9849873  34.1590667
  70.6456757  52.3090935  34.9495864  69.8329926  52.3852015  35.5444431
  70.9191656  52.9450655  34.2141676  71.3808727  45.3591967  31.8033481
  72.2824526  45.6831741  31.0136271  70.9972858  44.1219521  32.0892620
  70.2743816  43.9524698  32.7739406  71.6048622  42.9535770  31.4524245
  72.6898766  43.0492020  31.4111757  71.2201691  41.7556429  32.3442030
  71.3218403  42.1291065  33.3631706  70.1839161  41.4383602  32.2275543
  72.0501184  40.5304241  32.1598482  73.4531879  40.7151222  32.3768044
  73.7385273  41.6816425  32.7651644  74.3523979  39.7079754  32.2164154
  75.4168797  39.7954512  32.3765016  73.8328648  38.4870362  31.7552137
  74.5384026  37.6815796  31.6142678  72.4226665  38.3417630  31.4325333
  72.0880079  37.4257541  30.9684873  71.4920044  39.4218969  31.6178083
  70.4608917  39.3814445  31.2990904  71.1897564  42.6553392  29.9624014
  72.0018673  42.3318672  29.1713285  69.8824549  42.7823496  29.6545672
  69.2531919  43.0243158  30.4066181  69.4008398  42.6995325  28.2629561
  69.6491289  41.7299223  27.8313112  67.9178476  42.7771187  28.4074163
  67.4010611  42.9261732  27.4593616  67.4811697  41.9092989  28.9016819
  67.6390171  43.6906815  28.9325285  69.9783611  43.7817717  27.3780370
  70.1338291  43.6620808  26.1785674  70.2639771  44.9665403  27.9916716
  69.9144220  45.0051260  28.9384651  71.0381794  46.1749649  27.4850416
  70.6872749  46.4529896  26.4912248  70.6751299  47.3372555  28.4474587
  70.5858088  46.9560623  29.4647169  71.4629698  48.0905199  28.4493136
  69.3715858  47.9044580  27.9294825  69.5054626  48.2623911  26.9086671
  68.6523008  47.1337557  27.6524282  68.7834263  49.0598679  28.7560034
  67.7053452  49.1579676  28.6286545  68.9190102  48.7394953  29.7889972
  69.3995619  50.4175282  28.4449458  69.5392942  50.9697199  29.3742800
  70.4311180  50.1785707  28.1863093  68.8227749  51.1726618  27.3371243
  69.1803789  52.1111631  27.2301412  69.1695023  50.8025074  26.4637041
  67.8130341  51.1670208  27.3592925  72.5346518  45.9376240  27.3952293
  73.1202698  46.7365742  26.6405916  73.0606318  44.7794580  27.7038836
  72.6197815  44.1352415  28.3447719  74.4656801  44.4541407  27.3618364
  75.1114607  45.2644539  27.7001572  74.8949909  43.1691837  28.0857301
  74.8122978  43.3897066  29.1499805  74.2494822  42.3601341  27.7438664
  76.3276958  42.6460552  27.7780890  76.5383673  42.2653961  26.7786813
  76.9981194  43.4988260  27.8849268  76.9308233  41.4081573  29.0636611
  75.7808638  40.0080919  28.8149095  76.1169386  39.5764470  27.8721261
  75.9261417  39.3608785  29.6798444  74.7796679  40.4279757  28.7179232
  74.5793009  44.2624044  25.7933855  73.7756300  43.4864140  25.3293800
  75.5259705  44.8619795  25.0988626  76.4655018  45.7976103  25.5973077
  77.2883320  45.1793337  25.9561777  75.9991121  46.4012289  26.3759112
  76.9631290  46.6519165  24.3798733  78.0497360  46.7293739  24.4171667
  76.5292883  47.6420689  24.5194483  76.3561296  46.0108805  23.1586933
  77.2027111  45.7007790  22.5461340  75.7577324  46.7389870  22.6110721
  75.5787849  44.8249769  23.6033916  74.5590782  45.0204992  23.2715988
  76.0616636  43.5587120  22.9399824  76.9768906  42.8909159  23.4272695
  75.4682446  43.1974983  21.8836808  62.4671984  64.5945120  36.6890383
  29.6044755  67.6995993  70.1617146  87.2025967  59.3060589  41.7037296
  66.4974165  62.6626587  43.0197334  41.9623137  57.9195023  61.8665266
  44.2336130  89.0794277  83.7814331  93.1452560  52.2575426  28.8944316
  31.2597394  88.7227917  85.6731224  77.2566366  54.1632700  70.9469223
  18.5173130  33.5346419  26.2969286  18.6169529  34.1970069  26.9807130
  19.2696238  32.9545028  26.4139825   0.6081621  62.0051481  17.7910024
   1.5052215  61.6739561  17.8337938   0.1286928  61.3356449  17.3030359
  75.8800562  70.4509069  22.7500230  76.1264428  69.9770369  23.5443574
  76.3748559  70.0218285  22.0519525  76.9772633  96.0979713  40.7526380
  77.8279408  95.7326044  40.9957201  76.3667496  95.3668131  40.8470518
 103.5129642  32.7073193  87.6272106 103.4954071  31.7509818  87.6638412
 103.2757759  32.9168010  86.7238331  97.5664719  72.7760281  56.9736272
  97.7413281  72.8074111  56.0330659  97.0861777  73.5838903  57.1550447
  36.6950313  59.1384698  10.0956327  36.1883156  58.9067502   9.3173200
  36.1780159  59.8209442  10.5236036  45.2017450  51.2674332  72.9932404
  45.6379032  50.9576225  73.7869740  45.3247976  52.2165871  73.0072546
  77.0623883  95.7199444  19.3809301  77.6543149  95.2895178  19.9978525
  76.8359431  96.5480102  19.8043233  18.4949780  28.9749104   3.8988954
  18.6930847  28.0538899   4.0683157  19.2965269  29.3246562   3.5097581
  15.3274910 101.1008181   9.7237093  15.8384315 101.9076313   9.7887498
  15.5562870 100.7408585   8.8667852  73.4100040  75.5711473  26.5866548
  73.7381586  76.4447488  26.7996580  72.8123125  75.7122411  25.8524305
  37.2050190   8.3403260   5.1343805  37.0897627   7.8388936   5.9415418
  37.8430462   7.8368909   4.6287042  23.7427282  23.3235127  33.2661611
  23.1597090  22.5662000  33.2132703  23.7301254  23.5713822  34.1906244
 105.2148636  97.7831711  35.4650957 105.3341540  98.7322248  35.5011064
 105.0869521  97.5230612  36.3773519  20.1029396  50.7466704  30.2358705
  20.0944996  51.5825755  29.7695905  19.5038986  50.8764655  30.9710771
  87.9010781  88.7191857  58.2861883  88.0341013  88.2135428  57.4843961
  88.4869107  88.3133997  58.9252264  85.1347065  55.3078747  79.2475939
  84.6912193  56.1363697  79.0655279  84.7360802  54.9963427  80.0601673
  12.9172126  80.5310048  16.9739801  13.7993614  80.7017387  17.3039514
  12.3476879  80.6675447  17.7311021  83.2242449  97.6514257  10.4425127
  82.4253233  97.8248657  10.9403879  83.8114031  98.3712400  10.6734735
  87.3299980  37.7647901  79.2946053  86.6778088  38.0065966  79.9521828
  87.2453308  36.8149924  79.2112541  32.0009804   7.5023229  58.4128458
  32.4298430   6.6557462  58.2878572  31.8867779   7.5753838  59.3603975
  26.5812349   9.0103967  21.2850076  26.8395186   8.0892283  21.3161069
  25.6555987   9.0079648  21.5287763  39.0499592  27.0100028  26.4485342
  38.6283636  26.3415105  26.9885427  39.8879719  27.1738774  26.8811018
  60.1727565  89.2096104  25.7749826  60.7259043  89.9280991  26.0816366
  60.7903894  88.5476722  25.4641801  15.3359310  87.8446449   7.4059087
  14.4381420  87.9245938   7.0837003  15.7390396  87.1927751   6.8324834
   3.6902324  77.0388616  27.2859460   2.8931705  76.5431513  27.0983488
   3.8658849  76.8686952  28.2113725  82.5205668  68.7712838   7.4206811
  82.7464255  69.6400691   7.7529890  81.5639552  68.7471737   7.4439699
  16.3342277  86.7980040  10.0613767  15.9348385  87.3164405   9.3628389
  16.8234722  87.4347128  10.5824071  49.3628788  11.1770923  67.8491193
  49.0327072  10.7656628  68.6478311  48.9920044  12.0594079  67.8632528
   5.7938520  96.4486326  44.8076231   5.3343240  95.9252085  45.4641992
   6.3018171  95.8111729  44.3057806  35.8253765   4.9245126  40.2423173
  35.1631069   4.7903401  40.9202749  35.4480124   4.5280320  39.4570524
  23.0906439  14.4829757  18.6642248  22.1574879  14.5323855  18.4568388
  23.2891178  13.5466391  18.6535722  11.8696690  20.9488112  79.4218713
  11.5444327  20.2038342  79.9272996  12.3171425  20.5535895  78.6736757
  17.2668449  97.0073999  40.5582315  17.8506366  96.7054905  41.2541276
  16.5783302  96.3436283  40.5184156  94.7539767  98.7259258   6.8428880
  95.0091322  98.8925518   5.9354955  95.4693993  99.0908064   7.3637277
  78.4084272  23.3166385  87.1681309  78.3593798  23.9540434  87.8805542
  78.7881851  23.8036036  86.4367771  98.3902272  92.7196945   8.9864809
  98.7772044  92.1370567   8.3330137  99.1354760  93.0341019   9.4983179
  39.2177487  27.3990018   0.2444536  38.9239788  26.7395121  -0.3840464
  39.5458174  26.8924481   0.9874231  73.8746174  99.5435060  39.2675287
  73.3608635 100.3507580  39.2926199  73.6962303  99.1198839  40.1071531
 101.9467585  16.8436391  23.9792425 101.1151211  16.4781768  23.6774999
 102.5097744  16.8287951  23.2052785  92.7832087  73.8590802  67.9714757
  92.9810627  73.2805599  68.7079603  93.3533772  74.6167482  68.1021768
  98.7544926  99.9590839  72.1072465  99.5114048  99.6784033  72.6215822
  98.9201029 100.8835234  71.9222719  72.2097015  57.9310560  75.9362459
  71.9882965  58.5315323  76.6480303  73.0934048  57.6279926  76.1447001
  76.0035038  29.6307570  14.1249353  75.0811577  29.3760497  14.0997583
  76.4676285  28.8884169  13.7379724   1.4636374  16.6939647  31.1853487
   1.3800407  16.8528611  30.2451402   2.1784854  17.2670466  31.4624864
  73.7100943  74.2043485  31.8810541  73.4786924  74.1373290  32.8074438
  73.8339575  75.1417769  31.7323381  95.8379372  53.9047955  29.5774442
  96.1613472  53.7351675  28.6926538  94.9784573  53.4842332  29.6030313
 101.3310870  93.3875956  31.5618116 100.6931408  93.4543098  32.2723085
 101.0747918  94.0729202  30.9446603  67.4232578  42.3472881  84.4215012
  68.3373022  42.6217842  84.4950294  66.9723225  43.1104279  84.0602398
  10.3915787  25.6080014  21.5482408  10.4978037  25.6872041  20.6002599
  10.7743454  26.4116818  21.9001180  74.0512951  93.9372028  21.3606054
  74.7915443  94.3474115  20.9133989  73.5748991  93.4814609  20.6666452
 102.2184523  52.4795295   2.9591447 101.3498839  52.0796822   3.0032331
 102.1410902  53.1456578   2.2761232  42.8503084   1.0117823  13.1075174
  43.5217858   1.1742837  12.4449903  43.1063509   0.1816470  13.5094434
  93.0388936  50.7821490  11.9728452  92.8806885  51.6466604  12.3520929
  93.2673558  50.9590764  11.0603029  25.7020188   0.0868995  17.5706274
  24.9153900   0.5571229  17.2943193  25.3928709  -0.5256503  18.2380373
  32.0399523  13.5117251  42.2348291  31.3489485  13.8480002  41.6641599
  32.2380972  14.2387683  42.8250677  81.0131224  78.9954819  41.0078031
  81.0109051  78.3641542  41.7272836  81.4926156  79.7490825  41.3518983
  54.1924858  21.5582234  48.2429105  53.2813358  21.8410785  48.3206064
  54.7038365  22.3525674  48.3970529   3.1986928   2.6297290   7.9745466
   3.6671019   1.8120343   7.8066236   2.3230076   2.4818141   7.6174337
  87.7171477  69.5280971  39.1025430  88.4082612  69.9819387  38.6202318
  87.0755967  70.2103282  39.3005449  59.6310711  23.5099173  69.9151468
  60.5319500  23.7471581  69.6952200  59.1325521  23.6998272  69.1203880
  24.9223423  32.2787864   7.4201566  24.3444872  32.5608165   6.7110902
  25.4086065  31.5403277   7.0534784  46.4881420  17.0838315  31.6565210
  46.9858456  16.8195397  32.4302560  47.0366955  16.8208033  30.9175092
   5.4945270  73.0814303  28.4020502   5.8691398  72.2103323  28.2713300
   6.1417238  73.5429157  28.9353448  32.2725193  83.3420600   8.6675245
  33.0858127  82.8909291   8.4411031  31.6009800  82.6613249   8.6242563
  47.1221495  59.0906668  87.8297138  47.1839428  58.2115459  87.4561405
  47.9671478  59.2290258  88.2575798  54.4925436  82.4016870   9.2401010
  54.4520195  83.3439006   9.4038850  53.5858735  82.1498598   9.0647108
  94.9652394  95.3933777  65.6288415  94.5077952  96.1446060  65.2511865
  95.8204421  95.7381166  65.8857805  19.9572460  74.1396583  28.3342821
  19.4211857  73.3739318  28.1280500  20.1655761  74.5227112  27.4821645
  14.6841137  69.8953427   4.1449720  14.9364940  69.0388955   4.4899923
  15.2476303  70.0215568   3.3815843   7.2953892  12.7351004  15.9825975
   7.8621817  12.5943477  16.7409975   6.6647434  12.0158965  16.0181409
  82.5699194  80.6116404  12.5819761  82.2019967  79.8905219  13.0927068
  82.3674115  80.3892816  11.6732484  20.2323103  28.3452088  61.6394407
  19.3191719  28.5290915  61.4189893  20.4370165  28.9598233  62.3441202
  33.3311272  30.7338340  27.0420152  32.7839565  31.3545520  27.5232107
  33.9206410  31.2839896  26.5262300  62.8791857  22.8634882  75.2199268
  63.2333517  23.3984685  75.9302711  62.1875572  22.3457026  75.6319714
  99.7883137  98.2695545  29.4820768  99.8464259  98.7363972  28.6484605
  98.9366683  98.5217012  29.8389417  28.4450531  25.2837760  33.6744482
  28.4652567  24.7744710  32.8642446  28.7644005  26.1498029  33.4209806
  58.5035276  79.4114447  78.4039736  59.1707563  79.8060894  77.8424644
  58.4609461  79.9879837  79.1668797  51.3947773  27.6466615  11.1488706
  50.4461861  27.7400119  11.0612184  51.6465378  27.0709855  10.4267580
  56.9459057  89.4573212  87.2933769  57.1932650  88.7564564  86.6901970
  57.0090437  89.0594482  88.1616688  97.3022135  91.1143078  17.0082552
  98.0500468  91.1522354  17.6045305  96.7280682  90.4481806  17.3862249
 105.0447949 100.4862226  27.4522573 104.4501217  99.8229326  27.1020586
 104.4703349 101.1982025  27.7338869  90.4508933  76.2279309  16.8024713
  89.8866614  76.3469900  17.5664693  91.1450823  75.6430615  17.1062070
   5.7009975  49.6011752  24.6101553   5.7963411  50.4852839  24.2559129
   5.7351915  49.0305461  23.8424093 100.9956082  90.1080169  12.2706491
 101.7468031  89.6242632  12.6140386 100.3903731  90.1668490  13.0098802
  89.9700030  69.6703268   9.3609983  90.6594237  69.2147519   8.8778955
  89.4400271  70.0900997   8.6833936 103.7519558  81.7543687  21.9545537
 104.6373089  81.6328563  22.2975141 103.2719477  82.1682371  22.6718694
  72.9542446  14.6358812  72.9498482  73.1161213  15.3121758  72.2920847
  72.8408432  15.1197100  73.7679434  83.4031447  41.1779781  22.5554258
  83.5465773  40.6854905  21.7472726  82.7910002  41.8710483  22.3081094
  51.2026024   5.3410822  82.3659134  51.9757509   5.7068765  82.7956390
  50.5523348   5.2680397  83.0645084   4.0500681  71.5792884  51.1441976
   4.5257942  70.7971157  50.8646947   3.5873501  71.3077058  51.9368917
  78.8903197  76.2050809  22.7906496  79.1548546  76.9133319  22.2035963
  78.0297526  75.9362759  22.4690897   0.6282846  84.7991265  17.1702940
  -0.1091250  84.5375241  17.7216798   0.5380718  85.7481612  17.0841199
  67.9628420  14.5877218  86.1526489  67.5330162  13.8558495  85.7101059
  67.4599075  15.3573763  85.8863449  91.6586073  96.0575022   0.9864027
  92.3970707  96.6628326   0.9194738  91.1432370  96.2201275   0.1963598
  85.1821812  71.1458148  10.1947481  85.4037436  70.6258644   9.4222242
  84.2351159  71.2713899  10.1353818  69.2444944  22.1671295  61.2644196
  70.1035118  22.3719978  60.8951616  68.6579895  22.1444225  60.5082893
 104.0010643   0.4081723  86.0881042 103.4701824   1.1739891  85.8691978
 104.8152256   0.7724881  86.4354420  93.7951954  77.4784125   9.2710191
  92.9805192  77.5920953   9.7605211  93.6195286  77.8756513   8.4180433
  87.4120196  84.8144759  79.2569429  88.1957015  84.2686404  79.1925699
  87.2441491  85.0994100  78.3586961  12.7206421  29.8721415  40.7022840
  12.7264071  29.8911864  39.7452909  12.6227522  30.7889277  40.9594995
  76.0957050  28.0680490  85.4924774  76.9767714  27.7744031  85.2606869
  75.8090353  28.5836697  84.7386932  87.2968253  72.1379508  23.2236654
  86.5540656  72.1433820  22.6199228  87.3863038  73.0495562  23.5015184
  46.2904978  27.1822596  73.9699602  46.7270947  28.0332804  74.0070534
  46.8237782  26.6150069  74.5267963  10.8384220  88.1880106  18.1420499
   9.9019615  88.0586304  18.2921487  10.9926407  89.1053833  18.3675939
 104.2942198  99.0556349  32.6347906 104.6963938  99.2708696  31.7932683
 104.9315842  98.4865965  33.0662900  18.9258186  80.4770149  35.0595552
  19.1526596  79.5735253  34.8393709  19.3514148  80.6321134  35.9027940
 108.1231030  90.8489527  29.8837835 108.2048043  90.6971277  28.9422399
 107.2525986  91.2326206  29.9898702  18.3684723  57.0254274  31.5285570
  18.5815136  56.4030720  30.8332044  17.4241058  56.9312467  31.6532308
  65.4535866  12.0010049  45.6784898  65.3853130  12.1376569  44.7335607
  65.3854752  12.8792483  46.0530359  80.3845175  65.4549028   1.0723001
  81.0790642  65.9223176   1.5363676  80.8344420  64.7351743   0.6298143
  76.3275051  41.1200094  73.6456394  77.2620869  40.9988737  73.8133287
  76.0257721  40.2639532  73.3417320  92.9844284  38.3321047  57.1377230
  93.4904861  38.0815315  57.9106092  93.6289883  38.3690262  56.4310312
  85.1740035  62.1111716  29.0092927  84.9183663  62.0717384  29.9308855
  84.5515784  62.7215446  28.6139852   1.0566417  41.6890509   9.5904333
   1.6011802  40.9086139   9.6935159   0.1623336  41.3770814   9.7286970
  72.2515583  15.9344077  85.9282398  73.1679821  15.7305539  85.7415962
  71.8882465  16.1994243  85.0832558  12.8537933  68.3142592  15.5006391
  12.2473709  67.8899862  16.1076623  13.5804550  68.6046661  16.0518629
  78.4270676  62.9035236  33.2988531  79.1044959  63.3507313  32.7915842
  77.9905327  63.6032487  33.7847120  73.5832644  15.2347183  78.2564688
  74.2165852  15.2029645  77.5394440  73.9169598  15.9154773  78.8407993
  31.2468807   3.4618391   6.0501558  31.7969982   3.5934414   5.2779562
  31.0205547   4.3466820   6.3366109  87.5347002  94.8378385  52.2451383
  86.7142113  95.2861036  52.4503023  87.3958691  94.4721378  51.3715154
 106.3309201  51.6059478  25.2569276 107.0803126  52.1591437  25.0364381
 106.3350876  50.9198480  24.5894796  20.5717969  36.9845295  73.6739588
  20.1356936  36.1549020  73.8682842  20.2061605  37.6015520  74.3078566
  96.5501404  40.1899910  74.9604893  96.0790539  39.5451713  75.4882383
  96.0013580  40.9735584  74.9936104  60.4374599   1.1102632  87.4680424
  60.2822161   2.0459852  87.5967121  61.2998915   0.9553601  87.8533268
  85.8688649  63.8606347  16.9114477  85.3672226  64.6142806  16.6006452
  86.1991414  63.4473015  16.1137659  98.0614623  63.0035318  26.7828065
  97.2266348  62.5431873  26.8687231  97.8169735  63.9146437  26.6205293
  11.9607631  79.5466722   9.5890695  11.3074390  79.6772160  10.2763444
  11.6324417  78.8022746   9.0847761  92.6562317  58.6703636  26.0375291
  93.0864247  58.8552268  26.8723947  91.7245158  58.6270548  26.2526113
   5.4793207  40.9875645  59.5516569   4.7474710  40.4177035  59.7880632
   6.2565796  40.4425086  59.6742040  97.8605803  65.4471327   7.4726945
  97.6319798  66.3757707   7.4326307  97.9092034  65.1727201   6.5569574
  83.8659152  71.1450876  23.3470422  84.2423686  70.5298783  22.7177316
  84.1584643  72.0051707  23.0455381  13.1993000 101.5475286  27.7393419
  13.7858288 101.2760843  27.0332700  13.6573402 101.2959064  28.5412771
  95.2327689  44.5996095  15.7418996  96.0667714  44.6124007  15.2723104
  94.8034724  43.7969471  15.4458124  86.6826685  76.0050811  38.5419637
  87.4381312  75.4206170  38.6045152  86.9014843  76.6037406  37.8278429
  11.5046970  84.1501154  57.8248102  11.7718403  83.2491697  57.6427061
  12.2858612  84.6728147  57.6436883  57.8492546  11.2337500   1.3318712
  57.7324581  11.7965657   0.5664712  57.8105068  10.3433854   0.9826070
  64.3069085  75.8226003   9.7630006  64.4315394  75.4295649  10.6268388
  63.8632949  75.1447214   9.2531759   2.7129785  57.0296533   7.6570779
   3.2055561  57.7172942   7.2090322   2.3632137  57.4564262   8.4392339
   3.3637277  82.2538866   4.1942579   4.1109840  81.8270673   3.7751371
   2.7125971  82.3353495   3.4973890  77.1064623  72.8627600  16.2832338
  77.3450955  72.4512209  17.1138460  77.9435547  73.0357994  15.8524591
  71.5066393  75.9760560   5.6863100  70.6372460  75.8311619   6.0596639
  72.1039685  75.5399264   6.2939436  76.6849995  29.0465212  68.3078289
  77.0373964  29.1273451  67.4215364  76.2050819  29.8624086  68.4500885
  26.3643638  64.5117010  41.7756731  26.5901367  65.2926041  42.2810918
  26.2935154  64.8227157  40.8731824 100.5310734  79.0107192  32.6835615
 100.0579365  78.2447542  32.3584920  99.8934945  79.7232117  32.6379758
  23.0970860   9.7046334  26.6979391  22.7961397   9.0374810  27.3148519
  23.8422203  10.1165873  27.1353132  95.2684554  93.7321390  27.5238973
  95.8005293  94.4628300  27.8388864  95.8854207  93.0050625  27.4405176
  89.9524458  59.1267539  26.5587789  89.1568621  59.0795304  26.0286314
  89.7880705  58.5323782  27.2908479  40.2349997  12.0184612  73.1583309
  40.8262730  12.2437370  73.8765764  40.2955389  11.0657609  73.0881119
  99.5865067  45.9703643  40.5823595  99.9556597  45.4741002  41.3128931
  99.4707497  45.3227354  39.8870832  76.2015446  56.3491578  21.0524351
  76.2654026  56.5058972  20.1103193  76.6390666  55.5082719  21.1855394
  88.9874896  85.6684340  23.3398801  89.0596302  86.5142216  23.7822324
  89.6046074  85.7262196  22.6104623  18.9671032  77.8932895  10.2381116
  18.5474674  77.1147741  10.6042558  18.2583896  78.3629669   9.7983820
  61.1447907   9.5791776  25.5327493  61.6019344   8.7382419  25.5413038
  60.5991745   9.5631987  26.3190538  40.6870031   7.8166306  83.1448746
  41.2216568   7.7568364  82.3531628  40.8624506   8.6933237  83.4867191
  78.6711415  76.5795435  26.2887746  79.5771607  76.8786920  26.2121564
  78.3175286  77.0735921  27.0284444  35.8913755  39.5594501  78.2036066
  36.7490363  39.3921399  78.5943222  35.8074260  40.5129433  78.2094145
  93.2175922  68.8871956  81.0437012  92.3653698  68.4888268  81.2204933
  93.2868481  69.5975828  81.6814995  96.1997183  78.7288131  41.5001756
  95.8864268  77.9458679  41.9530279  96.8153628  79.1300548  42.1135408
  63.5596283  46.1775993  17.8192407  62.9335817  46.2618233  18.5384065
  63.2288869  45.4458953  17.2982294  98.4233626  89.7999491  13.8089925
  98.1269368  90.5380167  13.2764226  98.1840285  90.0392689  14.7043497
  16.6027919  52.6127495  35.1625806  16.7677299  53.0760677  35.9837801
  17.3351185  52.0017885  35.0810129  77.8293848  32.9434705  67.2251654
  77.5845861  32.2309709  67.8156328  77.5585699  32.6401615  66.3586235
   8.8851539  96.5842260  42.8146249   8.2026855  95.9141220  42.7768213
   8.5035984  97.3401274  42.3682386  39.4433141  33.2259965  79.2869186
  39.0855193  33.2591367  78.3997250  39.0593767  32.4376297  79.6707201
  90.0831127  16.4289951  74.4553900  89.4077110  15.7512820  74.4275999
  90.9044838  15.9538686  74.3295813  35.1716757  15.1294381  12.0549184
  35.3755093  14.2129762  11.8684274  34.6690846  15.4224879  11.2948209
  19.8255150  71.7486323  11.6048986  19.9971096  70.8084406  11.6580564
  19.7804252  72.0358075  12.5168878 105.3166255  97.6896347  54.5915586
 105.4190739  98.3465303  55.2801973 105.7147416  96.8983187  54.9542600
  36.1248565  26.8652034  75.3894711  35.9254885  27.6049089  75.9633350
  36.4006162  27.2682667  74.5662260  57.1192789   2.9818267  75.3795052
  56.6994810   2.2155324  74.9886131  58.0507231   2.7619457  75.3967381
  60.2609253   6.1157358  70.2495861  60.7111740   5.7987869  71.0325623
  60.9649086   6.3123530  69.6315432  32.6502506  69.3172337  36.9072134
  33.0227367  70.1734401  36.6965086  32.2562496  69.4336356  37.7717573
  67.7809175  20.1143350  19.2474443  67.0595344  20.2578343  18.6348707
  68.4735878  20.7008399  18.9433843  80.4772528  69.7997154  -0.2065962
  81.3453873  69.4017090  -0.1420706  80.4971751  70.5211462   0.4221899
  87.7642020  55.6990175  12.3021490  88.6760910  55.6648002  12.5911600
  87.8113373  55.6130369  11.3499815  78.8526964  42.1109247  83.5785484
  77.9261923  42.2494316  83.7751198  79.0006018  42.5966549  82.7671146
  89.1419705  64.3382086   3.7585336  88.8477858  63.9928461   2.9156763
  88.3342226  64.5624353   4.2205984  95.1862057  82.6906408  43.4603197
  94.4587906  82.8360905  44.0652544  94.9352654  81.9094218  42.9674226
  25.8230448   1.8346097  86.9433403  26.4310503   1.2981328  86.4346600
  25.1028752   1.2418671  87.1583843  95.7631072  52.7596409   4.6039659
  95.0854882  53.1633703   4.0616876  95.5617913  53.0491555   5.4938489
 100.7942923  86.3960589   6.6687566 101.1418065  86.8125929   5.8801157
 100.6882199  85.4760398   6.4267999  89.2649230  40.3106643  23.4849626
  89.2267140  41.2599738  23.6015207  90.1025828  40.1565064  23.0481607
  31.6259933  47.6922274  63.3609247  32.4203396  48.2098532  63.4924936
  31.1406016  48.1658936  62.6854467 100.9008463  48.2110320  -0.3047961
 101.4394721  47.7328627   0.3256494 100.0190838  48.1873201   0.0669080
  48.8308382   5.7823068  87.2527504  49.4603014   6.4500135  87.5251007
  49.2083549   4.9579272  87.5595284  44.6757984  37.8641748  84.5759678
  45.2647400  38.1683302  85.2665234  44.3462849  38.6667180  84.1715240
  33.6431781  77.4529113  15.2904970  34.4871990  77.0071925  15.3625661
  33.8252727  78.3547820  15.5545122  96.5807732  80.1386990   6.4074403
  95.8847817  80.7521285   6.6430933  96.8658455  79.7676243   7.2424680
  94.4296893  61.3898457   1.0675985  93.6406668  61.9235541   1.1615640
  94.1487273  60.5043270   1.2981397  12.4272911  61.9325019  17.9944498
  12.8500740  61.7001869  17.1676904  12.3752491  61.1074592  18.4769708
   0.9419044  33.7610149  73.3901834   1.2732013  34.4978261  73.9035940
   1.6312965  33.5863113  72.7495146  46.4373962  54.4670088  29.9637968
  45.7501880  55.0348915  29.6152479  46.3698284  54.5645092  30.9136182
 106.3506325  79.3176760   7.8601820 106.3423117  80.0448717   7.2378141
 105.6336173  78.7508596   7.5758535  46.1225700  47.9620218  82.8946114
  46.5214443  48.3435154  82.1125698  46.8455362  47.8801870  83.5165882
  24.2042637   5.9068639  33.0008775  23.9581824   6.1632735  33.8896543
  24.5044518   5.0020511  33.0870801  94.8581513  71.2841453  27.0842535
  95.6971177  70.9095944  26.8157846  94.2584570  70.5383672  27.1046335
 107.7271088  91.9331182  45.9268266 107.8220852  91.7641128  44.9894697
 106.8851717  92.3817028  46.0052187  81.5640354  44.1012812  82.4851418
  81.7813492  45.0211954  82.6360130  82.2785282  43.7727785  81.9394112
   5.5801106  39.0753943  15.0726968   4.7891522  39.2567737  14.5650369
   6.2387419  39.6675689  14.7096807  91.2150200  71.3392962  50.9457761
  90.3469857  71.3884534  50.5453664  91.7383584  70.8360208  50.3220254
  74.6036967 100.8434833  35.0356847  74.9211844 101.6389955  35.4629880
  73.7768467 100.6483997  35.4766923  98.4749031  23.2909799  78.2949924
  98.1217957  22.7439785  77.5933218  97.8099346  23.9661217  78.4300375
  87.6769066  65.3810883  86.5559196  87.0958233  65.6345081  87.2731113
  87.3597527  64.5200109  86.2835598  40.9099674   4.9167640   3.7529928
  40.9053373   5.8727128   3.8017065  40.5323315   4.7187812   2.8960020
 104.4431504  92.8959717   5.0550443 104.4961651  92.7176393   5.9939844
 103.5113390  93.0410828   4.8910409   3.5196058  74.9607743  21.8804533
   2.8029195  74.6773256  22.4481279   4.2897550  74.9607219  22.4488718
   6.4559213  62.6356734  37.9165250   6.0185186  62.4535264  37.0848257
   7.0428411  63.3667399  37.7234060  94.7705706  83.3701314  21.8398935
  95.2228268  82.8502740  22.5043088  95.4738005  83.7473096  21.3112814
  87.4807843  97.7267374  21.6656667  87.7255543  97.5816692  20.7517320
  87.7105959  96.9094576  22.1077901 100.4474314  83.6175741  25.1558763
  99.8144825  83.1826104  24.5845491 101.2464818  83.0980219  25.0674707
  17.6825992  91.1166538  12.3006422  17.1783439  91.4527143  11.5596754
  17.2949497  91.5407623  13.0662138  11.4417736  97.0786299   4.8206216
  11.9275943  96.2639440   4.6922094  11.9199840  97.7267422   4.3034250
  42.2613096   2.8692777  44.1895372  41.3124752   2.9469926  44.2890531
  42.5443602   2.3832662  44.9640733  53.8482571   6.1164433  29.5072252
  54.0014744   5.1716143  29.5145303  52.9205418   6.2103183  29.7234613
  76.6144896  31.3327742  56.7690325  77.1299553  31.1066222  57.5432348
  76.5750408  30.5216980  56.2622499  42.8888464  42.1638012  86.1951923
  41.9400072  42.1076393  86.0821247  43.1050110  43.0662680  85.9605598
 107.4226435  96.4933647  13.5766107 107.1107062  97.0913185  12.8973562
 108.3767756  96.5338339  13.5115797  83.3210087  33.1927657  83.3967781
  83.2526398  33.0593777  82.4513817  83.1921387  32.3214555  83.7715340
  25.0632167  41.2776804  68.9719963  24.9887657  40.6044912  68.2956028
  25.8947945  41.7135382  68.7856150  38.1917755  89.5052899   5.5159742
  37.2429840  89.6307482   5.5326253  38.4300892  89.3586601   6.4313585
  11.2969581  73.5011209  53.5241586  11.7397110  73.4488477  52.6771242
  11.9928638  73.7158574  54.1453153  30.6192962  96.3787378  16.0475999
  29.6885769  96.6004147  16.0183984  30.6903736  95.7359089  16.7532522
  42.6510421  79.8233642  26.6246206  43.2042591  79.5615949  25.8886510
  42.2177784  79.0148105  26.8980390  54.9844837   5.0014932  46.2632162
  55.5796242   4.4373233  45.7694990  54.1348553   4.8832662  45.8385068
  12.2921459  77.4428166  16.8691904  11.8155185  77.4615015  16.0393125
  12.2746078  78.3493675  17.1759302  93.6823567 100.0806726  25.1551515
  94.2959317 100.8142294  25.1144868  93.6461695  99.7486843  24.2580968
   3.5845606  92.7197231  18.2936269   4.1415540  93.3379234  17.8205377
   4.1988746  92.1358551  18.7385446  95.2091464  84.1042413  35.4268629
  94.5487841  83.8471188  34.7834093  95.4234322  85.0095190  35.2015001
  36.8053150  16.8182713  21.2142927  36.3820982  15.9848983  21.4207250
  37.7414179  16.6406924  21.3059885  70.7584191  37.5254256  14.0776998
  71.1111164  38.3118922  13.6614019  71.4839554  37.1859176  14.6016962
  36.6745162  43.0134106  73.3855581  37.3646998  42.4210691  73.0872154
  36.1404419  43.1703663  72.6068687  27.8347580  88.2424106   8.7004072
  27.6382343  88.1166686   7.7720720  28.4368126  87.5302876   8.9163667
   3.9362041  82.4336542  26.2272340   3.9712469  82.9873146  27.0072729
   4.0366308  81.5423383  26.5614587  86.3416584  94.0776457   9.1833097
  86.9802197  93.4742702   9.5633298  85.5689915  93.5368504   9.0197164
  90.8865746  78.0003346  19.9961168  91.6851481  77.4876894  19.8707849
  90.8381423  78.1409110  20.9417039  32.5321198   8.0498225  11.0682661
  32.3983860   8.9152772  10.6818277  33.3439779   7.7334411  10.6720144
  90.0835037   8.9901179  71.8634558  89.4041061   9.6325368  72.0682812
  90.8267879   9.5143801  71.5652752  97.9318142  48.7593412  68.2374239
  97.0383739  48.7367344  68.5801649  98.4548283  49.1159678  68.9554071
  21.0217762   5.6072909  34.6830827  20.9142828   5.7145984  35.6281549
  21.7176771   6.2217576  34.4498807  27.0925522   5.2257449  38.4486848
  26.8099594   5.1579720  39.3607027  27.8035450   4.5896727  38.3703405
   2.2285549 101.0640444  26.9439394   1.3768808 100.6273140  26.9562131
   2.7582018 100.5392469  26.3436967  45.3811359  44.6753883  77.1265030
  45.8462572  45.2564240  77.7284050  44.5135450  44.5707083  77.5170946
   0.5055038  75.3620614  67.3197061   0.9633438  74.6411599  67.7520353
   0.9496061  76.1500062  67.6329786 103.0379923  75.3043713  20.3410799
 102.3375281  75.2929605  20.9933454 103.5589608  76.0762323  20.5625612
   3.3130288   7.4190289   9.9139482   4.0238476   6.7997939  10.0798399
   3.5581970   8.2025391  10.4061300  22.9682914  99.0026821  17.9445726
  23.5068218  99.7858967  18.0576784  23.3966247  98.5172666  17.2395021
  31.7915964  12.2933061  10.9828741  31.0630846  11.8832452  11.4490873
  32.3150349  12.7045113  11.6707307  90.9992417  74.7354831  36.4026147
  90.1337203  75.0239076  36.6922838  91.4406260  74.4586815  37.2056085
  92.1629810   2.6868147  70.5116177  92.4781990   2.3917919  69.6573162
  92.9403591   3.0387563  70.9452724   5.4512779  52.3462860  23.8197214
   6.3248769  52.7358791  23.7839872   5.0397007  52.7507667  24.5834142
  92.9662140  68.0619086  10.8938962  93.4228524  68.4613456  11.6342718
  93.1151064  67.1222593  10.9993536  13.2263843  96.9608463  17.8578168
  13.7029068  97.2269834  17.0714838  13.1356327  96.0117258  17.7731496
 106.0933693  56.6729082  26.8999368 105.2014264  56.3371147  26.8110162
 105.9829434  57.5549830  27.2548753  78.5393572  38.6382747  85.5247593
  78.3202076  38.0003500  86.2039185  78.0292559  39.4155121  85.7526493
   5.1067297  82.6304521  10.6421262   4.6203415  83.3886565  10.9658319
   4.6845810  82.4119843   9.8112947  54.6121407  22.2689301  16.8471223
  54.6994114  21.4333255  16.3884527  54.7267628  22.9300029  16.1644250
  36.6224003   1.2247092  16.3861448  36.1963606   0.6489951  17.0211870
  35.9119320   1.7617375  16.0353357  87.2699650  77.8511061  17.4959260
  87.8406533  78.0093492  16.7439252  87.7516469  77.2230066  18.0341703
  95.8439358  68.6115660  16.4184457  95.7762440  67.8140940  15.8933813
  96.3942345  68.3632769  17.1612436  86.9058760  86.1669864   6.1282140
  87.7343758  86.5251674   5.8095819  86.2346037  86.6936554   5.6943494
  87.5339031  89.0502930  74.3660831  86.9912243  89.3018246  75.1133871
  87.2638607  89.6422005  73.6639738  28.3867550  11.5035874  13.6104661
  28.7977553  12.3677689  13.5880548  27.9998541  11.4449508  14.4840223
  23.6341373  87.5274075  24.0710813  23.6953251  86.6444792  24.4356615
  24.1616050  88.0668653  24.6601469  89.8748740  84.9076618  16.8048364
  90.7902344  84.8363222  17.0754892  89.8525771  84.5184697  15.9306127
  98.0548628 101.5983261   8.0841905  98.1453808 101.2741674   7.1881086
  97.7586182 102.5028767   7.9828912  11.9129268  99.8835434   1.0648328
  12.6965515 100.4332127   1.0690481  11.2131206 100.4617895   1.3683778
  24.3223763   5.0831944  14.6586305  24.9213696   4.9516684  15.3935796
  24.5038796   4.3521888  14.0679342  58.7685776  13.9020211  15.7196600
  59.1178990  14.7858006  15.8343011  58.6678028  13.8052852  14.7727090
  26.9084541  87.1244539  18.3191854  27.7751724  86.8159546  18.0549032
  26.4011661  86.3244833  18.4568101  75.0005492  80.9710087  24.3205053
  74.9429997  80.7075800  25.2389413  74.2065485  81.4834227  24.1681081
  39.6964359   4.1319758  16.1333639  40.2728653   3.8704593  15.4153329
  38.8626862   4.3351561  15.7093221   4.6300403 101.0110725  18.3437044
   3.7219993 101.2850775  18.2147962   5.1490585 101.7724098  18.0844480
  21.3290397  97.4124731  44.9542791  21.1044017  97.0586647  45.8148557
  22.2230617  97.7391304  45.0555402  43.5642338  40.3479767  83.9224434
  43.2249832  40.6682682  84.7582436  42.8236008  40.4191160  83.3202553
 103.1780966  68.7988676   9.1455442 103.5839041  67.9567112   9.3512804
 102.9889782  69.1884996   9.9991590  29.7523880   4.4092757  31.1215192
  29.8581124   5.1396949  31.7310602  30.6216717   4.0117509  31.0709840
 102.5727900  77.9735888  16.2256986 103.2091197  78.3424534  15.6131250
 102.6405486  78.5271396  17.0036680  95.7891139  60.1544984  41.5800935
  94.9065073  59.9185373  41.8656808  96.3677414  59.6202023  42.1241075
  99.4681605  66.0150756  46.1860448  99.7161873  66.1582877  47.0993978
  98.5228833  65.8672668  46.2149030  84.7568417   1.7691047  15.2256757
  84.5378876   0.9153897  15.5991155  85.0998974   2.2726018  15.9639436
  83.0614376  81.0487366  85.2832699  83.2033443  80.2250767  85.7498264
  82.5243187  80.8071232  84.5287132   7.0099688   1.5091140  23.6157781
   7.0032263   0.6774241  23.1419832   6.4315415   1.3630301  24.3643171
  80.2797898  69.9662007  14.4522745  80.4893740  70.1706482  13.5409433
  79.7497090  70.7063366  14.7479803  45.3394032  10.2592046   5.3988916
  45.7822132  10.6198747   6.1670572  44.9171925   9.4617230   5.7182676
  78.9695645  11.6229302  47.8473455  79.7565842  11.2534530  48.2477552
  78.5816956  12.1632439  48.5357172  96.7236050  89.2466749  24.8270303
  97.6058682  88.8832344  24.7511560  96.8622597  90.1705183  25.0356466
  24.0434543  81.6282882  18.4263498  23.8685886  82.2050632  19.1699773
  23.7626640  82.1312751  17.6618940  33.2840530  88.5185899  14.0693742
  32.6087372  88.2585563  14.6959287  33.1777279  89.4658460  13.9819986
  23.6825085   7.5942666  10.9210760  23.8364601   7.4676329  11.8572885
  23.7030983   8.5437114  10.8012373  96.9687327  87.2577466  32.2320444
  96.5334042  87.9939999  31.8023378  96.5446099  87.1950711  33.0878622
  19.1410017  10.9708745  19.9442846  19.4981241  10.4344661  19.2364961
  19.9015665  11.4233691  20.3090078   6.4652141  34.7418547  72.3348475
   6.6297801  35.2621174  71.5484142   6.9414218  33.9250350  72.1856499
  11.7765419 100.8532680   9.4926530  12.3395435 101.5142359   9.8956090
  10.9034340 101.2455238   9.5001775  71.2700494 101.8837131   7.8648645
  71.6803797 101.0227837   7.9464895  71.6884359 102.4137415   8.5432798
 101.4342173  58.4113677  17.4418050 101.0922822  58.1699158  16.5809900
 100.7444724  58.9486726  17.8314096  84.1939553  88.3147777  32.5736410
  84.3544968  87.7162827  33.3032018  83.5053214  87.8898395  32.0623285
  25.4388476   2.9998786   4.4448358  24.7557640   3.1712300   5.0931245
  26.2529040   3.2467563   4.8836977  24.8155872  71.9241394  18.4568388
  24.4901077  72.5704659  19.0833837  25.7626812  72.0619239  18.4407884
  30.7205288  82.3657860  22.6036150  30.3320114  81.7181076  23.1916601
  31.2009899  81.8462957  21.9590074  28.0062103   4.8404509  26.0215074
  27.7192211   5.1817662  25.1745206  28.2669258   5.6169659  26.5167600
  21.0735313  75.0947155  -0.0360888  20.8624641  74.4480599   0.6373483
  21.7737476  75.6216730   0.3489381  43.5738850   3.1686646   1.2278730
  44.4308949   2.8244454   0.9763319  43.6912346   4.1185767   1.2392217
  20.7064239  83.2927026  17.7433282  20.2279083  82.8386058  18.4369070
  20.9000580  84.1550220  18.1109506   8.8407413  65.4890217  21.8827039
   9.1800300  65.0113763  22.6396543   9.3677608  65.1773490  21.1469442
  83.4067726  53.9994144  81.3370419  83.2849407  53.0722332  81.5413094
  82.7604580  54.4511461  81.8796825   7.7703706  56.9084366   6.5730649
   8.4278385  56.3174267   6.2060911   8.2709877  57.5132985   7.1205694
 100.9667110  95.6210613  80.3527069 101.6350746  95.9364796  80.9610081
 100.5571175  94.8850918  80.8074760  58.4510756  77.7581549  81.3533306
  57.6135540  77.3956823  81.6421223  58.2911873  78.0432987  80.4536819
  78.8286408  70.5461933  50.0042707  79.2180546  70.7666398  50.8504373
  79.0467318  71.2878050  49.4397527  78.7116480  32.8390169  49.2661858
  78.6490011  33.4729385  49.9806452  77.8084564  32.7185631  48.9729786
  77.1950491  55.2416272  43.6297971  77.7082022  54.5417584  43.2259542
  77.8488167  55.8560710  43.9633829   6.8614141  79.8331918  27.0540029
   7.5303690  80.4036845  26.6754896   6.9407694  79.0140046  26.5652639
 103.0301436  86.9152893  48.8033277 103.9613207  86.9309606  49.0244371
 102.6291665  86.3858546  49.4926340  49.7607231   2.8220469  33.4209234
  48.8295841   2.8537185  33.6404592  50.1995850   3.1987531  34.1836340
  70.9709358  26.6584921  80.7693672  71.4889097  27.1959352  80.1701260
  70.0793934  26.7063880  80.4242706  29.2493812  90.7082595  35.5346757
  28.4100238  90.6305088  35.9881765  29.8081772  90.0519051  35.9508306
  98.9674195  83.9917864  21.5013963  99.2328461  83.4770526  20.7392770
  98.7048586  83.3397688  22.1511442  54.4889824  79.6496643  23.5212308
  55.2618972  79.4600238  22.9893762  54.0213386  80.3261842  23.0314714
  52.6332569  23.3723075  14.9937898  52.8697205  24.2416865  14.6705228
  52.1745682  23.5395057  15.8171255   6.4578724   6.0469729  12.5097162
   7.3743439   6.1268575  12.2452814   6.3287974   6.7532737  13.1427270
  92.6026495  75.1431979  20.2046949  93.4851845  74.8702158  20.4553873
  92.5181254  74.8706998  19.2910081  16.4468718  30.3370482   5.3471452
  17.0566511  29.9392707   4.7257215  16.0189676  31.0341460   4.8499757
  24.9592590  33.7780101  43.1980115  25.2266026  34.4881064  43.7815649
  24.9228096  34.1815574  42.3307973  22.9581253  91.0458292  17.1296102
  22.8956024  90.2162589  17.6030427  22.0631210  91.3851465  17.1217424
 106.0596665  91.8986381   3.1100446 105.4220828  92.2061457   3.7543756
 106.8577202  92.3876585   3.3105451  85.6057167  32.4196005  86.3487434
  86.5517807  32.2984385  86.4295578  85.5098820  33.2321048  85.8518696
   8.5051433  88.8078512   9.5940858   7.7582304  89.3370952   9.8738367
   9.2298977  89.4300736   9.5324499  78.6354407  93.1428064  13.6521036
  78.9207085  92.5583185  14.3543989  77.6885375  93.2161774  13.7713415
  15.1422787  10.3123767   1.8805963  14.2496014  10.2288300   2.2158128
  15.6813240   9.8386962   2.5140649  69.2948755  73.9508976  25.1204855
  69.5063051  73.2308449  25.7146627  68.4875830  73.6743964  24.6868307
  13.0558483  93.4678329  14.7697813  12.4529545  93.3753265  14.0320951
  13.9098446  93.6168159  14.3639261  19.4608394  94.9245418  28.6145383
  19.6932594  95.2968134  29.4651968  18.5626594  94.6131863  28.7266904
  82.9923447  80.4989590  24.2655641  83.3683070  79.8673643  23.6523992
  83.5242375  81.2869109  24.1539461  96.2193736  93.0575622  15.4537279
  96.6456755  92.5594009  16.1511022  95.2832564  92.9632391  15.6298429
 103.3275755  78.7976493  48.3821184 104.0793665  78.8031520  48.9745790
 102.6715764  79.3379368  48.8225633  87.6031311  97.0491709  18.9424306
  88.1452902  97.3438658  18.2106859  86.7102488  97.2820963  18.6879903
  98.0214604  84.8342265  33.4775430  97.5923451  85.6500496  33.7354642
  98.7443264  84.7374381  34.0974885  83.3777332  37.1593881  86.8918514
  83.4223270  36.9668698  87.8284264  82.7584076  37.8862500  86.8259621
  91.6067656  87.8987945  43.7440187  92.1833952  88.3701600  43.1427366
  91.3101967  87.1380271  43.2445127   2.0588342  88.9615168  24.9372655
   2.6469413  89.5023884  25.4643518   2.1345846  88.0858530  25.3163511
  50.3292084  19.6212584  16.7826444  49.7701931  20.3653390  17.0064146
  50.5770016  19.2452914  17.6273233 100.5115454   8.6033399  11.2880594
 101.2297313   9.1271169  10.9329587  99.8880355   9.2477137  11.6230947
  89.5547064 101.2897743  63.8636762  89.0995701 101.5568747  63.0650884
  90.2254113 100.6764234  63.5633642  70.3829813  70.6649923  76.3362932
  71.2273932  70.2306318  76.4568472  69.7353077  69.9820900  76.5106440
  67.7094269  55.5520821  79.9010849  68.4158325  55.1472569  79.3977547
  67.8060770  56.4902592  79.7376490  70.9372044  13.7797267  16.0569078
  71.2419510  14.5756347  16.4926797  70.4057980  14.0953309  15.3260023
  10.4922056  22.5545985  11.3884813  10.8417845  22.5190026  10.4981119
  11.2490225  22.3862750  11.9498426  94.9991520  81.7011656   9.2724401
  94.2354210  81.3156928   9.7018129  95.6048497  80.9688033   9.1583807
  18.2192214  26.1236811  67.9314280  18.3003886  27.0774293  67.9343557
  17.4253162  25.9493113  68.4369469  16.6952697  53.2290140  12.8993207
  17.1368972  53.0314532  13.7252504  16.0868923  52.5009192  12.7728921
   6.2651618  36.6609168  80.5309772   5.6677707  35.9141397  80.4900551
   5.7029708  37.4060297  80.7430649  23.7279979  99.0732731   7.0924264
  23.9759247  99.7732319   6.4884264  23.0437366  98.5892023   6.6301614
   9.6525184  96.4367927  30.7583791   9.5375244  97.3018993  31.1515790
   9.1872303  96.4893831  29.9235326  80.1323032  41.0100985  65.7695389
  79.7010088  40.4396200  65.1333189  80.5627823  41.6795444  65.2377939
  77.6669836  19.5068145  85.9847927  77.8031874  19.0424192  85.1589489
  77.1316814  20.2642465  85.7481861  96.8377741  96.5488352  42.2866041
  96.1232480  96.2686600  42.8586084  96.8241557  95.9231581  41.5623266
  96.9424780  80.4336919  11.9980890  96.8008622  81.1859836  12.5727541
  96.0652503  80.0851716  11.8392164  24.5002166  66.0985435  23.8418275
  24.6454803  67.0125224  23.5973436  23.5878078  65.9298278  23.6067087
  46.0566521  11.0108525  35.4571516  45.2414036  10.9444529  34.9599630
  45.7818890  11.2845666  36.3322622  64.1340160  35.9388638  83.3724689
  64.8055744  36.6115236  83.2594776  63.6667728  36.1979318  84.1666985
  99.7303923  81.2361373  29.7410852  99.1066082  81.6897859  29.1742307
 100.2838143  80.7390417  29.1387159  71.5651894  18.5362124  81.5116119
  72.1635199  19.2390764  81.2582111  70.7690811  18.7061906  81.0080719
  14.9037409   6.5588862  21.9716436  15.5855894   6.8818814  22.5607091
  14.5241738   5.8104951  22.4321634  89.1365147  60.2597666  62.1099806
  88.9745903  60.8032608  62.8811026  89.0916443  59.3611431  62.4366140
   1.8250028  43.5012264  28.8774759   2.5596086  43.2889999  28.3016759
   2.2024910  43.5015996  29.7570974  16.2826244  61.6624404  17.3437864
  16.9902698  62.3004319  17.2518903  16.0897056  61.6521110  18.2812864
  68.8000441  28.5538244  85.0025463  68.7033987  28.0838776  85.8308220
  67.9367018  28.4974718  84.5930386   8.8218737  23.3971698  17.7441198
   8.6839676  22.5658090  18.1980497   7.9423142  23.7580068  17.6327116
   2.5499193  47.3347153   2.0963174   2.1688978  47.6073883   2.9310018
   2.0649759  46.5444799   1.8584329  51.8396759  19.0343339   5.2517587
  52.3470402  19.7380168   5.6562788  51.3724518  18.6263186   5.9807760
  99.4730814  69.5681788   5.8558637 100.3917607  69.4350864   6.0894186
  99.4265326  70.4832162   5.5787832  97.5700148  92.0779623  56.7489130
  97.2766837  92.2632851  55.8568079  98.5131463  91.9367708  56.6664583
  16.7922012  95.4275860   4.8459608  17.6601879  95.2676310   5.2164251
  16.7891781  94.9386181   4.0230829 103.7078571  46.8244410  77.4350834
 104.4669628  46.6124678  77.9782677 104.0571022  47.3884439  76.7450380
  88.3116245  36.9906926  83.1679821  88.7964630  37.6686430  82.6972866
  88.9878273  36.4032531  83.5054684  73.4742117   1.4578968  82.0212078
  73.7957621   2.1689957  82.5754452  72.5465679   1.3810433  82.2443581
  81.1652279  39.3928957  86.9759083  80.8882236  39.1145682  87.8488541
  80.4008865  39.2372799  86.4211178  16.9530471  58.2242775  66.7494345
  17.1592410  58.4354782  67.6599884  17.7966293  58.2594490  66.2984657
  39.0565491   0.5098779  15.2326852  39.7739887   1.0351235  15.5871374
  38.2835770   0.8040149  15.7145864  53.4643888  46.4982843  78.1701994
  54.1704750  46.8177128  77.6083803  52.8695488  46.0448503  77.5728798
   7.7727119  89.6432198  18.1618959   6.9649402  89.7303022  17.6557809
   7.9160682  88.6988295  18.2235891  87.3966503  43.2594728  85.3907204
  86.7847061  43.9899492  85.3003693  88.0789852  43.5895348  85.9752750
  68.5579729  48.0341530  85.3751659  69.4930029  47.8339195  85.4182625
  68.1781912  47.5656462  86.1184692 100.8318909  74.7560085  22.5450975
 100.3278264  75.0985302  21.8069726 100.3953322  73.9351906  22.7729208
  27.6659203  12.7124173   7.5692636  27.2714853  12.3008162   6.8003446
  27.1102524  13.4714801   7.7461416  48.7372112  10.6237466  32.2601968
  48.5511875  10.8924443  31.3605196  49.4880486  11.1579186  32.5193101
  11.4733497  93.3896078  12.3210508  10.6733696  93.7262739  11.9174367
  11.8477050  92.8064932  11.6606981  53.1100456  89.3386401   9.6598703
  53.9661018  89.7662224   9.6838171  52.4814884  90.0605167   9.6664316
   7.9433012   9.3134553  43.0697805   7.6067639   8.7850959  42.3460371
   7.3918009   9.0770680  43.8155633  85.3580292  81.0864748  16.6016752
  85.0576981  80.7425298  17.4429399  85.9533366  80.4155816  16.2673933
  24.6257687   2.0103986   8.2335168  24.2746687   2.5794465   7.5485689
  25.0575447   2.6083285   8.8436586  86.9058514  67.6023006  73.1497240
  87.6378632  67.0289230  72.9225063  86.9720364  68.3311367  72.5327539
  21.3307468  95.9871973  22.0008451  21.0686008  96.6148151  21.3273508
  21.2137882  96.4583410  22.8258211  84.8610497  82.0998001  87.2730255
  84.6713448  82.7577400  87.9418755  84.0785217  81.5490150  87.2501183
 103.4769630  57.1341372  86.9981289 103.4966087  57.8073311  86.3179398
 103.1129742  57.5780964  87.7640629  69.9193668  75.6420374  73.3982563
  70.5742121  75.5654192  72.7043295  69.8928976  74.7734261  73.7995672
  95.7438946  62.5818920  86.7713547  96.2230396  63.3632231  87.0473576
  94.8327732  62.7666903  86.9992733  93.7715348  94.9410786  16.7541200
  94.2930325  95.7220425  16.9395048  94.1015967  94.2821325  17.3649293
  52.7321339  13.1341178  64.3311674  52.3231507  13.5435540  65.0936204
  53.6701298  13.1588990  64.5203096  57.2688961  14.4564397  18.4595663
  57.5544357  14.2234761  17.5761491  57.5544930  13.7233168  19.0047246
  34.5625687   0.0843245  18.7631685  34.2535448  -0.2549022  19.6032030
  33.7631273   0.3058774  18.2856351  20.1441757  85.1295723  62.1636755
  20.2502529  86.0579218  62.3713857  20.4474632  85.0503243  61.2592584
  38.5922432  11.7600495  27.4089414  37.6391316  11.8376595  27.3665983
  38.8451767  12.3148686  28.1467992  72.5785971  44.8516464  81.9705009
  72.1241045  44.3275118  81.3109970  72.8406334  44.2195797  82.6398754
  62.4777842  76.0729933  86.1712074  62.4123240  77.0279551  86.1721039
  63.2188463  75.8842611  85.5954933  44.5351601   8.8593966  18.6060983
  43.6717463   8.4555346  18.5186941  44.4585896   9.4243390  19.3750078
  99.0287360  99.4686188  39.2098695  98.9981802  98.7148298  38.6207181
  99.9602898  99.5931734  39.3913347  60.4475212  76.0145044  84.4608974
  60.6459284  76.9313717  84.2705822  61.1642408  75.7267284  85.0263405
   9.6541977   9.3528087  34.0481168   9.8829508   8.8657338  33.2564909
  10.4934549   9.5217521  34.4762975  21.3713352  88.4207214  10.3385335
  22.1284477  88.9833559  10.5012113  20.9104435  88.8430346   9.6136457
  48.7487507   3.9263255  16.4135915  48.0108357   4.5253093  16.5273553
  49.3915844   4.4302852  15.9145814  35.0587893  11.2079055  29.4851190
  34.6375322  10.4481084  29.8869783  34.6551609  11.2757880  28.6198408
  28.2892696 100.3573955  33.1982500  29.0902607 100.1593889  32.7130300
  28.1720821  99.6085752  33.7828619  83.3884621  54.3842936  85.5129528
  83.0754662  54.6507788  84.6485233  83.8608265  55.1487017  85.8427811
   3.4431163  99.3541588  24.6472150   3.0478136  99.2046703  23.7883646
   3.9833347  98.5789646  24.8004324  19.7800628  95.6623520  13.9936811
  20.2896206  96.4698376  14.0611059  20.4065029  94.9665035  14.1926557
  46.3925934   1.0437590  17.2454340  47.2875309   0.9508092  16.9188291
  46.4700890   0.9285981  18.1925184  76.2032604  18.7361342  33.0993825
  75.7121086  18.9705474  33.8868219  76.9386292  19.3486983  33.0845624
 103.6057528  97.2486128  22.1829015 104.5337685  97.0923103  22.0080072
 103.6002406  97.9265083  22.8586656  31.9498587  20.2035338  17.6633817
  31.1412192  19.8628384  17.2809297  31.7702151  20.2486331  18.6024934
  75.0530577  66.5144157  61.7505884  75.8148909  66.0224724  61.4442492
  74.3779516  65.8497763  61.8873835  93.3202934  72.2121048  86.2581348
  93.0484200  72.3335743  85.3484249  93.1822395  73.0671835  86.6655827
  82.9219723   0.4225976   2.8438455  83.1294537  -0.1821702   3.5561830
  83.4404278   0.1074988   2.1034700  44.3517590  18.2410437  14.3866235
  44.4219494  17.4059874  13.9240438  43.4713888  18.5555179  14.1809637
  13.4944431  98.3621324  26.2725812  14.1422073  97.7711405  25.8886892
  13.0267994  97.8231014  26.9105321  52.9394531  30.0839526  16.2762147
  53.1723690  29.1808898  16.0606939  52.3676109  30.3611667  15.5603963
  21.0465137  88.3078207  39.2144758  21.1098663  88.2824100  38.2597143
  20.6418125  87.4729575  39.4499666  89.9114799  67.1312046  77.2500515
  89.1390228  66.6148186  77.4800253  90.6366444  66.6853476  77.6877499
  75.8962536  22.1008498  33.1481439  76.5710831  21.9164044  32.4948293
  75.3620339  21.3069350  33.1713850  86.7891407  46.9811630  54.6891689
  87.0021152  47.7929783  55.1494169  87.4395752  46.3516521  55.0004292
  59.1268444   6.8248612  38.9113790  58.5747242   7.4722916  39.3498212
  59.6259022   6.4170701  39.6191103  95.0243855  42.2070224  10.6075555
  94.9804878  42.8103358  11.3493902  95.2260018  42.7651603   9.8565179
  40.6283093  12.3481566  79.3066675  40.4207087  12.2241217  78.3805162
  39.7782469  12.3350436  79.7465021  48.1068611  37.2109229  28.0139047
  48.9694786  37.0069701  27.6526147  48.2911968  37.6013667  28.8681871
  31.1524630  40.5997664  40.2880937  30.6144238  40.5327231  41.0769254
  31.8988991  41.1376006  40.5522901  23.9903728  92.8475679  14.5865137
  24.4833557  92.9402365  13.7712747  24.5893566  92.3921598  15.1781732
  25.9671489  95.6588854  45.2357084  26.5806095  96.2780441  45.6313497
  25.9130947  94.9398769  45.8652574  60.5826235  67.8687286  72.4374247
  61.4471865  68.2648134  72.5464201  60.0157118  68.5971165  72.1838713
  77.9356050  40.8822107  77.3746204  77.1881390  40.8880949  77.9725266
  77.6975632  40.2464056  76.6998482  60.6951189  61.1616659  85.4634190
  59.7464085  61.2666607  85.3916073  61.0505009  62.0116854  85.2038002
  81.2579441  51.2616205  73.7100506  81.3219452  50.5585194  74.3564129
  81.2602711  50.8113718  72.8653574  17.9109955  12.8926951  41.9877225
  18.7661743  12.7507359  42.3936063  17.4508572  12.0610959  42.1014959
  62.7358341  61.0057354  82.3597240  62.9845619  61.8457603  81.9740772
  63.1527996  61.0049105  83.2213306  18.6898987  90.9771360  39.3751222
  18.6230461  90.6602110  38.4743959  17.7827541  91.1099304  39.6502573
  37.9866076  12.5768573   1.6072065  38.2156181  11.6678054   1.4137918
  37.7572632  12.9521615   0.7570344  94.7225475  47.0503473  65.4629087
  95.3872585  47.6007748  65.8769369  94.7615051  46.2242556  65.9448671
  31.0869885  47.0240600  48.8288957  31.5368700  46.9922358  49.6731836
  30.1736641  47.2052104  49.0508443  54.9741745  48.9774901  26.2318212
  55.7652569  49.3774707  26.5929872  54.3897534  49.7157294  26.0595304
 102.1518231  17.4905259   8.8520986 103.0587578  17.7934701   8.8961107
 101.9267845  17.2759253   9.7573740  49.5886803  11.3057572  23.6419660
  50.0390339  11.5813834  24.4403726  49.5211601  12.1036155  23.1174642
  69.9629307  42.7284241  84.0683174  69.8419857  43.5654354  84.5166683
  70.8671284  42.4813175  84.2622089  78.6679658  35.4602261   9.7112048
  78.0656537  35.2427598   8.9997638  78.4002408  34.8922916  10.4337085
  52.6097489   7.6713378  40.8770448  51.6962528   7.4877269  40.6578428
  52.9621887   8.0985791  40.0963480  36.0982410  86.2175669   0.3953916
  36.7613784  85.5640878   0.1730615  35.6545440  85.8569516   1.1630708
  74.9057627  64.3890619  76.4494562  75.3276300  65.2413177  76.3402510
  75.0976324  63.9209652  75.6368637  12.1824638  99.7873463  19.8795682
  12.8434173  99.5851673  19.2173749  11.8552963 100.6529917  19.6349412
  13.0817310  70.9371580  34.1394311  13.4468834  70.0887264  33.8883192
  12.8920833  70.8492876  35.0735361  47.7452660   2.8343970  26.6862184
  48.6262226   2.4798114  26.8062192  47.5036621   3.1725222  27.5485021
  98.4396648  63.3163881  72.1433878  98.3310604  62.9113007  73.0038166
  99.2475033  62.9351759  71.7994308  90.4991913   0.1163632  34.2706377
  91.0732079   0.3276402  35.0069219  91.0604572   0.1946599  33.4992296
  43.5397530   3.3721597  28.6007387  43.9955139   3.9506919  29.2121488
  43.5658646   3.8383729  27.7651578  18.5764496  78.1445755  22.0325738
  17.9975502  77.4380197  21.7464239  18.8681595  78.5589255  21.2205106
  80.8322048  58.4358978  64.0339947  80.7514858  57.9307652  64.8430395
  80.5913258  57.8199577  63.3420229  32.5568954  92.6594223  19.4783765
  33.4540550  92.8887714  19.7207338  32.5280563  91.7048134  19.5425302
  41.6984034  10.8436639  16.0431272  41.5008688  11.7422778  16.3071424
  41.5139675  10.8238942  15.1040727  55.3037453  25.3036506  75.0703889
  55.9538937  24.9822909  74.4456750  55.6914711  25.1329047  75.9287340
   9.2029659  93.1754793  10.7124216   8.9888088  93.2642664   9.7837240
   8.5407726  92.5749315  11.0545713  69.3380928  10.1947648   1.8062097
  68.5316944   9.8541886   2.1934682  70.0331211   9.6625811   2.1934396
  96.0166168  89.7438526  84.3900967  95.1654243  89.5566273  84.7859001
  96.0850334  90.6984043  84.4095230   6.7507442  64.6873236  72.4262619
   6.1825641  64.1574717  71.8670940   6.6050513  64.3453550  73.3083391
  37.4845306  66.3096453  10.0509054  37.8326217  66.5218581  10.9169466
  36.6090862  65.9629263  10.2230150  43.7079430  35.5763251  36.5446741
  43.7887097  35.4467399  37.4896127  44.6111775  35.6228263  36.2312299
  76.2884808   5.5753238  27.5928957  77.1802807   5.3044373  27.3748380
  76.3641548   6.5077931  27.7953798  54.7160053  27.3456532  29.0272409
  54.3060589  28.0735881  28.5600263  54.2171002  26.5752942  28.7554533
  14.0586456  67.7382326  78.5756969  14.1437419  66.9552755  78.0316639
  14.9193175  68.1548595  78.5321331  85.0813389  57.8988791  82.2307491
  85.5887222  58.2540989  82.9605579  85.1872826  56.9504309  82.3045921
  67.8586006   2.3609168  24.3282301  68.4032440   1.7460734  23.8367540
  66.9796562   1.9835145  24.2928201  38.9014999  79.5521773   6.5946657
  38.4617321  80.3754844   6.8068010  39.7884647  79.6589316   6.9383604
  99.7461701  18.6918027  38.4827978  99.3167877  18.2893617  39.2377073
 100.6249905  18.9082438  38.7943441  95.7867718  54.4351339  81.8922329
  96.6287327  54.8416328  81.6870594  95.9698963  53.8710976  82.6436043
   8.8434974  59.5970668   3.8907129   9.2758934  59.6927495   3.0421239
   7.9333059  59.3947382   3.6742956  20.4338257 101.5062775   6.2929517
  20.6483833 100.6127657   6.0249216  19.9800769 101.4029850   7.1294195
  47.4003220  15.7519776  45.8921606  46.8754673  15.6737573  46.6888029
  46.8757057  16.3047988  45.3130228  33.7465183  99.1611256  30.1894552
  33.0517284  99.8096813  30.0759584  33.3703510  98.5078920  30.7793886
  76.7364073  41.4621782  80.4058266  76.4142418  40.8375406  79.7560024
  76.5512037  41.0479403  81.2486362  16.0548584  80.8539213  36.4676458
  15.3410331  80.7322945  35.8416349  16.8421070  80.9074534  35.9257871
  84.0406426  88.0824984  10.5720979  83.3422287  88.7126602  10.3950578
  83.8571270  87.3500289   9.9838430  16.9076435  61.6763057  27.9043657
  17.0480148  61.1257793  28.6747247  16.2418453  61.2124850  27.3966199
  40.6939268  20.1811559  16.0720903  41.4907599  20.7058389  16.1495573
  40.9432125  19.3171794  16.4001733  71.8277168  32.3343301  84.2173386
  71.5444899  32.7777934  85.0169373  71.2423944  31.5807796  84.1412163
  84.6034336  43.1241274  64.3592834  85.5418110  42.9755974  64.2426062
  84.2260933  42.9631090  63.4944582  66.4266253  51.4684248  80.9674931
  66.3309813  52.3274088  81.3788700  65.8933258  50.8840799  81.5063477
  44.2421818  24.9868781  21.6684610  45.1077080  24.9794442  22.0771677
  43.7960863  24.2250449  22.0383817  10.6428901  84.9589743  17.1574384
  11.1342041  85.1724137  16.3641626   9.8608009  85.5088033  17.1099931
  92.6267433   4.4319207   4.4817812  92.0795155   4.8635013   3.8256437
  92.1154881   4.4804961   5.2895433  58.9065639  87.7717794  22.0209486
  59.3907539  86.9460739  22.0184690  59.5842449  88.4467043  22.0591623
  21.9298935   7.8498322  28.6641389  22.4730873   7.7413089  29.4447786
  21.3608170   7.0801837  28.6594469  95.9054812  70.1622368   3.2971269
  95.5477246  69.4957270   3.8836462  96.3338431  70.7891656   3.8799650
  22.7366543   7.7820880  34.6734697  22.3806048   8.6026627  34.3327028
  22.9861832   7.9853351  35.5749399  55.0492573  44.3512446   5.0034601
  55.8153343  44.4246013   4.4342691  54.3759155  43.9567954   4.4491560
  14.5230858  97.8657450   8.0023080  13.8589756  98.4875978   7.7048379
  15.2966873  98.0723585   7.4778158  25.7390873  93.8426794   5.6635076
  26.2696449  93.3707155   6.3053686  25.6466476  94.7222961   6.0295278
  46.0713855  78.9591397  18.5496599  46.6423694  78.6626996  17.8409082
  45.1860611  78.7686957  18.2395536  72.7811623   1.9014222  42.5686628
  72.4508381   2.4435527  43.2850534  72.5301838   2.3742206  41.7751295
  10.2534946  73.8916016  84.5593357  10.6472190  73.0192137  84.5716286
   9.5461162  73.8442087  85.2024460  66.7906237  19.1196179  78.9469957
  66.7699718  19.4388103  78.0448198  65.9946775  19.4729173  79.3443346
  26.8429080  99.5905984  83.3406734  27.3214714  98.9268772  83.8373375
  26.2970916 100.0302953  83.9925766  83.9333685  61.5708996   0.3339559
  83.1903370  60.9678031   0.3542215  84.4295081  61.3136662  -0.4431647
  90.3493126  36.2618674  25.9207994  91.2895545  36.2180449  26.0947305
  90.2864035  36.6034593  25.0288373   2.1008865  52.4426754   2.8961164
   2.8757803  52.1827040   3.3943063   1.4250652  51.8189861   3.1616575
  91.3230189  34.1745414  19.8240453  90.7597216  34.9466957  19.8760587
  90.7253178  33.4344543  19.9301607  67.6417065  33.4989715  81.6405392
  67.3247147  33.8765788  82.4610043  67.0594597  33.8579464  80.9709454
   9.6265880  63.8615097   3.2055074  10.3293602  64.4709374   2.9798013
   8.8959591  64.4234563   3.4636289  99.0309437  44.1837115   5.4639322
  98.8565787  44.9296369   6.0378820  99.9852761  44.1502912   5.3978426
  13.4103862  65.2594198  18.3177263  13.8550846  64.5539261  18.7875635
  13.2446663  65.9247436  18.9856416  42.6630831  10.4120123  88.1962395
  42.4476814  11.3394809  88.0980778  41.8563509   9.9527532  87.9627991
  91.2337836  14.1198386   3.6514741  91.1916836  14.7889699   2.9683095
  91.0160073  13.3037414   3.2011587  60.9458303   4.3720531  82.3861122
  61.6819811   4.8665431  82.7463818  60.8049870   3.6618927  83.0122566
  83.2635268  77.3442568  21.1286146  82.3445281  77.0874704  21.2043649
  83.3937605  77.4947657  20.1923353  78.7635478  77.8533782  20.5038911
  77.8506764  77.5685109  20.4620534  78.7698277  78.7028374  20.0627405
  53.3588076  21.7122316  70.5520010  52.7602911  22.0545363  71.2159586
  52.8981924  21.8443441  69.7233820  97.1673115  84.5353044  12.6131040
  97.6711472  85.0389422  11.9737798  97.6227292  84.6778215  13.4428770
  90.6966504  43.2401158  25.0982458  90.0469931  43.0236323  24.4294244
  91.2179240  42.4428870  25.1927358  70.4181369  53.0752268  26.1940557
  71.2896880  53.2119606  25.8226568  69.8224433  53.1806196  25.4522497
  48.8682985  37.8293991  79.9555683  49.0532255  38.7568617  79.8077631
  49.5542192  37.5414324  80.5579090  34.7200433  86.5674884  79.9040842
  35.3398410  86.0358495  80.4035378  33.9855472  85.9788961  79.7300148
  35.5654851  96.8212060  57.2479963  35.1145116  96.4493413  58.0060053
  34.8973266  96.8523211  56.5632915  68.5411596  14.4442892  66.9889545
  68.5105658  15.0056446  67.7636623  68.2040930  13.6008143  67.2908974
  47.0784855  26.6944385  32.5243545  46.2286854  27.0573330  32.7741075
  47.0322943  25.7747316  32.7855778 104.1403063  94.0476049   8.8612443
 103.8780793  93.1598057   8.6177713 104.0628251  94.0671314   9.8151094
  61.6295290  16.1067891  64.3194437  61.6945362  16.6589296  63.5402489
  62.5203705  16.0793567  64.6685553   9.1224662  61.7794324   7.4457532
   9.3188945  61.6565098   6.5170270   9.9152652  62.1750773   7.8079206
 104.6196898  74.7969331   6.5904218 105.3646143  74.2115869   6.7271310
 104.2752322  74.9555124   7.4692995  25.3082840  47.5049837  10.5700285
  26.0265342  47.2947059  11.1667902  24.8133461  48.1881697  11.0222799
  76.0830887  38.9553894   6.6260034  76.0805043  39.9116458   6.5835935
  76.7806633  38.6909272   6.0262662  76.2694645   0.2824817  58.8010263
  76.7943716  -0.2016821  59.4384336  76.8937778   0.5396147  58.1225395
  48.3515549   1.6276415  70.5431128  48.9393997   2.3323610  70.8152199
  48.9353371   0.9081099  70.3028965  98.3482989  47.8109966  41.9833070
  98.4808739  48.6493328  41.5407545  98.7644537  47.1684076  41.4087373
  69.4097042  11.5158331  77.5730467  68.5220814  11.2731409  77.3095083
  69.3261480  11.7672944  78.4928370  46.2209217  75.9470636  57.6751280
  45.9156887  75.4581840  56.9108868  47.1566192  76.0752947  57.5193739
   3.5908071 100.0820027  83.0517769   3.4800211 100.6625851  83.8046932
   4.4270841  99.6434652  83.2084942  27.4497310  44.4404282   7.0253736
  26.5321914  44.1720880   6.9769937  27.4445240  45.2099492   7.5946218
  22.7551293   4.5360458  69.2994833  22.7735877   3.6021480  69.0903759
  22.2739863   4.9344194  68.5741997  62.7422460  39.9962439  26.6313535
  63.3396920  39.8944367  27.3722536  62.0159205  39.4040407  26.8262369
  60.2210569   4.4303963  75.7140446  59.7898722   4.9251795  76.4108229
  60.1314974   4.9826953  74.9374008  50.3597975  22.5114775  71.0282612
  50.6292963  23.4240007  71.1326694  49.9965429  22.2700334  71.8803120
  96.5953406  34.7026075  52.5383550  96.0157355  35.2938820  53.0186540
  97.0174273  35.2598025  51.8844396   0.3061907  54.6388118   3.4370023
  -0.3686627  54.0878419   3.8335306   0.9839241  54.0234639   3.1572515
 108.2809075  66.7223717  25.2712137 107.8659781  67.5528611  25.5043489
 107.7514037  66.3845314  24.5489103  67.1441841  10.2427149  70.0030804
  67.7209806   9.8916864  70.6815434  66.5338755   9.5296764  69.8151016
 107.6705416  32.7179362  27.5050241 108.4420165  33.1203367  27.1061021
 107.2341832  33.4372891  27.9614812  99.7118863  34.2386831  11.3466054
 100.0736722  35.1248588  11.3404829 100.0394972  33.8518323  12.1585447
  62.4769886  98.3981193  25.9532625  62.5999030  97.4972881  26.2526495
  63.3467420  98.6757149  25.6656820  87.7110823  80.1483001  31.4465314
  87.2952279  80.6776895  32.1270067  88.0904349  80.7879104  30.8438570
  37.3397056  55.2740134  12.2611887  37.6405994  54.8535193  11.4556581
  37.9955951  55.0343917  12.9158765 105.5572613  60.6774177  26.7103273
 104.8650321  60.0460805  26.5142232 105.3137835  61.0433926  27.5606329
   2.4737893  17.2509038  56.8063259   2.5387192  16.3609707  57.1527863
   1.6958693  17.2347200  56.2488222  49.7132826  42.0619154  83.3504581
  50.1462936  41.6272116  84.0851402  48.8394833  42.2738171  83.6787891
 101.2534007  54.0104826   8.9707071 100.9989842  53.7986825   8.0725748
 102.1688517  54.2816825   8.9026910   1.4626161  74.0672649  23.4912282
   0.9796564  74.3730654  24.2590028   1.1230508  73.1870331  23.3296186
   5.4924814  75.3559221  23.7447816   5.7679264  75.9836735  24.4128400
   5.5421297  74.5051373  24.1806013  22.4692718  96.5612961  85.7988548
  22.4564783  95.8719791  85.1348495  22.5396387  97.3743851  85.2986908
  91.5642985  87.8571571   3.0648023  90.7707842  88.3462013   3.2825262
  91.5945014  87.1503223   3.7095529  99.9829920  22.4851693  12.5214273
 100.3120001  22.9383720  13.2976991  99.0727576  22.7712525  12.4448568
  91.0594614  21.0806002  13.9166814  91.7809971  21.3429893  14.4883234
  91.0967644  20.1241697  13.9075548  81.7776585   5.0078350  86.2577915
  81.4409733   4.2080477  85.8537865  81.2186623   5.7040691  85.9127998
  43.0460691  11.9198251  61.9608498  42.9213333  11.8643498  61.0134363
  43.0581045  11.0088897  62.2545910  79.6627673  51.3415344  10.8568937
  79.4618042  51.8605475  11.6356546  79.1092165  50.5647842  10.9373266
   0.2529661  27.6255001  12.0579034   0.6820957  27.6818074  11.2041456
   0.3363220  28.5050119  12.4263364  90.7360610  36.3520850  11.5805036
  90.1648720  35.8952381  10.9630376  90.3038319  37.1930553  11.7294199
  81.2533720  10.2561296   3.4672910  81.3420065  10.5092348   2.5484258
  80.8579501   9.3848909   3.4386617  14.1164962  92.1673555  69.8532581
  13.6699001  92.0566363  69.0139008  13.5017196  92.6706285  70.3871155
  22.1753478   2.6990980  87.2997379  22.6738429   1.9042961  87.4895287
  22.7566338   3.4140342  87.5589657  92.8873213  96.6977133   5.5405027
  92.1273430  96.8817009   4.9884016  93.5105141  97.3929752   5.3296072
  55.6436634  31.9766092  67.3097992  56.4308357  31.4630532  67.1285582
  55.4465294  32.4133086  66.4811420  25.7806198  73.5762156   5.3072340
  25.4196636  74.0785302   4.5767385  25.7789509  74.1885413   6.0429555
  82.8544903  31.4898610  61.2726688  81.9427299  31.4641809  61.5629387
  82.8351974  32.0080090  60.4680681 100.3847130  94.2228331   7.1595842
  99.6023091  93.9088501   6.7062742 100.1834210  95.1314701   7.3833829
  13.0760853  63.6839367  51.5797025  13.8101856  63.0877401  51.7276269
  12.5999061  63.2995428  50.8436758  96.9319066  73.0215038  11.0860807
  96.6339072  72.3895992  10.4317647  96.6059264  73.8644685  10.7708341
   2.8839199  85.1258458   2.6031477   3.6926166  84.6487345   2.7891809
   2.7857820  85.0694193   1.6526681  85.6061649  16.3672543  79.9707794
  84.8048782  16.2655103  79.4571590  85.6528664  15.5722165  80.5017853
  64.5480625  71.4071304  65.2799892  63.9299194  72.0301301  64.8978901
  65.4101364  71.7500956  65.0445509  87.1753224  64.9309339   9.1241247
  86.5735301  65.0203623   9.8630983  87.3956355  63.9996089   9.1059953
  88.7453938  23.8885880  39.7031212  89.4109631  23.3402824  39.2876554
  89.1783047  24.7319865  39.8353910  27.8834621  63.3360208   1.9771558
  27.2043316  62.6765515   1.8353349  28.6453430  63.0006970   1.5045911
 107.2212180  56.1402048  17.6818067 108.0088814  56.4192827  18.1486398
 106.5777548  55.9800596  18.3721239  16.4939682  39.4915832   0.5749208
  17.3341743  39.9249269   0.7248670  16.2120144  39.2082442   1.4446622
  45.4495621  15.0854850  74.7752953  45.2711916  14.4046915  75.4240942
  45.6906605  14.6045637  73.9835787 100.4989147   9.5662588  74.1067600
 100.9970093   9.2473018  73.3541584 100.1319504   8.7761521  74.5033741
  40.3025866  49.1380978  86.6176891  40.6043005  48.3285952  86.2054920
  39.4484448  49.3057299  86.2194729 107.5002583  60.8344163  31.6480238
 107.3655232  60.3228272  32.4457437 108.3846959  61.1893381  31.7376215
 101.6795453  67.2294284  23.5054666 101.7862328  66.5648784  22.8248674
 101.7651709  66.7463781  24.3273908  70.5840826   1.2481762  70.6298256
  70.7285547   1.7378527  71.4394999  69.8573685   0.6591077  70.8326006
 103.8469808   4.9251849   3.7281209 104.2796652   5.1034266   4.5631296
 103.0986659   5.5218894   3.7139493  73.8683017  64.7638394  13.0550844
  74.0558752  64.0237988  12.4776823  73.2303318  64.4228436  13.6819440
  90.0429821  55.3955078  67.8367519  90.2224922  55.2647638  68.7678385
  89.2804050  54.8445702  67.6601791 105.7984122  86.0240711  20.8373052
 104.9623116  86.3192667  21.1978990 106.3781079  86.7805470  20.9263593
  61.0991375  81.8275542  80.2862644  60.9055606  81.0323650  80.7826900
  61.2658588  82.4923904  80.9544182 102.9847535  54.2924012   4.7751981
 102.7068718  53.6400749   4.1321641 103.2063063  53.7818228   5.5539495
 100.8003815  48.7103897  39.3188268 100.9696349  48.4888102  38.4031374
 100.5539235  47.8792958  39.7247488  78.6084700  11.2646639  75.8031940
  77.7714062  10.9020352  75.5132627  79.1763496  10.5014181  75.9090233
  20.8144752  80.5040325   4.6984178  20.0103084  80.4025043   4.1892702
  20.7043163  79.9102844   5.4410917   8.0870430  72.0326342  68.3487588
   7.2207777  71.7004527  68.1132394   8.5677234  72.0559515  67.5213319
  87.0620497  55.3977387  27.7239877  87.4108513  54.9320854  26.9638998
  86.2740572  54.9097003  27.9629880  55.4740143  15.3545320  74.1134787
  55.0180817  15.7380295  73.3642912  55.5538988  14.4259048  73.8955307
  95.6640530  71.1994219  87.0470428  94.8614407  71.5531158  86.6636944
  95.4880142  71.1710596  87.9874897  89.4770773  55.7787554   5.8066064
  90.3216561  55.5430828   5.4227144  88.9537104  54.9798502   5.7428342
  98.6948832  59.9522354  36.2978727  99.3624648  59.9815895  36.9832212
  97.8759583  59.7948636  36.7677957 105.1856335  81.0507358  13.0738336
 105.5793627  81.7860140  13.5434991 104.2427405  81.2020625  13.1392366
  74.3231201  39.4989848  84.0990257  73.4141159  39.3988705  84.3817234
  74.6664238  38.6057711  84.0756035  99.1170462  79.0848006  38.4551698
  99.4031485  79.9741854  38.6634332  99.1102036  79.0532412  37.4985200
  62.2412928  52.1508367   5.7362920  61.2934192  52.1836972   5.8654577
  62.3581441  51.6072070   4.9571592  81.6014004  53.2029724  87.7588749
  81.7730427  52.3090124  87.4628830  82.4045944  53.6815596  87.5537682
  81.2627705  88.8318170   9.8556501  81.4617213  88.4803738   8.9878065
  80.3217133  88.6918320   9.9607736   1.0979358  80.1473464  26.7556840
   2.0279400  80.2697386  26.9463235   0.8536188  80.9212459  26.2481195
  15.1119367  98.8659773  83.6539268  14.2075960  98.5802022  83.5245800
  15.1350681  99.7551230  83.3002090 104.1870984  78.9120950  19.0072423
 103.7395056  78.6096705  19.7974569 104.1595133  79.8670329  19.0669614
  29.3709040  10.6887984  83.3660316  28.7767529  11.4216685  83.2044220
  28.8975525   9.9213696  83.0447483  13.9434520 101.3844599   0.9387476
  14.4103996 101.7483391   0.1865560  14.4080345 101.7319836   1.7000658
 102.5857552  81.9770373  24.6182996 103.3567341  82.1342338  25.1633722
 102.2606047  81.1232342  24.9038297  58.9478493  13.3973455  84.9293423
  58.3989096  14.0975797  85.2822876  59.2844534  13.7491906  84.1052437
  80.2422523  29.0123415  87.4859810  80.5949020  28.6462116  86.6749191
  81.0003757  29.0840411  88.0659199  24.2640583  86.8810803  87.5366306
  23.7044708  86.1056728  87.5794983  25.1407806  86.5348417  87.3701859
  51.5299320  50.3123474  77.8596401  51.5968037  51.2670755  77.8755236
  52.4199104  50.0069571  78.0354500  37.2383396  92.5228322  62.8922176
  36.7655031  91.8891592  63.4317684  36.7229263  92.5844450  62.0879889
  93.8863476  75.6977738   1.4896471  94.4682320  74.9674357   1.2792856
  93.1027707  75.5389751   0.9633237  27.2059910  79.0035500  28.9825613
  26.4505760  78.5853781  29.3957311  27.1717540  78.7131156  28.0711252
  44.2531482  80.9977163   1.5725786  44.6556083  81.1101641   2.4337465
  43.7422172  81.7963590   1.4408571  23.6405555  57.1173484   7.0988065
  24.3205063  57.7473636   7.3375017  23.5125152  56.5923156   7.8888494
   3.2359354  62.0225645   6.7290670   3.6198227  62.5711192   6.0450059
   3.3964149  61.1258413   6.4351923 100.9142741  60.1077451   3.5887510
 101.2709054  60.9387030   3.2748205 100.3405913  60.3523929   4.3148881
  37.8379909  66.5613116  12.9571706  37.2769539  65.8123506  13.1584913
  38.6211769  66.4239849  13.4900743  99.1230830  62.5090016   9.2179281
  99.6935090  62.6464797   8.4616643  99.3244179  61.6204275   9.5114118
  23.8106338  97.9255400  36.9706130  24.1353694  97.1827868  36.4615965
  23.7138597  98.6305860  36.3304734  71.1535215   5.0991929  85.1634789
  71.1647177   4.7965139  84.2554569  72.0774031   5.1770753  85.4013920
  96.8388653  51.6099882  85.5797195  97.1428299  51.5364504  86.4843845
  97.5061893  52.1411753  85.1452637  48.5780803  78.3370961  12.9609567
  48.2048885  77.6196398  13.4730226  47.8334705  78.7034906  12.4839288
  79.7355938  19.6566308  69.7310400  79.1913795  20.4218793  69.5454216
  80.6331158  19.9650669  69.6062946  18.0950824  69.6603621  45.0324995
  17.6951687  69.6301831  45.9016305  19.0182964  69.4599141  45.1865560
  26.2884355  11.7481112  63.6981821  26.4651942  12.6848388  63.6114168
  26.5873742  11.3703418  62.8710413  56.0941784  39.4455327  11.7444116
  56.7643921  38.8152744  11.4801771  56.5682499  40.0964691  12.2618753
  23.1724636  83.8734926   2.0577699  23.7880985  83.7915410   1.3294012
  23.5585586  83.3474196   2.7580625  47.3078918  11.3167179  76.9185114
  47.4598932  10.9448481  76.0496950  46.6027164  11.9506264  76.7876911
  54.4432497  34.8403716  77.3401833  54.7433043  34.1124511  76.7958164
  55.2449179  35.3022695  77.5855637  33.4803955  88.0530442  21.0388738
  34.0032093  87.6129307  21.7090971  33.2079307  87.3508181  20.4482252
  20.9114162  98.2176746  34.9473745  21.8493358  98.1088699  34.7901804
  20.7444088  97.7246250  35.7506448 101.1357792  75.2806367  58.8149911
 100.9189423  75.1810278  57.8880102 102.0781859  75.4480375  58.8238699
   7.1329347  98.4910740  26.1546785   6.5763513  99.2539944  26.3108808
   7.9781858  98.8597597  25.8980638  97.6267242   6.6477484  84.0646839
  97.9279900   6.4707053  83.1735420  97.6163769   7.6027477  84.1287231
  10.3276626  65.9407581  25.4650480   9.7572796  65.4699220  24.8574239
  10.2347080  65.4708232  26.2937528   9.1563980  58.4815146   8.1792623
   9.2879860  58.0668647   9.0318948   8.4751884  59.1359646   8.3337766
  66.8809938   3.2799378  86.5052414  67.8155041   3.4837937  86.5421867
  66.8343973   2.4571793  86.0182858  92.7725609  86.6582145  11.7693216
  93.5143193  87.1759547  11.4563257  93.0983075  86.2260164  12.5588304
  93.8908871  59.4225271  13.7166101  94.7430380  59.0756626  13.4525091
  93.7811669  60.2145667  13.1904298  77.5623655  20.5710459  81.2501431
  76.7834997  21.1034393  81.4118862  77.2224569  19.7539973  80.8852863
  95.9705067  14.1532230  80.7337666  95.8717060  13.3008659  81.1579800
  95.1107597  14.3323362  80.3529835   9.8709766  50.4118709   2.5109846
   9.9374477  51.3620761   2.4165136   9.4995014  50.1140331   1.6806013
  23.9927475  59.8402889  25.2362901  24.2582885  60.6246830  25.7163412
  23.0993549  60.0269993  24.9478036  13.6468975  79.0321888  21.1681348
  13.0910865  78.2740487  20.9877855  14.0179912  78.8568272  22.0328695
  91.6992386  83.2316460   3.2066614  91.0903748  82.7235164   2.6706296
  91.1531647  83.8992919   3.6217386  90.0221157  51.8284321  75.4130268
  89.7003555  52.2729206  76.1973286  90.6187630  51.1578465  75.7455254
  60.3556053  91.4944620  82.7651215  60.2174274  91.9593526  81.9398785
  59.7815124  91.9385023  83.3892059  21.2320137   0.8584411  35.8660299
  20.5363655   0.5742747  36.4589483  21.8419027   0.1211030  35.8415395
  89.4013127  51.2388987  35.6434804  89.5937546  50.6369935  34.9245245
  89.2987259  52.0916589  35.2209837  88.9622879   2.5685182  75.6349564
  88.9311504   3.3758047  75.1215839  89.8881817   2.4575993  75.8509445
  95.8289774  94.7347750   7.6548177  96.5924271  94.1770662   7.5053674
  96.1968525  95.5929722   7.8655321  98.6376572   5.3581029  77.1397114
  98.0018806   4.7899839  77.5747442  99.3565178   4.7734013  76.8997240
  87.7399930  77.7911438  11.6946394  88.3724936  77.2139419  12.1224386
  87.5380572  78.4554256  12.3535615  40.7032673  82.2752322  10.0029737
  40.7302181  82.3987450  10.9517938  40.1884643  83.0146350   9.6797163
  17.8837005  54.8176072  45.9456998  17.2147361  55.3919025  46.3183958
  18.5798256  55.4115458  45.6648428  20.7279626 101.6917228  87.4749088
  21.0180322 101.7876615  88.3820438  20.0489418 101.0180099  87.5105572
  50.7778629  51.2153024  11.4904100  50.1720007  51.5659912  12.1432287
  51.2787648  51.9758216  11.1955530  55.3044891  22.0872140  58.5037374
  56.0940647  22.6005888  58.6747503  54.6861887  22.3666883  59.1788864
  14.0925972  83.3793749  40.2442533  13.8112346  82.7078189  39.6228963
  14.5915500  84.0015115  39.7148973  26.8355362  67.0286633  42.8559000
  26.5763561  67.0856036  43.7755853  26.5782158  67.8713728  42.4819261
 103.1736811  75.6168260  31.6002351 102.9179772  76.2807144  32.2406274
 102.8334340  75.9437789  30.7674295  16.3603489  96.5929808  17.0100671
  16.7637245  97.4478496  16.8593198  16.1249057  96.5994944  17.9378397
  65.0399105  77.0474566  14.8894292  65.8563320  76.6970242  15.2456266
  65.2174942  77.9783143  14.7545415  19.4981996  88.7780602  78.8310480
  19.5973865  89.7115845  79.0179300  19.1495554  88.7478740  77.9401112
  22.2911874  87.5935895  49.5276499  22.6661293  88.0655832  50.2712059
  22.6744071  88.0151720  48.7584686  53.6908055   1.9907195   7.2036630
  52.8006077   2.3389537   7.2537023  53.6744118   1.3985021   6.4518434
   1.5851871  91.5943254  20.7022935   1.1512415  91.5270580  19.8517686
   2.2539608  90.9097303  20.6847745  91.8718728  20.6396069  21.5708238
  91.1685523  20.9868015  21.0221654  92.0798977  21.3533892  22.1737081
  81.4381178  48.7767239   6.9970495  81.8200406  49.3955622   7.6194650
  81.8428334  47.9371501   7.2151166 105.4014778  62.3707724  61.1275148
 105.4371929  61.6832495  61.7925501 104.8179245  63.0326843  61.4984179
  24.5998089  65.6886436  20.2983076  25.4010479  65.7408346  20.8193857
  24.3492595  64.7655882  20.3360540  80.3565979  23.9281535  67.8661966
  79.4574451  24.1007519  67.5869656  80.8838367  24.0765429  67.0811939
  72.2555017  19.4114780  70.0421524  72.1944237  20.0760317  69.3559504
  72.1901989  18.5784125  69.5752764  23.2229797  45.4513813  10.1150304
  23.0122654  45.2375288   9.2061311  23.7577240  46.2431569  10.0569994
  24.6799747  43.9511926   3.6362726  23.7279216  43.9331569   3.5388261
  24.8223011  44.0930135   4.5721513  97.3814352  49.3670125  27.2232801
  97.7576455  49.1975626  28.0869848  96.4352139  49.3520476  27.3670560
   7.5454847  93.9295114  20.6999094   7.5835268  94.6603168  21.3169271
   7.6951496  94.3307747  19.8438627  26.3584558  86.1125726  86.0084629
  26.1439506  85.3893191  85.4192924  26.1181299  86.8993980  85.5191994
 100.6253394  73.6042394  37.2496015  99.7685107  73.5876836  37.6759893
 100.5617484  74.3150987  36.6117364  85.6843281  50.8048058  79.2325068
  85.5548096  51.5764570  78.6811399  85.5556583  50.0633955  78.6409092
  69.1646719   9.1745943  71.9368649  68.5364389   8.4584290  71.8437958
  69.5445347   9.0485036  72.8063679  28.6547271  45.5721642  65.8189088
  28.6809055  45.5292590  64.8630315  29.0662662  46.4095868  66.0324365
  92.9433632   3.1726253  78.5324860  92.6407146   4.0374842  78.8093472
  93.7523842   3.3448619  78.0507660  94.4627055  88.7672175   5.1492769
  94.7640809  88.4138359   5.9862501  95.1353892  89.4012631   4.9008543
  49.8198271   2.0154591  85.7817936  50.3822279   1.2435113  85.8452988
  48.9366722   1.6820641  85.9402752  13.8304798  44.1356052  18.1286890
  14.5654289  44.4757630  17.6184064  13.4803573  44.9012716  18.5840971
  49.4144964  28.7967443  87.6675701  48.6544991  28.3974791  87.2442341
  49.2278385  29.7355270  87.6588345  92.3893984  61.3561262  10.1035291
  93.3273800  61.4970030   9.9747736  91.9706114  62.0429017   9.5846921
 102.2837409  53.4296132  44.9600202 102.5207289  53.2736377  44.0458280
 101.3299330  53.3509026  44.9769765  70.9242400  69.8635973   6.2356550
  70.8539542  69.3340684   5.4413682  70.0865897  69.7386552   6.6817075
  96.9855976  16.0380101  67.5078535  96.6627693  16.3021815  68.3693790
  96.3059521  16.3264060  66.8986368  52.1155854  64.7214891  23.6314565
  52.6766153  65.4741742  23.8183862  52.7126273  63.9733316  23.6256105
  24.9637119  28.4983219  15.9612924  25.0647918  28.2174457  15.0518304
  24.2340843  27.9755033  16.2937528  31.2433712  70.5460335  26.1633092
  30.7849495  71.1253871  25.5546743  32.1269218  70.4707982  25.8028776
  72.4741324  64.3306984  31.0777170  71.5945586  64.4367267  31.4401228
  73.0030211  64.9822689  31.5381128  14.6661750  68.4135760  25.3940946
  14.3262092  67.5536741  25.1466543  15.1605407  68.2534303  26.1979467
 103.7028798  39.1243042  14.3607980 103.8308342  40.0671305  14.2562181
 104.2529305  38.8893856  15.1081163  34.2167083  49.2345308  15.0799734
  33.7235061  48.7807222  14.3965799  33.7511532  49.0260011  15.8899194
  90.1626682  51.8317795  70.7007504  90.7488823  51.0802889  70.7893658
  89.5678520  51.7608929  71.4473343  27.4363796  39.0331210  34.4981081
  27.9213897  38.7986626  33.7068922  27.6723186  38.3566905  35.1329404
  64.9597255  63.8054205  40.4906065  65.0205223  64.7358777  40.7069093
  65.4498760  63.3655263  41.1852151   4.6700517  40.2942683   8.8277036
   4.0364925  39.6811594   8.4549696   5.4103653  39.7456337   9.0868646
   4.2050163  54.4403760  29.2524511   4.2180912  54.9101351  30.0863534
   3.5973350  53.7148322  29.3957693   3.1619151  35.8215141  69.7358227
   2.9247459  36.6929674  69.4187212   3.1451114  35.2694058  68.9540815
  97.4722394  41.9003548   5.1648695  96.8153771  42.3381950   5.7062227
  98.2873591  42.3648514   5.3547365  35.8899450  26.0620832  87.6332569
  36.0521173  25.1922131  87.9983044  35.7964826  25.9133410  86.6923141
  50.3477756  89.3522007  84.8484898  49.7193901  89.4228727  84.1299057
  50.8555023  88.5663552  84.6462536  47.4804068  21.3898182  67.6381683
  47.3605013  21.5341282  66.6995382  48.3334208  21.7778754  67.8331184
  22.0409767  94.3922514  80.5850601  21.6753665  94.6568037  79.7409153
  22.9615776  94.2067546  80.3997898  29.7459308  74.0589703   4.4238931
  29.3503277  73.9237822   5.2849657  30.6445018  73.7437262   4.5209772
  80.2025318  23.5786033  83.0177402  80.6569767  22.7369952  82.9802418
  80.3065491  23.9462805  82.1401215  27.1729366  56.6960384   8.4465295
  27.0436088  56.1005778   7.7083284  28.1023208  56.6140397   8.6604196
  17.7818195  71.8422235   3.0574209  17.4917308  72.6236905   3.5279447
  17.6251308  71.1225738   3.6688024  31.0761626  34.6950603  81.0474014
  30.6619819  34.4916534  81.8860340  31.5678867  35.4996347  81.2120342
  35.4683399   3.9918668  20.9051019  35.8175469   3.2629210  20.3923494
  36.0064936   4.0074689  21.6965467  70.5641222  11.3248563  70.8169985
  70.7541561  11.7015088  71.6762161  69.9309731  10.6294107  70.9950638
  81.5803298  53.3276670  35.3174955  81.6769846  52.4082501  35.0693780
  82.4719580  53.6194984  35.5074197  79.6749409  74.6517719  38.8474638
  79.4147309  75.2633823  38.1586629  80.5498847  74.3603410  38.5910017
  40.8255998  57.8630216  87.0334053  41.1603920  58.5273892  87.6356983
  41.1483089  57.0343310  87.3874760 105.0652178  49.4409379  27.3164922
 104.8109110  50.2922469  26.9603521 104.4866284  48.8160032  26.8795473
  26.3966513  40.3065252  76.2334490  27.2465658  40.7444859  76.2788820
  26.6101861  39.3807793  76.1167049  86.2533188   2.3681545  69.8744726
  86.9431591   3.0205402  69.9959087  85.4675770   2.8822073  69.6884871
  48.7548534  90.0428671  82.6433468  48.1728927  90.7787950  82.4536896
  49.2380039  89.9035163  81.8288612  10.0626938  79.2779101  11.5165311
   9.6326629  80.0552095  11.8730527   9.3734447  78.8240923  11.0315401
 102.7733572  31.8203784  25.5411893 103.0059107  31.3785626  24.7245199
 103.6033448  32.1627821  25.8730203  99.4331654  50.6401383   1.3087350
 100.2005061  50.5913498   0.7386190  99.0743168  51.5137754   1.1531145
  63.3529655 100.9850567  78.2548094  64.0813056 100.3689786  78.3335686
  63.7667648 101.8480907  78.2681894  63.7932158  17.2018158  78.1573200
  63.9978266  17.4562347  79.0571213  62.8466749  17.3235404  78.0833483
  95.9908541  90.8681835   7.9400045  96.3493498  91.0117353   7.0641595
  96.6797074  90.3943743   8.4060651 105.3531559  74.1295804  27.1069128
 105.6174906  73.8711657  27.9898435 104.3979796  74.0679158  27.1151716
 104.7805031  70.9415854   8.6546785 104.1568240  71.5059723   8.1978208
 104.3191536  70.1093127   8.7581617  36.4827196  90.9114880  83.5851479
  36.1207382  90.2151222  84.1331291  36.7667381  91.5819783  84.2064381
  64.9768837  68.9008404  12.7087385  64.2079791  68.4557594  13.0649931
  65.7209571  68.4501280  13.1080419  79.7091683  71.4444436  11.7636282
  78.8796195  71.2357177  12.1931821  79.5160206  72.2167791  11.2321931
  81.1271858  53.1807613  82.6236629  80.3427219  52.8385735  83.0523396
  81.8093109  52.5404644  82.8260231  84.2490157  37.6030935  10.7949049
  84.1750439  37.1651150  11.6428072  83.5649785  38.2724775  10.8106023
  18.4702388  78.7944545  29.7885400  19.1400806  78.9432324  30.4559309
  17.6406566  78.9093269  30.2520448  13.0719845  71.2351979  11.6829759
  12.4181167  71.2195147  12.3818666  12.6555244  70.7739057  10.9549600
 104.8746403  66.2949265  10.1945859 105.0610932  66.5629543  11.0943872
 105.6875094  66.4681651   9.7197515  67.0977163  13.9275897  83.2771015
  66.4046288  13.4765005  83.7591648  66.6472006  14.6349955  82.8157425
  89.9330807  37.1177816  78.6293888  89.7511578  36.1919951  78.7908030
  89.1234684  37.5668883  78.8724041  37.1055977  88.9320196  10.0870878
  36.9223682  88.3268370   9.3684751  36.3739673  88.8131727  10.6927568
  84.8042449  33.2805337   1.4715368  85.1697167  32.9555561   0.6487066
  85.1792153  32.7096726   2.1421701  14.8150007  90.2907295  75.2757215
  15.1715890  89.9085946  74.4738150  14.3951122  89.5569367  75.7245779
  75.6182528  18.6177862  71.1357689  75.5594110  19.4742239  70.7123470
  76.4738131  18.2787323  70.8725357  15.0541965  72.9930057  12.2877580
  14.4176284  73.7062015  12.2391111  14.5690624  72.2190250  12.0017034
 100.3506287  90.4522575  16.4778692  99.9948224  90.4007973  17.3649961
 100.4679259  91.3891710  16.3208372  37.9894114  28.5285718  22.4407465
  37.5018692  28.0625541  21.7615110  38.0466271  29.4285304  22.1197588
 101.7663249  75.0285472  17.3052103 102.2951897  75.6146540  16.7639047
 101.9593628  75.2937163  18.2044584  93.3645153   5.7040334  74.8597002
  92.7577686   6.4395547  74.7754717  92.9439163   4.9904382  74.3800068
 105.5218792  47.8042316  82.4806499 105.8264732  48.3283377  83.2214355
 105.0211143  48.4177494  81.9430065  59.7713852  18.7956387   3.2127172
  59.4370365  17.9259736   3.4321004  59.0318108  19.3829448   3.3687097
  43.3393431  21.0747153  20.4781896  44.1929341  21.4929206  20.5909711
  43.4349060  20.2187974  20.8959276  88.4079075  32.7112198  87.3212624
  88.7489605  32.3559284  86.5004826  88.7143326  33.6179328  87.3354244
  99.6763039   8.4840429  69.7643995 100.6100845   8.2743424  69.7823000
  99.3821144   8.3441645  70.6644678  41.9193554   1.4356334  17.0917303
  42.6818037   1.6633279  16.5597040  41.9257260   2.0739705  17.8049737
  80.8193398   8.1266797  49.4612455  80.6043720   7.1952921  49.5115948
  80.7703304   8.4330922  50.3667498 103.6957558  84.6015896  31.7888338
 103.3536633  83.7361969  32.0131094 102.9643067  85.1975168  31.9503671
  11.2685672  76.4345778   3.4599191  12.0009319  76.8941654   3.0492479
  10.5280487  76.5924968   2.8743059  95.7418402  95.9234728  23.6833173
  96.5597161  95.8761181  24.1783601  95.0672730  96.0626902  24.3480093
 105.3825434  95.2941193   4.0257532 105.2226838  94.4100059   4.3559438
 105.3782614  95.1985182   3.0733568  75.5067444   1.3974149  12.5834638
  75.3627491   0.4982716  12.8785020  74.8355293   1.9083316  13.0358774
  88.2564791  84.0611280  12.3180372  87.3157891  84.2194594  12.2388822
  88.6581334  84.7114457  11.7418462  99.3385315  17.1568012  79.4696236
  99.8525524  16.5012777  78.9981365  98.8082314  16.6489959  80.0837517
  17.2194854  94.8162521  44.1854745  17.2730056  94.4738592  45.0777322
  16.3533775  94.5489086  43.8778860 102.2717198  95.7019104   3.0631334
 102.9238327  95.1586069   2.6206380 102.0791014  95.2319111   3.8744432
  36.3378803  79.6395029  43.1464654  36.3433258  80.0395883  44.0160257
  36.1418430  78.7167300  43.3086092  79.0881785  77.2320141   2.9973299
  78.5383185  76.6382755   3.5085565  79.5438965  76.6624440   2.3775369
   6.4619438  95.1102365  28.3387834   7.2503606  95.5922092  28.0891210
   5.9930841  95.7048382  28.9243204  97.4927998  32.5378299  76.1905098
  96.9119453  33.2707644  75.9864330  97.2960186  32.3229599  77.1022892
  57.1782494   7.0722253  23.9732152  57.3607540   7.9672486  24.2593175
  56.2764168   6.9112546  24.2507154  41.5442896  17.8636605  24.1750223
  42.2276735  18.2431037  24.7275049  40.7247687  18.1695897  24.5636350
  14.4435580  36.7340159  68.8072777  14.4868358  36.3470650  69.6817064
  15.1620658  37.3661995  68.7892914  57.9375831  94.3913759   9.4699651
  58.1351654  93.9570488  10.2997571  58.7924186  94.6496881   9.1253358
  32.2860909   9.2343194  27.1341497  31.3719368   9.3978125  26.9021493
  32.2637081   9.0350682  28.0701143  84.3707077  69.8096783  78.6504221
  84.0541164  69.5747883  79.5226765  84.5286361  70.7525188  78.6988068
  15.4611675  65.9253098   7.5897295  15.8489315  65.0597097   7.4608881
  16.1852924  66.4681615   7.9014665 101.2426376  35.6302190  78.6446142
 100.7991791  35.8378458  77.8221416 101.9845009  36.2342858  78.6758566
  55.3768627  69.0547897   6.8903524  55.1828186  69.9870659   6.9875032
  54.8061935  68.7642301   6.1789114  18.2079021  67.2675957  31.9462759
  18.0663196  67.1185888  32.8811437  18.5747711  66.4438118  31.6252977
  71.7229128  37.9435229  87.5465298  70.8453178  38.2967019  87.6925468
  71.9485807  37.5139999  88.3716393  12.9775508  23.1836152  73.9044285
  12.2350486  23.5350704  73.4131050  13.7481769  23.5056257  73.4367943
  56.3502208  84.2854757  82.6978302  57.0688335  84.4247109  83.3146191
  56.1379043  85.1614983  82.3757458  43.8295031   4.2519004  18.2132608
  44.5913792   4.6312768  18.6512643  43.6296368   4.8653418  17.5061685
  58.2785948  96.2766327  48.7555868  58.1961664  95.6678881  49.4896680
  59.0421232  96.8115677  48.9726144  30.5035583  77.2613586  41.1011392
  30.6630603  76.3252152  41.2212450  30.7968513  77.6612677  41.9198400
   8.2674781  89.0446128  23.2496721   7.7664463  89.3764938  22.5046522
   8.9866535  88.5519756  22.8542978  79.2550611  25.9904671  63.5687542
  78.4267902  26.4487028  63.7109327  78.9979649  25.1177025  63.2714081
  40.7080173  35.4504347  80.0059128  40.7277298  35.2196193  80.9346581
  40.2001333  34.7503352  79.5958567   9.2899028  63.3088542  38.7769777
   8.6527244  63.3098747  39.4912797  10.0906841  62.9626550  39.1708356
  22.1713440  76.0678328  29.4646913  21.3864700  76.6141333  29.4228345
  21.8382065  75.1789822  29.5879442   5.6124298  92.4739326   8.4222681
   4.9867241  92.2857489   9.1217691   5.1486055  93.0776276   7.8420431
  25.0861351  81.7361106  46.2597066  24.4895832  81.5532483  45.5338079
  25.5893032  80.9287228  46.3654119  69.2707348   9.8726613  17.0521909
  69.5529080   8.9903266  17.2932130  68.4039593   9.7495753  16.6651804
  18.0656711  82.8478040   9.7741014  18.4810630  82.1739592  10.3122503
  17.5466148  83.3619656  10.3925306  23.8867466  66.8832280  32.7880174
  23.6305134  65.9610964  32.7722723  24.6341221  66.9139744  33.3852750
  97.0649624  24.4512278   9.3309003  96.9211579  23.5058410   9.2884332
  96.1864472  24.8291642   9.2908937  12.0514385  94.8804201  31.2132341
  11.6829197  95.7610859  31.1435777  11.9090454  94.4922222  30.3499490
   3.2777111  43.2493617  19.7030527   4.1771976  43.3068259  19.3807966
   2.7420465  43.2033916  18.9111024  29.4525997  95.5780424  31.0909063
  30.3142635  95.1700224  31.0055334  28.8628380  94.9942841  30.6137926
   2.0996841  14.4488978  85.5384636   2.9068454  13.9705372  85.3489876
   2.2465976  14.8338139  86.4024639  99.8442364  44.8981428  67.5629568
 100.3382587  44.1694403  67.9386806 100.3345680  45.6784964  67.8215313
   2.1929638  58.6674185   1.7003805   1.2583009  58.8550545   1.6141683
   2.2733299  58.2369937   2.5515539  86.7321682  30.0865221  74.6571112
  86.9130802  29.6629000  73.8180399  86.3115788  30.9136248  74.4220781
 101.3014603  10.1842904  68.0808258 100.5652142  10.4091728  68.6496830
 101.9553280   9.8107612  68.6717367  76.1144161  41.0770988  82.8469372
  75.4055452  40.5483913  83.2132626  76.0552263  41.9119358  83.3114529
  77.5422001  41.2138033  66.5088511  78.4927797  41.3167572  66.4638424
  77.2197104  42.0773315  66.7668295 102.4903488  12.6530731  86.0219097
 102.0603275  13.3705783  85.5566120 103.4058666  12.9246724  86.0873318
  64.5326615   2.4675614  10.1829034  63.8599968   3.0734593  10.4937822
  65.0183296   2.2240168  10.9709722  21.9775001  88.2117189  12.9532796
  21.7573158  88.1017722  12.0282632  22.9335872  88.1727399  12.9781705
  96.8309506  78.9679278  29.7852689  96.6640528  79.8686851  30.0627786
  97.7852448  78.8950385  29.7696573  29.4306080  81.2655701   8.4259206
  29.1092769  80.3837408   8.6139661  29.3591587  81.3488115   7.4750310
  59.5811701  41.2665081  82.3568344  59.9457169  41.7729616  81.6309929
  58.8727999  41.8125153  82.6978874  95.7874966  76.4104033  86.5270615
  95.9612846  75.4696655  86.4948654  96.6531658  76.8157530  86.4767170
  87.3995876   1.9779165  65.4672909  86.8103981   2.3206373  64.7952557
  88.1496525   1.6395432  64.9782753  67.5544977  16.4377570  65.3772306
  68.0562782  16.0242391  66.0796928  67.6064444  15.8184719  64.6492052
   6.7868121  22.4329686  71.0036516   7.3453792  23.1725001  70.7642174
   6.3490947  22.1894765  70.1879692  95.7076653  94.6779646   0.4285985
  96.5314206  94.4304289   0.8485681  95.9058579  95.4987348  -0.0222796
  45.3937999  48.4882569  29.0128595  44.6346943  48.3094235  28.4578783
  45.6003277  47.6446791  29.4153005  71.4721298   4.6436030  17.8728849
  72.3995400   4.4582326  18.0204565  71.2327099   4.0905101  17.1292478
  69.4662046  54.1092110  78.1067657  69.4750357  53.1602478  77.9817629
  70.3494453  54.3190479  78.4102297  28.6696712  90.1687278  12.3776228
  28.7336914  91.0934843  12.1389562  28.5966388  90.1721872  13.3320314
   1.4278118  47.0526017  26.2271101   0.9345953  47.8082587  26.5464098
   1.1444084  46.3284124  26.7852003  81.5793991  50.7672501  86.6806507
  82.3894596  50.2663660  86.5849876  81.0808754  50.5701590  85.8876419
  34.2488853  66.3980402   5.7944948  33.6782161  65.9378137   6.4099294
  35.0222961  66.6266192   6.3100606 106.5674973  77.0050240  70.2050018
 106.1946201  76.9617224  69.3244791 107.1023941  77.7988005  70.1998234
  39.7851944  28.6710000  67.9079723  39.9646783  29.3529916  67.2607470
  40.6061316  28.5774040  68.3912277  96.4145279  47.1614218  74.9961758
  95.7615185  47.1126127  75.6943321  97.1960926  47.5120163  75.4233313
 101.9326075  76.1653341   9.1316301 101.1190375  76.4810862   9.5248777
 102.6234349  76.5317382   9.6836549  12.2413150  58.7259681  10.1270849
  11.4553348  58.1897737  10.2317411  12.7724163  58.5254557  10.8977777
   4.3791755  41.3178205  70.9331226   5.2114280  40.8826780  71.1181355
   3.7141975  40.7116556  71.2596178  42.4770776 101.0980414  76.8892002
  42.1974603 100.2332336  76.5889454  42.4121086 101.0529529  77.8431273
  90.3852940  50.7022142  83.1296825  89.6706200  50.2329063  82.6993084
  90.9008503  50.0164223  83.5540962  29.0236847  62.9294099   6.8539411
  28.2187931  62.5480033   7.2045404  29.5150749  62.1814181   6.5144235
  55.7178020  68.0830669  86.2380409  55.8948517  67.1423817  86.2363911
  54.9212503  68.1777716  85.7157612  80.2435780   3.9334733   9.1490537
  80.8983135   3.9686210   9.8464185  80.1095390   4.8479468   8.9000589
  46.8765442  92.4580063  32.5643617  46.2929813  91.8058504  32.9521448
  46.3070671  92.9868854  32.0056039  43.0640555   0.8400494  46.1969167
  43.8930559   1.2889058  46.3627988  43.3030892   0.0880772  45.6550390
  77.4070406  43.7973022  79.3791962  78.0706739  43.2964468  78.9048910
  76.9762516  43.1526661  79.9405289 102.5377282  72.2367801   7.4420339
 101.8097361  71.8781890   7.9496461 102.9123982  72.9135479   8.0057985
  61.1897516  35.7127142  77.4997282  60.9385252  35.1204181  78.2084608
  61.7431211  36.3699627  77.9216719  72.8158951  20.3195930  86.9912148
  72.3271656  20.5390859  86.1979961  72.8572083  21.1404085  87.4819088
  71.3215446  36.8348956  78.7822008  70.6509066  37.4321508  78.4509039
  70.9098053  35.9713435  78.7509060  99.5748433  60.8544983  26.4368612
 100.5165204  60.9673788  26.3074857  99.2400845  61.7442573  26.5486414
   4.3245308 100.0595535  21.0451108   4.0827552 100.6838144  21.7292673
   4.2418710 100.5539717  20.2296716  63.9308063  84.6691193  22.4758131
  64.5533268  85.1551117  21.9349748  64.1999809  84.8539032  23.3756048
  70.5214787  33.5613894  82.0241356  70.8517694  33.1713247  82.8334522
  69.5851660  33.3625388  82.0271397  25.6947128  99.0674032  12.2543031
  25.5934230  98.6154331  11.4166338  24.8597233  98.9316667  12.7021867
  50.9955494  86.9262756  23.1307489  50.5650036  86.3592233  23.7705213
  50.4169647  86.9097437  22.3683816 108.2566412  99.7476400   4.8140604
 107.4679574 100.2694668   4.6660596 107.9406174  98.8456644   4.8669702
  11.1823551  66.0477377   2.6563341  12.0237724  66.2742318   3.0525095
  10.6544582  66.8412520   2.7451593   7.5935213  90.9136642  26.6100580
   7.9257385  91.8060030  26.5121061   6.9814817  90.8047022  25.8822137
 102.5455856  64.0125418  83.6613369 103.1018734  64.7352266  83.3706474
 102.3081303  63.5539198  82.8554153  45.1048176  65.8577372   6.2412054
  45.3275100  65.1465048   5.6405431  44.7273819  66.5354766   5.6804544
  92.4986362  28.6327267  80.4278946  92.6851940  28.5146236  81.3592815
  93.3089924  28.9900303  80.0647354  98.0812168  54.3733215  86.8080807
  97.4848366  54.0919209  87.5018978  97.6713085  55.1576900  86.4434242
  97.9809475  68.6522436  74.2218113  97.2779655  69.1758633  73.8372564
  97.6781082  67.7478886  74.1401815  99.9765881  87.1470751   9.2165453
 100.1558789  86.8933810   8.3111650 100.8245715  87.0823349   9.6558267
 104.8071249 101.5526928   2.0331365 105.1178559 101.1513103   2.8446657
 105.4768237 102.2008051   1.8147737  71.9103368  61.5403940   2.6739961
  71.9170173  61.5700973   3.6307127  71.1376961  62.0471217   2.4240285
  91.5239724  96.6999210  16.8208868  92.1817549  96.0229887  16.9799882
  91.6088875  97.2960056  17.5649911  54.8500443   8.5811335  12.0966798
  55.2832985   8.9982755  12.8413469  55.5558109   8.4132726  11.4722234
  99.2047413  66.9018210  21.1509306  99.9829491  67.4529220  21.2340337
  99.5228442  66.0128666  21.3084108  65.6071091   6.6781718  25.5499441
  66.4660454   6.9870049  25.2616960  65.7551956   6.3526494  26.4378244
  32.6065993  10.5552387  49.1921759  32.1774387  11.3942802  49.3596983
  32.3602629  10.0072253  49.9373150   2.0655862  82.0436276   1.8524820
   1.5971033  82.5727905   1.2069208   1.7686121  81.1484088   1.6893178
 101.7811974  94.8223223  27.3994047 101.9249638  93.9411367  27.7444822
 102.5162276  94.9693026  26.8041212 101.3352203  41.6133928  84.4300365
 102.2398949  41.5474796  84.1243553 100.8523941  41.9550180  83.6774349
  45.9448044  58.2515342  14.8378545  46.8619720  58.3763553  14.5940000
  45.9796898  57.7510013  15.6530172  21.5267460  73.6677588  23.4186918
  20.9514991  74.4290127  23.4949762  21.0375301  73.0515422  22.8735525
  39.3040538  42.4454784  69.0065098  40.2217054  42.5568247  69.2550039
  39.2160773  42.9357433  68.1891155  98.6885174  77.1225108  32.5864011
  98.7103470  76.7578091  33.4711343  97.9334267  76.7037190  32.1732694
  89.6306133  13.0477512  80.7562542  89.4054508  13.2981145  81.6522694
  89.0389347  13.5628438  80.2077770 103.5253628  65.9593095  30.2092248
 104.3058117  65.9845807  30.7628423 103.6192568  65.1545884  29.6994859
  99.3656635  18.9519918  68.9892340 100.3018093  19.1236818  69.0911245
  99.0155411  18.9977407  69.8789263 107.5131377  58.7061156  19.2903787
 108.4223279  58.6691691  19.5874292 107.1155175  57.9070379  19.6362192
   7.5364574  26.4898181  51.9356537   7.8616603  26.9744325  52.6943541
   6.5866264  26.4708471  52.0527220  89.9397087  28.8776422  83.8653660
  89.6549797  28.2536030  84.5329952  90.7823753  29.2012548  84.1838360
  22.7913761   4.4011504  29.8352224  23.1134224   5.0375754  30.4735643
  23.5472918   4.2180116  29.2772943  46.5761749  97.9896749   6.3471395
  46.1857883  98.8559593   6.2315065  45.9007065  97.4804224   6.7950708
 107.2023495  71.6274227  13.5475236 107.1849497  71.5628470  12.5926572
 108.0919465  71.9156469  13.7519151  53.9995194  19.6751553  16.6063482
  53.4708691  19.6288688  17.4029714  54.1061402  18.7630469  16.3363058
  83.1394958   1.0673637  46.4096880  82.4238682   1.6914211  46.5307951
  83.4073353   1.1840315  45.4981613  76.3077068  16.4975548  76.4230490
  76.5543270  17.2996151  75.9624958  76.7056131  16.5866363  77.2890520
 104.6265697  12.3004425  83.3015347 104.4507313  13.2213402  83.4945583
 104.9006844  11.9281495  84.1396809  43.8851730  81.6588057  17.9901487
  44.4985668  81.4971150  18.7069780  43.7609855  82.6079143  17.9906732
  76.9131470  23.4737253  83.3264065  77.7661228  23.5206342  83.7582207
  76.2815762  23.6489534  84.0240002  33.0533973  74.6973242  33.2186586
  32.9590789  74.0646686  33.9307577  33.9875118  74.9058761  33.2057172
  17.6152507  81.3127197  22.6801378  18.0045406  82.0502747  22.2103483
  17.4578373  80.6540717  22.0036489 105.2854117  91.5054192  10.6151277
 105.4928072  90.5871452  10.4419405 106.1338385  91.9484962  10.6056196
  94.1863450  57.5340654  21.8574792  93.7986811  56.6675748  21.9805318
  94.9404438  57.3804356  21.2882978  52.3048421  81.6511406  45.5261308
  51.5582689  81.2857832  46.0008699  52.9209813  81.9100274  46.2113935
  72.8111601  43.6874104  77.7199316  72.9704905  42.7686548  77.5037575
  72.7556229  44.1269541  76.8714285   7.2705928  71.8071426   2.9551679
   7.9524271  72.0611609   3.5771066   7.5491468  72.1917571   2.1240789
  69.1614246  25.3431916  59.6580076  68.2843161  25.6019425  59.9407911
  69.0404940  24.4802904  59.2617655  45.6293011  19.7695786  35.1361066
  45.6048966  19.3351514  35.9887010  45.0077534  19.2781884  34.5990354
   6.5769474 101.9562305  37.0056135   6.7994014 102.2476639  37.8898126
   6.6997806 101.0072149  37.0282251  47.0360462  91.7580856   7.5195009
  46.2178890  91.2731184   7.4114877  47.1972934  92.1499552   6.6612131
  75.9502411  37.1340775  85.0045586  76.0617018  36.2477756  84.6606445
  75.1086760  37.1101832  85.4600048  18.4684459  91.7698873  23.7439043
  18.5626976  92.4550070  23.0821115  17.7436344  92.0665707  24.2942316
  85.4736423  42.0632458  83.6471081  85.1847363  41.3676453  84.2377949
  85.2020645  42.8728533  84.0795517  11.7762272  58.6431916   6.5983850
  10.9996025  58.9097644   7.0903474  11.8639557  57.7071150   6.7780954
  51.0748863  10.3291137  18.6323816  50.6658077  10.6665570  17.8355104
  51.4793778  11.0963447  19.0373308   5.4534229  37.0012736  70.4650402
   6.1546882  36.4811635  70.0726938   4.6622737  36.7237639  70.0031853
  98.5660744  42.9268932  85.9139252  98.6614990  42.7803993  86.8550301
  99.1293335  43.6787128  85.7302380  34.0118591  67.1783687  19.0615350
  34.0464870  66.9793559  19.9971754  34.2122070  66.3466562  18.6321813
  75.3224945  22.2859573  81.2173843  75.6233597  22.7419877  82.0033550
  75.1741934  22.9828095  80.5781460  31.3043396  79.0257729  13.8324052
  32.1116916  78.8506998  13.3489210  31.5994636  79.3814053  14.6706468
  93.2653578  51.0345858   9.1909391  93.6601742  50.4716752   8.5249979
  92.7638777  51.6798055   8.6925012   2.7355369  44.4662285  61.8654823
   1.8478473  44.6968746  61.5915251   2.6584514  44.2890978  62.8029871
 103.6779507  58.7578054  42.5386888 103.8519104  58.3467145  43.3854276
 104.2892321  59.4933529  42.4994546  74.8106718  18.4753954  87.0336437
  74.0046644  18.9913058  87.0542812  75.5102682  19.1196704  87.1418285
   9.0188686  72.6795591  28.2893735   9.6009914  72.1332659  28.8175088
   8.6663810  72.0841731  27.6279336 103.2355118  50.0509310  55.0347233
 102.9783535  49.8521233  54.1344023 103.3176327  51.0043764  55.0553799
   7.0236913  36.3451125   2.7434236   6.0788767  36.4342917   2.8683645
   7.2150842  36.8806960   1.9735223  53.8948250   5.5827243   2.5487882
  54.4536400   5.7900864   3.2977563  53.4741116   6.4133078   2.3266298
  21.9601909  87.5142545  85.8185482  21.6393224  88.3401651  86.1806870
  22.8474704  87.4284691  86.1672783  20.8041946  64.2064752  10.0218088
  20.8492462  64.4458105   9.0961057  21.4556972  63.5123636  10.1217157
  30.2565376  65.6111075  25.6747610  30.7821361  65.2200951  24.9768430
  29.3536560  65.3881420  25.4482061   7.8559152  71.8762649  14.1769678
   7.9810993  72.5551261  14.8400766   8.0561153  72.3112287  13.3481390
  73.7948465  51.5400791  81.0616493  73.2651520  51.1407185  81.7516899
  73.9232635  50.8392906  80.4224014  32.9067564  20.2937133  13.3218175
  32.1420002  20.6181533  12.8462965  33.0233050  20.9151275  14.0404874
  98.1350287  82.9226793   7.7359945  97.9417523  82.7095784   8.6489374
  98.4142979  82.0923819   7.3501855  32.9593555  51.3190875  13.9038736
  33.5933105  50.6992162  14.2645532  33.4949676  52.0130323  13.5194379
  27.7846670  19.0225798  21.6485292  27.5244332  19.2083175  22.5507528
  27.1621943  19.5150334  21.1134988  67.1938602  84.4705070  20.3451902
  67.9456894  83.8838614  20.4278928  66.9661800  84.6966423  21.2469942
  22.1028026  47.2533464  87.8173637  22.0466884  48.1710863  88.0835247
  21.2032207  46.9315434  87.8759480  55.2680389 101.0875998  66.5441990
  54.7392074 100.3215409  66.3212109  55.3228942 101.0708774  67.4996805
  48.8323681 101.2827839   7.9759103  47.9391853 101.3500608   8.3134538
  49.3831340 101.6030277   8.6902887  11.1580459  56.8412544   1.8001634
  10.2106468  56.9701429   1.8453390  11.3832466  57.0366557   0.8905775
 102.5026377  87.7204575  13.4613306 102.9987868  86.9155587  13.6103422
 102.5324782  88.1791223  14.3009550   2.6596403   1.9527156   4.8648721
   3.1619859   2.5290210   5.4408533   2.9288435   2.2034318   3.9811880
  89.6273708  25.8893824  69.6094751  89.6002102  26.7822647  69.2655945
  90.1342392  25.3988314  68.9624214  20.7742969  70.7109775  19.7459871
  20.8366100  71.5303530  19.2551023  20.4925052  70.9769739  20.6212408
  24.9138157  33.1445159  15.2586252  24.1859047  33.6496056  15.6209165
  25.6438247  33.3159496  15.8535463  67.3841477  31.3177878   8.8926202
  68.1828594  31.4805705   9.3944055  67.4157810  31.9546897   8.1787759
  92.4356079  61.3980770  84.9490643  91.6166019  61.6687918  85.3640175
  92.9292107  62.2109699  84.8404694  27.6322166  92.3585667  15.5399114
  26.8972866  91.8244280  15.8412344  28.3657161  91.7462410  15.4826433
  29.2129986  73.3260073  27.2597868  28.4039013  73.7091364  27.5986272
  29.9106113  73.8091911  27.7026254  75.8125878   5.8185059  13.8287431
  76.0433769   6.6822345  14.1707117  76.0089588   5.8709294  12.8933794
  96.1091805  60.0332642  44.8756552  96.8543816  60.0811720  45.4745054
  96.4790535  59.6966457  44.0594959  97.3729992  29.1941690  60.2870226
  96.5883446  28.8406563  60.7060432  97.0945549  29.4041395  59.3956137
  57.8847504  33.4062297  26.7322523  58.6488438  32.9398353  27.0711881
  58.2489491  34.0638263  26.1396677  36.3522903  83.6800708  12.1184522
  36.3941662  82.7398480  11.9439298  36.6151897  83.7655057  13.0348665
  49.6152783  13.7811334  22.1049673  49.0982151  14.4141299  21.6067678
  49.7018910  14.1734750  22.9737550  41.5533439  80.9975566   2.5782281
  42.0218078  81.7506875   2.2182638  41.6032688  80.3334726   1.8906671
   6.9243566  84.5175899  16.7837984   7.2904245  84.1907109  17.6056081
   6.1425630  83.9841045  16.6408807  40.2440826  96.9414963  24.8290235
  40.4259864  97.8415741  25.0992090  40.6494037  96.8641294  23.9653284
  83.7791824  23.9159829  30.4696447  83.7051582  24.7293956  29.9705297
  84.1839504  23.2976825  29.8612958  14.2188819  50.9731388  81.9248104
  13.3954890  51.2389421  81.5154076  14.5404990  50.2591133  81.3743877
  32.3192112  91.4950909   1.9523984  32.3891632  92.3497690   2.3776800
  31.6333191  91.0399260   2.4408704  88.1201935   4.9854524  33.4582025
  88.2894707   4.1196973  33.8297540  87.6405525   5.4506308  34.1436178
  69.9661915  78.2098068  16.4031965  70.3147308  77.5876512  15.7647020
  70.7308094  78.4908570  16.9057924  98.0976200  92.0133114  86.9139099
  97.6484203  92.8192616  87.1686554  97.5116253  91.3121605  87.1989155
  83.6875534  42.5202417  81.3495636  83.5588455  41.6398287  80.9966564
  84.3670559  42.4144268  82.0153713  95.4643154  13.5579801  65.9613132
  96.2178135  12.9690111  65.9214878  94.8410130  13.1110835  66.5340281
  29.2206176  55.7365227  85.8641338  30.1003345  55.7737875  86.2395668
  28.8356193  56.5880966  86.0710812  58.2865612  94.3708195  18.5098630
  58.5582534  94.1055597  17.6311952  58.6261074  95.2604641  18.6071950
  46.8386451 100.4898466  11.1322767  47.0133583 101.2934078  10.6423742
  45.8969871 100.5130352  11.3024694 107.8403767  85.5124105   5.7005483
 106.9100245  85.2902807   5.6639749 107.8580388  86.4210643   6.0009939
  34.6332216  27.4397857  45.4163915  35.3172970  27.3903853  44.7486764
  33.9558172  27.9912526  45.0249368  10.0055210  79.5381941  42.7137453
  10.3537933  80.1788534  42.0936758  10.1278869  79.9443377  43.5718328
  84.9705887  65.7745218  74.1316700  84.0163326  65.7596302  74.0580940
  85.2235317  66.6334200  73.7932253  37.5373554  29.0271956   7.0298559
  37.4404526  29.1853244   6.0907918  38.0425120  29.7754771   7.3478586
   3.3082843   5.8098227  36.4350301   2.7128863   5.1715857  36.8279535
   2.9197097   6.0068042  35.5827219  98.0199631  97.3503364  16.2186700
  98.4139403  97.8171171  15.4816896  97.1288498  97.1543898  15.9292680
  94.9495888  32.5773341  34.4453317  95.3044224  31.6887576  34.4729311
  95.0444985  32.8448493  33.5311872  51.1846725  97.6244224   8.8012105
  51.0837452  96.6748632   8.7350065  50.2900974  97.9553570   8.8814336
  38.5404730  15.9127671   4.7530252  38.2390165  16.7905385   4.9872667
  37.7615166  15.4759986   4.4085104  64.0490437   5.8799607  37.7020055
  64.1492939   6.5310962  37.0075876  64.9040318   5.8544118  38.1316358
  46.3076306  21.5737492  28.3285219  46.2810421  20.6186444  28.2711393
  46.4446926  21.7540938  29.2585355  63.2493687  14.2885119  11.6472894
  62.9283619  13.4092767  11.4469701  64.1421414  14.1511495  11.9640237
  95.0135136  11.9461209  12.1456892  95.7922173  11.5603454  11.7444212
  94.3307209  11.8532330  11.4813119  38.7285034  72.0525803   9.8567564
  37.8155224  72.0211901   9.5709211  38.7757866  71.4237465  10.5768758
   9.2653553  71.8127312   4.6375448   9.0430729  71.2453164   5.3756887
  10.2223007  71.8341674   4.6316129 103.0997086  68.8812160  80.7908821
 102.4235153  69.5077944  81.0485554 102.6380253  68.2385826  80.2522755
  94.1195965  57.7284431  72.8448439  94.3726540  57.9843521  73.7318039
  94.9144936  57.8478432  72.3251247  14.2166702  70.7393016  20.7663423
  14.2975418  71.6923679  20.8031637  13.7056152  70.5121101  21.5431577
  70.8035366  77.6413788  12.8606874  70.7125847  76.6968597  12.9865533
  70.2547542  77.8357042  12.1008855  58.1407547   9.3242366   4.2160780
  57.9032326   8.4037406   4.1042596  58.2957173   9.6413953   3.3263380
  85.8878613  65.4885674  80.7536888  85.4642773  66.2414503  81.1659622
  85.4309750  65.3840351  79.9190855  70.9142876  16.2873418  10.1049120
  70.5202484  17.1302230   9.8801500  71.5901661  16.5026910  10.7476026
  31.7001144  96.4633478  23.0453283  31.7898552  97.1792139  23.6743909
  32.3420612  95.8127464  23.3296854  83.7302017   3.1792457  18.5873109
  84.4911003   3.6203200  18.2095319  84.0961170   2.6029260  19.2582780
  27.7604945  73.5258913  75.4135132  27.2373279  73.3161354  74.6398687
  27.3733409  73.0008602  76.1140060  20.6720249  62.4735118  38.4684450
  20.0101463  63.1109704  38.2005006  21.4402286  63.0022074  38.6842519
  15.0326530  81.6948832  23.8061601  15.3329841  82.1716799  24.5799142
  15.8108131  81.6203226  23.2537633   8.9698974  73.7982429   6.7208940
   8.0854980  74.1544093   6.8058664   8.9645664  73.3420910   5.8793909
  38.6883529  48.9790821  84.0851021  39.1988071  48.2300472  84.3927002
  37.8439220  48.6058903  83.8323212  54.3054199  23.8450724   8.2986623
  54.8923969  23.4213311   8.9248735  54.8189926  23.9073760   7.4933130
  31.2646858  79.0997638  22.8409368  30.7554809  79.2198147  22.0393545
  30.6715194  79.3656291  23.5435754  24.6297352  79.8684491   7.9391557
  24.5507328  80.7954873   7.7142412  24.6336166  79.4167246   7.0952589
  16.9398196  56.2127447  62.4848270  17.7524169  56.6024351  62.1622324
  16.4850696  56.9334936  62.9206610 104.0854454  61.7676449  72.9752541
 104.1518593  62.7216244  72.9334354 103.2052326  61.6034317  73.3136082
  90.0829124  71.8715000  69.4878721  89.7173595  72.4819136  70.1281881
  90.0144005  72.3321295  68.6515951  97.4620398  95.3661217  28.3883840
  97.6857289  96.0588993  27.7668935  97.4682339  95.7990421  29.2420656
  46.1572639  93.3132280  35.8928186  46.9947235  93.1495632  36.3265211
  45.5594532  92.6715864  36.2764246  49.4920826   4.4888408  19.2466432
  49.2261124   4.5058448  18.3273012  49.9653626   5.3109986  19.3743021
  52.1476078   7.3880059   9.7316343  52.1344280   7.5354058  10.6773263
  51.4899254   6.7079360   9.5860464  80.8151627  29.3577105  41.7758161
  80.5374336  28.8746650  42.5541288  81.4843464  28.8025720  41.3755018
  66.8002796   0.8298833  18.2577974  67.4528885   0.2231843  17.9081518
  67.3101616   1.5801913  18.5632402   0.8692725  64.1605425  75.5862236
   0.0414832  64.1721964  76.0667038   1.5010246  63.7964106  76.2063265
  11.6568263  40.9499645  68.9159822  11.1689933  40.9942913  68.0936241
  12.4970992  40.5597782  68.6752748  20.4504569  88.5881615  71.7542839
  20.0928004  89.1932201  71.1045027  19.8028930  87.8853893  71.8091440
  85.2309895   8.3045728  17.3458654  84.7411728   9.1218907  17.2547609
  86.1067677   8.5792071  17.6175863  44.9932567  55.0854318  34.9295694
  44.8610107  56.0262324  35.0463468  44.1503994  54.6946610  35.1600439
  29.3817608  96.5968288  36.1771471  29.5374481  95.6549896  36.2473375
  28.7497513  96.7874302  36.8703062  98.3075142  32.3865724  82.1527195
  99.1695309  31.9721460  82.1151161  97.6891613  31.6567254  82.1181488
  21.5550510  55.6750713  30.7861406  20.7057754  55.5718867  31.2154657
  21.4924232  55.1348872  29.9984151  18.6641391  47.3205185  77.9777050
  19.0112193  46.5623045  77.5077295  18.0820163  47.7464485  77.3484659
  43.2721130  86.6527428  16.0463220  43.6139290  86.8869986  16.9091779
  43.9936821  86.8366040  15.4448587  96.6686440  70.7396555  80.9847164
  96.6606617  71.6956806  81.0314560  95.7882977  70.5069256  80.6896591
  84.5521641  30.2675366  87.8555393  85.3538418  29.9928355  88.3006096
  84.8311806  30.9754252  87.2747803  80.8349514  14.6438176  10.1958162
  81.5040302  14.4839055   9.5302373  80.1309395  15.0901610   9.7253114
  27.9334529  76.0778475  76.7877293  27.1123393  76.5323210  76.9759989
  27.6740630  75.3245068  76.2572384  86.0125637  17.2957332  18.0233556
  85.5328369  17.5351817  17.2304136  85.9151459  18.0533559  18.6002046
  97.5988865  35.3439736  67.6395369  96.6845798  35.0871825  67.5197983
  97.7817154  35.9287286  66.9041014  20.2231208  89.9036206  18.9200098
  20.5034630  88.9919866  18.8390047  20.2858059  90.2533521  18.0311948
   4.7111114  27.1737075  86.7618275   4.4678767  26.2479281  86.7613411
   3.8986953  27.6349139  86.5532684  36.7420379 101.5260042  12.1732217
  36.6705982 102.3559297  12.6447660  35.8833019 101.1163248  12.2779733
  41.5867035  64.0738810  14.8155767  40.6549732  63.8807060  14.7116548
  41.9570343  63.2738794  15.1885206  74.6124840  16.5380723  26.4416009
  75.0508118  17.2498423  26.9079572  75.0939655  16.4590175  25.6181032
  49.1491604  17.4984223  24.8566133  48.2929135  17.9212195  24.9223119
  49.7754193  18.1925303  25.0621587   5.3440078  20.1737189  79.1878366
   5.0079711  19.5081663  79.7881269   4.5833667  20.7175183  78.9830351
  76.0265732  27.1633059  31.3780767  76.0450840  28.0917508  31.6101915
  76.4043331  27.1285445  30.4992658  98.8390406  70.9645642  19.1734296
  98.6022576  70.5151667  18.3621294  99.6187838  70.5040564  19.4835359
 100.7062912  23.3032662  21.6722852 101.2456608  22.5343043  21.8566972
 101.2792874  24.0475280  21.8566305  95.8524800   4.9439532   0.7961637
  96.5000343   4.8427874   0.0985414  95.0209522   4.7028548   0.3879148
  79.9087048  54.9916315  80.2215385  80.0434017  54.1239834  80.6026936
  78.9769888  55.0153971  80.0034142  40.8395243   2.9816300  13.7327749
  41.5889597   2.3880154  13.6858923  40.2524424   2.6814420  13.0389005
  49.2125416   1.9371325   8.2674295  48.9533043   1.6380698   9.1389734
  49.9580097   1.3830907   8.0360014  97.9581984  95.4610838  19.8587400
  97.3188218  95.3763784  19.1514570  98.7931927  95.2214588  19.4567472
  88.9962959  70.9340954  72.8523445  89.5700741  70.1946878  73.0530596
  89.3755531  71.3247490  72.0650816  59.3697643   8.1071193  20.0336916
  58.7728787   7.4698598  20.4259569  58.8207722   8.8703019  19.8537237
 104.4504547   5.0609452   9.8683244 103.6295605   4.8214538  10.2984315
 104.4658470   6.0175807   9.8973352   2.5567516  33.7497139  51.4124918
   2.9942592  33.5209870  52.2325516   3.0482276  33.2789230  50.7394075
  97.2151089  16.9701481  84.8502064  96.6152000  16.9818306  85.5959988
  96.7315006  17.4036002  84.1470051 103.5298061  40.4602480  87.2528362
 104.0333462  40.5545568  88.0613995 104.1506481  40.6772280  86.5573502
  55.1309673  79.3974174   9.7937757  55.6877319  80.1190938  10.0860483
  54.6135227  79.7684015   9.0790445 101.7026138  11.9160366  52.1874952
 102.4790573  12.4617684  52.3121548 102.0117092  11.0223174  52.3356724
  21.4533218  11.9882596  83.3059216  21.7168601  12.8148639  82.9015636
  22.2355350  11.6879189  83.7687206  56.4171688  77.2119464   9.0927011
  55.8815567  76.5079583   8.7269861  55.8061401  77.9383148   9.2162496
  65.0990009  11.1596448  19.0790254  64.3656540  11.7633302  19.1973764
  65.4747105  11.0647017  19.9542791  40.5275337 100.3169121  21.5235502
  39.7859375 100.8970703  21.6958410  41.0990326 100.8236088  20.9465868
  71.2617302  41.7354876  18.8157636  71.3791371  40.9122664  18.3416826
  70.9551907  41.4707953  19.6830637  81.9780922  60.5355978  85.1157284
  82.5114059  59.8032665  84.8066902  82.2021198  61.2589025  84.5301723
   0.5111678  62.6550341  81.1943436   0.9546359  62.0117092  81.7472458
   1.1466487  63.3638859  81.0947609  21.1043350  92.8131975   6.3982946
  20.8729736  92.1139635   5.7869226  21.1990158  93.5907616   5.8481485
  73.4912872  46.4588267  17.7494604  73.0817413  46.7654235  18.5584814
  74.1083527  47.1522338  17.5156766  25.4506771  76.0681642  15.9296304
  25.3545276  76.2238444  14.9900800  25.6522457  76.9293202  16.2957078
  83.9100742  11.2775952  50.3101617  84.2128277  10.7843120  49.5477659
  84.6985340  11.4146430  50.8353025  63.8246632  15.7336528  17.1804220
  63.4768295  16.2654216  17.8962976  63.9457512  16.3518912  16.4597684
  54.8106241  71.5790272  68.2810640  54.6470690  72.4646235  67.9567194
  55.2672577  71.1413527  67.5626183  47.1905661  86.1014366  55.7792044
  47.0420218  86.3335228  56.6958857  46.5455389  86.6162014  55.2942514
  75.5323792  14.9430520  22.5038988  74.7052765  14.7939593  22.0457441
  75.6187534  14.1931016  23.0924112  74.5482350  11.0865218   4.3543035
  74.0713596  10.2869088   4.5766527  73.9654446  11.5545184   3.7563306
  45.2789299  87.5925507  40.6684572  44.7293464  88.3762206  40.6615430
  44.6787826  86.8772568  40.4577428  35.0759308  81.5105809  29.1557485
  34.8079101  80.8538093  29.7984392  35.0500385  81.0496725  28.3172208
  43.7282610  -0.0128787  21.0326559  43.2420015   0.8102424  20.9851724
  43.7417030  -0.2296870  21.9648820  96.7896080  27.6196153  35.1688558
  97.4704456  27.5961501  35.8412725  97.2331524  27.3373277  34.3689615
  29.3096916  78.1786360   4.6414262  29.9339954  78.8982119   4.5482141
  29.4048111  77.8953041   5.5507738  98.4920979  40.1412207  40.2752668
  98.8351536  40.6062610  39.5121938  98.4065437  40.8161647  40.9485799
  58.8316918  29.5827014  13.6857301  58.0271912  29.5406253  13.1687814
  58.5711670  29.2886931  14.5586092  48.9566890  86.2629618  21.4070493
  49.3028442  85.3707899  21.3861448  48.3978264  86.3212527  20.6321222
  98.6874771  55.0165033  60.6774855  97.9195118  55.5338478  60.4349327
  99.4241047  55.6192446  60.5759764  90.4464722  68.5027313  80.7640648
  89.7945023  69.0223789  81.2343121  90.1169300  67.6052952  80.8113384
  84.2914867  60.1407671  71.8400574  83.4958267  59.8478413  71.3958025
  85.0000000  59.6791983  71.3915157 107.1271133  32.6723576  75.0418329
 108.0586815  32.7259994  74.8284054 106.7020988  32.4666309  74.2092085
 104.2319870   8.8684756   2.2759420 103.8096237   9.3802554   1.5860731
 103.5861111   8.2015426   2.5089246   9.5784362  85.8572960  78.4436989
   8.8390907  85.8265018  77.8365374   9.2815288  86.4261150  79.1539907
  98.0063439  11.8283994  18.6632902  97.2112656  11.3330132  18.4666521
  98.0126476  11.9022662  19.6176225  57.3974133   2.7415902  65.4822618
  58.2443810   3.0001456  65.1188928  57.5910187   2.4896247  66.3851816
   2.4100192  38.7428641  84.0772629   2.0854934  39.2752957  84.8035049
   1.8717750  37.9516912  84.1010952  99.7287273  48.5468864  72.2239876
 100.5363178  49.0559053  72.2941732  99.8220539  47.8577375  72.8817081
  12.9107364  55.4734850  86.3035202  13.1075271  54.7163343  85.7519531
  11.9847758  55.6537771  86.1413193  16.6228477  97.9569067  13.6326200
  16.1614124  97.1436657  13.8374120  16.1509697  98.3175386  12.8819543
  58.2665149  94.3535627  32.6214963  57.8123943  93.6000933  32.2442800
  59.1556350  94.2971863  32.2714693  74.5206165  17.8102357   0.5982095
  74.2119312  17.0103747   0.1725656  73.7438679  18.3667905   0.6542665
  13.9166148  77.8447580  79.3104649  14.5626720  78.1383562  78.6680889
  13.0938705  77.8071117  78.8226986  62.7603197  76.0401869  65.7352495
  63.0861521  75.6212187  66.5318251  62.2974157  76.8182468  66.0460234
  57.7364914  67.4741198   0.4775125  58.2361690  68.2692231   0.2921373
  58.1867878  66.7879511  -0.0150698 105.7556876  96.6662897   1.5163118
 105.1463183  96.0496582   1.1105138 106.5117463  96.1315502   1.7584974
  34.8691178   1.9195086   1.1932642  34.7769165   1.1751611   0.5985528
  34.5213127   2.6634652   0.7015497  20.5630104  76.2658681  23.7460023
  21.3154785  76.2893714  24.3371660  20.4291431  77.1790661  23.4922773
  43.6886406   5.0596578   5.1346380  42.8378582   5.1533181   4.7061235
  44.2704773   5.6373841   4.6407491  90.2643681  50.7724047  87.7512360
  90.0908375  50.8339596  88.6905575  91.0574818  51.2919140  87.6196480
  57.6643753  13.9385564  39.2458135  57.3056698  13.3329970  39.8945505
  58.0275154  13.3724124  38.5647470  66.3114158  92.8296532   7.6731950
  66.5450374  92.0012344   8.0919725  65.9492962  92.5752272   6.8244535
   7.9444687  97.6440967  10.6944734   8.8514606  97.8493036  10.9213716
   7.7578823  98.1934132   9.9331075  13.5343631  27.7887607  72.3050165
  12.9605849  28.3402896  72.8368330  14.3742355  28.2479477  72.3038483
   3.5618194  71.8174791  64.2061090   3.4674056  72.1030760  65.1148176
   4.3685325  72.2362757  63.9060116  67.5754166  15.8410508   8.6904890
  68.4258652  15.5795676   8.3375055  67.2142887  15.0376183   9.0650732
 105.2405739  34.6541548  75.9252405 104.9572372  35.0627804  75.1073265
 105.7110786  33.8674927  75.6495333  56.1532021  14.5702226   7.5354654
  56.1333752  13.8022191   8.1064397  56.5807724  14.2633063   6.7359525
  62.7822590  16.9530827  27.6285821  62.9999733  16.6290194  28.5025484
  63.3627987  16.4683062  27.0418912  17.8359302  65.5598402  63.2554007
  18.0557426  64.8493814  62.6527691  18.2603725  66.3316584  62.8807259
   9.3557342  33.2489824  83.5185146  10.0916084  33.1018639  82.9243183
   8.7606795  33.8153338  83.0271912  40.4227734  17.7813489  49.2332632
  41.1465836  18.0994470  49.7728426  39.7069454  17.6389319  49.8525697
  52.5143624   3.7074382  16.8070680  53.3420563   3.8265902  16.3412839
  52.3261357   2.7724702  16.7256052  29.8629848  42.8814717  18.5681421
  29.4259159  43.7328358  18.5875970  29.5309536  42.4598338  17.7755529
  72.2414208   8.9387233   4.7191125  72.0878315   8.8783891   3.7762434
  71.4727211   8.5269648   5.1138193   0.9297069  66.9163370  71.5584373
   0.5035289  66.2910700  72.1446466   0.3398116  66.9809246  70.8073807
  22.9119293  76.1878265   8.2716352  23.6380092  76.7829837   8.0850297
  23.1700412  75.7403959   9.0774995  77.9924965  24.1557097  66.2235022
  78.1059504  24.8320985  65.5557728  77.1364403  23.7722063  66.0329103
  57.5283909  76.1956072  84.8260784  57.2335434  76.3138199  83.9231205
  58.4092522  75.8300161  84.7444820  30.2342653   9.6774918  14.1544420
  29.7881937   8.8770348  13.8778097  29.6918249  10.3859431  13.8079053
   4.2970260  27.3866898  26.7893678   4.6239265  26.8325383  27.4980909
   4.2837222  26.8128735  26.0233480  14.5794479  72.6919712  15.3536302
  14.7043506  73.3212222  14.6432191  14.6137993  71.8368281  14.9249345
  26.2675365  27.1004891  49.6977758  25.4658111  27.2053862  49.1854620
  26.6559299  26.2888312  49.3712854  56.6673652  94.2210783   3.2044775
  56.2608234  94.4196667   4.0479833  56.0576145  94.5729889   2.5559503
  78.9002132  12.3746514  87.1903992  78.1285667  11.8106437  87.1385479
  78.9782810  12.7547634  86.3153839  62.6028156  11.2243277   0.7422811
  63.3656883  11.5937621   1.1870080  62.0013237  11.9625861   0.6452924
  18.9723380  53.8298130  67.8965855  18.6355575  54.2948866  68.6624289
  19.7224696  53.3356237  68.2272053  16.0086528  74.0357055  42.7669794
  15.9165661  74.7920979  43.3463079  15.2002041  73.5386313  42.8917295
  39.5091621  76.8231691   2.1928674  39.6587555  75.9903039   2.6402933
  39.2208854  77.4183954   2.8848535  79.9445152  70.1815653  80.7259178
  79.0746069  69.7904634  80.8067322  79.8021793  71.1158037  80.8781338
 103.3351231  64.8705912  49.8969889 103.9231110  64.1608477  50.1553774
 102.9845715  65.2039003  50.7229757   5.9686748  99.0420069  17.3224336
   5.3598825  99.7042383  17.6496202   6.8343012  99.3738045  17.5608236
  98.9687538  48.3693838  75.8313370  99.2621326  47.7284670  75.1837349
  99.6921253  48.9929008  75.8959818  57.7515984  10.6080968  44.9661619
  57.0635128  10.0074489  45.2525026  58.4572029  10.0368506  44.6628076
  16.4234916  88.9229883  65.8374864  15.7000724  89.5459713  65.9067232
  16.5778438  88.8387813  64.8965723   2.5922577  43.8688405  22.6194364
   2.9164259  43.1499888  23.1620199   2.9014866  43.6616011  21.7375833
  83.4705925   8.2122094  12.1478063  82.6995182   7.6450545  12.1449262
  84.1882992   7.6392991  12.4178106  94.7937775  18.8704259   9.5538408
  94.8579121  18.0084617   9.1425687  94.2894268  19.3954045   8.9323503
  95.3848839  34.4131255  75.6758022  95.6082821  34.3146372  74.7502613
  94.5030212  34.7853303  75.6710339 106.3371658  35.8157206  86.2013531
 106.4147282  35.1435852  85.5242634 107.1406364  35.7322407  86.7148590
  57.1562195   5.5819947  14.3388921  57.9709912   5.1113374  14.5145494
  57.0789814   6.2050588  15.0614244  11.8243297  34.0554833  67.5047445
  11.4438136  34.8710203  67.8308487  11.8591579  33.4839129  68.2717657
  14.7044261  52.7787876  87.8956223  14.7993453  53.7228537  88.0219841
  13.7586196  52.6316357  87.8911686  79.1701126   8.8434750  26.6050512
  79.8343277   9.3154389  27.1073514  79.6337414   8.0865676  26.2467557
  94.8314285  46.1991698   7.6424867  94.4730759  45.3400428   7.4195081
  94.6042729  46.7543704   6.8965799 103.3053208  34.8056514  12.7982217
 103.2906723  35.7412345  12.9999811 103.2064247  34.7641761  11.8470460
  51.7356777  25.3719336  20.3382856  51.4399243  25.2528960  19.4357378
  51.9530583  26.3021857  20.3983766  24.5291312  56.0644054  68.0129671
  25.2926715  55.4940605  67.9237509  23.9602073  55.6078005  68.6327028
  88.2006931  64.9569893  57.5068998  87.8259182  65.7824707  57.1997213
  89.1471958  65.0872087  57.4483919  68.6460018  16.3202817   3.1638605
  67.7277947  16.5643126   3.0473596  68.7977982  16.4014632   4.1054517
   4.0374645  23.8894040   1.4219553   4.8676856  23.7999064   1.8898851
   4.2551597  23.6993987   0.5094129  72.8736019   7.3048455  22.3019010
  73.5762501   7.6541335  21.7537004  73.1862927   7.4264533  23.1983739
  14.9151309  54.6056366  63.3339834  14.5317825  54.1585636  62.5793934
  15.5397399  55.2236557  62.9543257   3.5228809  87.0317841  81.1345482
   3.0619128  86.4133358  81.7013454   4.2117675  87.3975468  81.6894245
  21.0717185  82.3619938  85.4852390  21.1283286  83.3035088  85.3222466
  20.3073295  82.0776939  84.9841118  52.4143696   7.8675038   1.4084989
  52.2588349   7.7243811   0.4749280  52.9741669   8.6432225   1.4418870
  24.3434326  97.1496977  15.7993013  24.9810020  97.8141989  15.5382043
  23.5902778  97.3031534  15.2288324  38.2402420   0.8344800  12.5476247
  38.3482361   0.7016141  13.4893877  39.0418863   0.4807097  12.1623498
  93.8668537  56.1981058  63.2134104  93.1344414  55.7865000  63.6720943
  93.7674713  57.1328974  63.3937407  64.6587555 101.6885628  31.1944276
  65.5336658 101.3500608  31.3846189  64.1083805 100.9079470  31.1314851
  64.3054104  45.4545028   5.4676801  63.8765717  44.6458918   5.1875288
  63.8673783  46.1434562   4.9679834  84.1911983  35.9704494  82.8103256
  84.1783524  35.0235081  82.9495049  83.4242344  36.2925601  83.2838726
  44.8002998  98.6075319  25.8110601  43.8706581  98.4861959  25.6179697
  45.2257530  98.6017956  24.9536211  41.2085144  91.9469847   8.4266168
  40.5628769  92.5950207   8.7084562  41.0887901  91.2122454   9.0283281
  40.8023501  20.6996400  19.3206102  40.2599621  21.4196164  19.6425897
  41.6574621  20.8442313  19.7257215  95.5699253  44.0696335  72.9628706
  95.5410194  43.4899426  73.7240219  96.4166927  43.8877249  72.5552845
  75.6271076  22.0419270  23.7379343  75.0553703  21.3740832  24.1165430
  75.1137352  22.4199302  23.0239374   8.4874137  61.3808393  74.9038982
   8.1383117  61.1438751  74.0447092   8.3798965  60.5901051  75.4325008
  14.4066985  53.7085485  80.7739639  14.3120273  53.1708336  81.5601730
  14.3818744  54.6097136  81.0957146  80.1388264  32.4158580  11.4200956
  80.3243542  32.0587165  12.2885782  79.9815083  31.6461856  10.8732111
  74.6837234  44.4324541  79.5953083  74.0372658  44.0391350  79.0091133
  75.5260801  44.2539883  79.1771984 106.2985619  99.8467173  15.1012308
 107.2505816  99.7792877  15.0281030 105.9807738  99.7310938  14.2057592
  79.3476868  26.1341769   5.1774293  78.6224938  26.7242534   4.9721700
  79.8075104  26.0213811   4.3455202  93.6048317  14.7077179  79.8429251
  92.9646397  13.9991856  79.9090767  93.0891609  15.4736519  79.5905972
  18.1663593  63.0812550  81.7099285  18.2192310  63.7466860  81.0238934
  18.7229331  63.4169483  82.4126148  99.4582272  72.8527069  66.3282442
 100.3789616  73.0780792  66.4612627  98.9874744  73.3756542  66.9772005
  69.7709552  89.9851550   2.7731878  69.5138637  90.3781737   1.9391138
  69.0330402  90.1591910   3.3575136 102.8556728  78.5445261  68.4591055
 101.9276619  78.4978485  68.2292271 102.8708363  78.4597397  69.4124222
  80.3362274  27.0129496  19.8543817  80.5616284  27.4039800  20.6984884
  80.4500389  26.0720212  19.9882680  59.4080726  81.1777486  13.2527334
  59.1626159  80.5286158  13.9119798  58.6316196  81.7296900  13.1593496
 102.3267555  54.7921944  86.5060997 102.7980042  55.6215477  86.5856647
 103.0066299  54.1485834  86.3066578  99.0433216  41.4833552  37.8396780
  99.9759770  41.3252169  37.6934797  98.6983776  41.6996009  36.9733697
  77.0129585  32.6528460   8.6666090  77.2836208  33.2190902   7.9438764
  77.0318222  33.2214648   9.4363863  84.9036408  12.7558381  39.1383630
  84.9214935  13.0834920  38.2391721  85.8036328  12.8572375  39.4481451
  66.8613529   9.2850930  16.0388166  66.6286278   8.6924369  15.3240949
  66.4366913   8.9089305  16.8097860  40.2172081  52.0936743   2.0129568
  40.0117771  53.0199844   1.8865472  40.1924698  51.9701739   2.9618341
  93.1252861  60.0432396  87.9291821  92.9965591  60.4805040  87.0874786
  93.2575989  59.1225910  87.7030468  66.9381801  90.5248465  16.8683797
  67.3855011  91.3292803  17.1311170  66.1703960  90.4806651  17.4382764
  86.7873955  47.0319128  79.7904634  86.6506386  47.7752638  80.3777981
  85.9898281  46.9938755  79.2625666   8.3637603  59.1126728  79.9753237
   9.2468818  59.4220352  80.1768398   7.8695758  59.9090290  79.7808170
  16.1128219  67.6157045  69.7550726  15.2780040  68.0656147  69.6251106
  16.0510143  67.2458506  70.6357670  30.5455009 100.4202188  12.7638895
  30.4813568  99.5121874  13.0598527  31.2406055 100.4091371  12.1059019
   2.3161967  65.7665730  51.0234833   1.6495116  66.2107992  51.5473366
   1.8281921  65.3675079  50.3031826  41.0144226  79.9707641   8.4746152
  40.9748069  80.9255661   8.5295278  41.4943115  79.7054399   9.2591745
  68.1668274  76.4432134   3.6609441  68.6635296  77.2160591   3.3921892
  67.2888939  76.5881170   3.3081228  60.3649426  57.8581524  79.7783470
  59.7520924  58.4720850  79.3736982  60.5188847  57.1949387  79.1055346
  13.5188381  81.0505547   5.2301294  12.8970043  81.1919345   5.9439737
  13.9488498  80.2234353   5.4473669   5.4613002  51.6807461  81.0831070
   5.3542979  50.8688021  81.5786076   5.5160602  52.3637724  81.7514706
  41.3724120  81.8154812  87.4962234  40.8325275  82.5832367  87.3083591
  42.2498019  82.0622921  87.2038174  87.7031040  24.9487788   3.0107004
  86.7968941  24.9006755   2.7062303  88.2273102  24.7500331   2.2348577
   5.9373363  60.3398037  73.9986897   4.9911674  60.3523493  73.8543272
   6.0994800  61.0763884  74.5880842 100.6624222  50.3033543  75.7606792
 100.7936192  50.9486151  75.0659466 101.3589096  50.4856110  76.3914919
  48.9885799  85.2949799   0.6482679  48.9061538  86.1007513   0.1381952
  48.3416168  84.7021855   0.2658254  76.0209274  48.4312732  32.4522001
  76.4524365  49.0847117  31.9017011  76.4014149  47.5972087  32.1768743
  85.1957417  27.1607262  10.2358037  84.9694729  28.0704743  10.0424367
  85.9100819  27.2212035  10.8700735  79.4204712   9.0665299  15.7631570
  79.2863751   9.3113572  14.8475629  78.7497807   8.4055716  15.9350378
  62.8889275   2.5124461  14.0415174  63.0699730   3.4167201  14.2979127
  63.7372399   2.1683843  13.7618143  94.3386650  47.9968364  36.1043912
  95.1032829  47.4227912  36.1496908  94.6557808  48.8434321  36.4189416
 103.0842113  59.6575260  82.1687508 104.0394020  59.6027803  82.1978855
 102.8642464  60.3431273  82.7994633  95.0955200  55.7546854  77.4570227
  94.1478157  55.8166456  77.5763512  95.2513981  54.8326731  77.2524977
  81.1171158  57.7244331  21.4087373  81.6541489  57.5400056  22.1793252
  80.8142146  58.6232759  21.5374452  50.9858894  37.8704929  68.6049891
  51.7068148  38.3817053  68.2373524  50.4714870  37.6003909  67.8442907
  62.0789528  11.5384960  85.0096226  62.6320505  11.4228940  85.7822514
  61.2010717  11.2973416  85.3052616   2.1785633  57.7804966  14.4489366
   2.3775188  56.9082631  14.1085607   2.5163213  57.7708949  15.3445131
  44.0397731 100.5258646  52.0609570  43.2602493 100.9040854  51.6541052
  43.8576166  99.5869955  52.1006584  31.3053504  93.9461172  81.7419624
  31.5661947  94.8081357  81.4177418  32.0966903  93.5939265  82.1493626
  51.4889812   8.1066287  80.6968117  51.8350697   8.2412440  81.5790462
  50.9632969   7.3095924  80.7647800  60.9168196  38.6775017  79.5778227
  61.0899258  39.0282440  80.4514599  61.7738342  38.3939958  79.2594099
  51.2262813  95.4328746  78.9184904  51.1718933  95.3151841  79.8668718
  50.4636375  95.9682513  78.6994505  64.7026054  98.0104164  87.8383255
  63.8946239  98.2727233  88.2794571  64.4087688  97.4980632  87.0850754
  10.7205860  84.7518672   8.8085634  10.3978721  84.0448369   9.3673116
  10.3085891  85.5414285   9.1594011  80.0130272  21.5720081  64.4545364
  79.7658443  20.9675145  63.7547350  79.5005608  22.3616409  64.2810583
  66.6443729   3.8905811  75.9233236  67.3138332   3.9313626  75.2403927
  66.4361906   4.8061058  76.1096191  28.0907814  87.5479574  87.7615929
  28.1786863  88.3930285  87.3207283  27.4445383  87.0718474  87.2401333
  10.6049530  82.4890984   2.3989183  11.2248413  83.1211890   2.0349962
   9.8163978  83.0018653   2.5763208  16.5102569  72.2615351  17.5797445
  15.7248394  72.5183143  17.0966131  17.1275989  72.9778542  17.4313909
  70.3981733   4.2726254  78.4872293  70.5453062   4.8845950  79.2083931
  71.2535524   4.1888902  78.0658627   1.6000740  47.2940962   9.7046834
   2.3611395  47.7308990  10.0870592   1.1399070  46.9153269  10.4536897
  36.9940416  91.5225668  70.3453064  37.6011745  91.3605899  69.6232367
  36.1307422  91.3276929  69.9806452  20.6587879  31.6826977   5.7645399
  20.8298389  32.4708499   6.2800867  20.5666820  31.9995524   4.8660165
  23.4429542  57.1392317  19.0741712  22.7235023  56.7761077  18.5576803
  24.1323558  57.3153503  18.4339124  82.0813560   9.0286016  69.5729780
  81.5683270   8.2212830  69.5373392  82.3019791   9.2126858  68.6599207
 100.2236080  46.6066790  74.0877485 101.0784912  46.3775349  74.4523048
  99.7180939  45.7951784  74.1342258   5.8141748  37.7554537  33.0123979
   5.5177156  38.4451379  32.4185258   5.2675049  37.8587629  33.7913114
  77.4681369  90.3054912  60.6333160  76.6432659  90.7893378  60.6745815
  77.9462234  90.7085175  59.9085808   2.9723398  50.6269349   6.0843069
   3.8453571  50.2352043   6.1092550   3.0223219  51.3624584   6.6948301
   7.7366622  21.4003825  60.3068590   8.5667880  21.7254233  59.9583483
   7.1703990  21.3184714  59.5394850  29.8012821  99.5728363   8.0264455
  29.4601146  98.9457811   8.6641294  29.5683376 100.4294027   8.3845884
  96.3004208   5.1274788  43.8814020  95.7104111   5.7383788  44.3229055
  96.1538124   4.2911810  44.3233776 102.8632840  84.9873580  19.5090181
 102.8453454  84.3203367  20.1953107 103.7940987  85.1264728  19.3345052
 104.9803885  77.2974862   1.8648035 105.7890852  76.7853893   1.8651659
 104.9268015  77.6611747   2.7486021  68.4086800  14.7938466  75.3055906
  68.5772419  14.6191537  76.2314939  68.1632328  15.7186055  75.2771425
   5.6054918  73.6698188  16.9688589   5.8719961  72.8885569  17.4534494
   5.2588646  74.2600573  17.6379568 105.7807072  61.6377689   6.5194398
 105.6426009  62.1229030   5.7059270 106.5922650  61.9971789   6.8778116
  10.1059333  64.8488237  19.7288686   9.7269718  64.7764183  18.8528711
  10.9219352  65.3316797  19.5976621  44.1910068  96.5387995  65.1360941
  44.6422950  95.7875318  65.5210114  43.4380428  96.6850460  65.7087135
  82.2550678  47.2591400  61.2455177  82.2434807  48.1531715  61.5872812
  82.8687859  47.2911930  60.5116606 103.1741905  20.8341289  87.1031857
 102.9527187  21.6636205  87.5264168 102.3376942  20.4991746  86.7802238
 101.9965839  22.5002885  65.3588247 102.7975273  22.5922585  65.8748293
 101.5593910  21.7337966  65.7297468   4.7665485  21.2705660  64.3960619
   4.8202403  21.5002084  63.4683704   4.4689067  20.3608298  64.4007683
  63.1939793   0.3863975  68.9158583  64.1402340   0.4548878  68.7888288
  62.8231907   1.0171857  68.2987261  69.5099878  17.9751229  88.1891251
  69.5989990  17.9594934  87.2361946  68.6135578  18.2743835  88.3410645
  83.0748653  56.8921375  69.4970417  82.1610737  56.6664267  69.3230820
  83.5071564  56.8131208  68.6466789  24.6497432  54.0961118  20.9992677
  25.0840847  53.6039643  21.6959554  25.3641311  54.3989406  20.4387456
  61.9068623  34.1015077  71.1135626  61.7372608  33.3257270  70.5791140
  62.4972630  34.6346879  70.5812263  73.2139198  81.8802888  32.9351163
  73.4855167  82.3788268  33.7057829  72.7138130  81.1450727  33.2894874
  78.3172035  23.7199903  70.7303429  78.9569330  23.3831334  70.1030445
  77.6268435  23.0571675  70.7477093  35.1754276  65.6467821  39.4964010
  34.7142975  65.0481464  40.0839597  36.0295860  65.7763149  39.9085599
  51.6946507  16.6145158  75.5152941  51.8865204  17.1760881  76.2663317
  51.4889574  17.2242463  74.8066711 101.3081551  24.6432710  66.9669199
 101.3879108  24.0981627  66.1841536 102.1719170  24.6010113  67.3772430
  56.3405410  77.9356367  77.6336670  56.1890975  78.8500363  77.3945713
  57.1476833  77.9530603  78.1479120  80.8264446  19.5115566  76.2265110
  80.8570004  20.2144980  75.5775309  81.7155743  19.4720161  76.5788078
  33.1799833  93.9901728  83.6529064  33.1770269  93.0457348  83.4971428
  32.9637901  94.0805376  84.5809841  44.4428722  72.2518195  13.3382112
  44.2317669  71.8548478  14.1832429  44.8979561  71.5613069  12.8562147
  80.6153107  33.2576013  76.0039997  80.7828236  32.4032426  75.6062031
  81.1297703  33.8710761  75.4793882 107.0944651  65.8930673   2.2253782
 106.2043675  66.2297071   2.1222288 107.3760136  65.6836213   1.3348180
   6.3543781  19.4795930  74.2928934   6.2666972  18.5366356  74.4320869
   6.7901691  19.7988403  75.0830841  91.2894495  41.0056110   7.5521070
  90.4464491  41.4439048   7.4359972  91.3489398  40.4009987   6.8124181
  92.6738834  26.9757366  58.8326025  93.1864643  26.1694741  58.7739754
  92.1338463  26.9742274  58.0422878 108.0701979  69.0558185   0.8972532
 108.3909329  68.5789193   0.1317960 107.2014912  69.3648733   0.6402189
  42.4412433  38.0600287   2.8810865  43.3128349  38.4486140   2.8064424
  42.3024170  37.6203157   2.0422727  12.5224296  83.9451946   1.4177305
  12.7300541  83.5165347   0.5874521  13.0725948  84.7284283   1.4270669
  90.6360491  62.7781047   0.6870538  89.9567278  63.2344092   1.1835748
  90.7702311  61.9581868   1.1624033  73.5664797   4.8963878  81.1266041
  72.6198530   4.8409191  81.2571812  73.6699104   5.0557625  80.1884460
   8.1557735  11.7459285  69.2809534   7.9454597  10.8206987  69.4072390
   7.6142772  12.0155549  68.5391235  81.0546875  12.6784730  57.2992897
  81.7349243  13.3480883  57.2277498  81.3996124  11.9331622  56.8075895
  25.0265590  76.9019712   5.6249887  25.4250042  76.8269004   4.7578985
  25.7576362  77.1080030   6.2074930  23.4981434  71.8967403   2.6527959
  23.5185806  70.9450997   2.7537519  23.8658420  72.0532741   1.7830068
  67.4794388  36.7579722  80.9578896  66.8663740  36.0750222  80.6859207
  68.3324480  36.3238049  80.9682846  85.3436279  19.4848526  68.8409948
  84.7150230  19.2247832  69.5143747  85.1268864  20.3975654  68.6507034
  16.4694778  60.3053267  15.0279123  15.6421272  60.0818838  14.6015436
  16.2105648  60.7148476  15.8534318  58.9861250   7.7615720  85.1166153
  59.7206354   8.0832946  84.5939159  58.4039164   7.3454076  84.4809532
  83.1099606  28.1646895  40.2719259  82.7958584  28.6818242  39.5302153
  83.3492565  27.3199201  39.8906970  98.2394218  26.0939622  75.7901669
  97.8683186  26.8496299  75.3346682  98.5622883  26.4484930  76.6185999
 107.3064709  13.6234987  77.5615072 107.6414299  12.7515745  77.7707577
 106.7247677  13.8379872  78.2907915   9.7081558  62.3285605  17.7636701
   9.4126884  62.2473349  18.6704904  10.6536094  62.4620880  17.8308660
  77.9606048  95.1980032   2.3061258  77.8747169  96.1396469   2.4549943
  77.9880134  94.8181929   3.1843263  13.8798610  73.0183329   3.6495382
  13.6982242  73.7544836   4.2337686  13.2500927  72.3457350   3.9088232
  71.6222239  18.0382776  76.6800356  72.0906591  17.2393179  76.4382458
  70.7866287  17.7293551  77.0301437  73.8291255  82.8060193  84.3730259
  73.2232753  82.7037758  85.1070118  74.3153278  83.6058218  84.5734119
 105.7258471  65.0503398   6.6387064 106.0128172  65.8486916   7.0820028
 106.4132651  64.8725118   5.9967786  85.2732190  69.8191954  29.0138895
  85.2225169  69.4727971  28.1230146  84.7065981  70.5905999  29.0035421
  75.2034807  24.4629192  57.4834871  75.6103706  23.6125469  57.3175335
  74.5362520  24.5462084  56.8022394  81.8344593  23.1719446  72.5182104
  82.2151184  23.6236906  73.2713747  81.7559624  23.8497734  71.8469334
   9.5305626  86.4414801  10.5934984   8.8293544  85.8623303  10.8920270
   9.0833179  87.2500028  10.3435213  90.1759966  51.6467629  16.7526132
  90.8794507  51.3921130  16.1555082  89.3811139  51.2987368  16.3485414
  72.4597836   5.0257737  25.3534013  73.1114769   4.4833428  25.7975751
  71.8736267   4.3980796  24.9307138  17.1924583  39.0673829  28.5584337
  17.1201412  38.4618200  29.2961961  17.8814117  39.6793140  28.8174898
  91.8498421  66.2510824  78.9352751  92.1214581  66.9366693  79.5455408
  91.4490223  65.5817842  79.4899035  93.0130577  32.5417542  64.0935135
  93.9370632  32.7915549  64.1001558  92.5406933  33.3686781  64.1899395
   0.0897391  17.3592639  75.0726175   0.9075912  17.8446293  75.1811028
   0.3480228  16.4392531  75.1282644  64.3851757  24.3834877  77.0561647
  65.1706934  24.4176126  76.5102434  63.8488388  25.1148605  76.7501068
  15.8092681  89.1031153  81.5159416  16.3487522  89.8930473  81.5505123
  15.8845417  88.8010926  80.6107616  81.5951824  10.2106977  75.2517033
  81.8175602  11.1301684  75.1055765  80.8208561  10.0623679  74.7088861
   3.6614696  83.2053079  19.2054540   3.3862678  84.0972198  19.4175512
   4.3636553  83.0168642  19.8280698  88.8124903  54.2468057  15.6986982
  88.2535895  53.7128727  15.1340848  88.5417279  54.0190907  16.5881139
  44.7990886 101.2064672  75.4238796  44.6401779 100.6114266  74.6911383
  44.0211956 101.1207934  75.9750366  43.5392141   6.9001919  69.6471071
  43.1884861   6.1009705  70.0401258  44.4545221   6.9226605  69.9262810
  47.7489328  23.7279916  79.5083666  47.8365421  23.9407611  78.5792351
  48.3401346  24.3373513  79.9503994  38.3089677  82.7576072  60.3546429
  39.1221754  83.1227381  60.7033587  37.7303401  82.6928360  61.1143970
  54.2168514  96.4443851  85.4460335  53.7954704  96.0305346  84.6927834
  53.4996597  96.6198785  86.0551929 102.9718399   1.4337398  60.4343939
 102.6493645   1.5774558  59.5446825 103.3085823   0.5377739  60.4252958
 104.5101031  66.3378705   0.5752450 104.6895417  66.1502267  -0.3460711
 104.7255095  67.2649266   0.6772310  76.4413118  49.8057747  81.8308640
  76.8597698  48.9727497  82.0481110  75.5611229  49.7351980  82.2003555
  35.3598205  55.1551588  21.4911253  35.9362117  55.5551793  20.8399850
  35.3545658  55.7757921  22.2198373   8.2352821  68.0936958  22.0718652
   7.8889553  68.3898117  21.2300760   8.4353534  67.1675350  21.9361002
  19.5038597  90.3343684  65.0828362  19.5499746  89.8266584  65.8929825
  20.3490917  90.1860625  64.6587944  63.0707065  86.1546196  17.4679357
  63.4131519  86.8284501  18.0552274  63.6756889  85.4196395  17.5680715
  79.7466850  45.1675320  80.2278900  80.3244400  44.5586443  80.6879807
  79.0225744  44.6232653  79.9185991  14.9366172  14.3050039  61.1498833
  14.0368827  14.0350676  60.9659243  15.0588210  14.1133153  62.0796967
  75.2125168  20.9340644  69.5886660  74.7908497  21.4284039  68.8857794
  75.2724218  21.5544033  70.3151798  72.1007538  41.8643332  87.5415707
  72.1612692  42.7990675  87.3444939  72.9794836  41.5259314  87.3696613
  31.7512218  47.6943312   3.4665758  31.5849010  47.2450434   2.6378995
  31.0967533  48.3922051   3.4962255 103.5569819  82.9664864   1.0038549
 103.9553984  82.1180643   0.8097536 102.6608904  82.8909291   0.6759054
  68.2754413  77.8620894  88.2041073  67.7863685  77.0440466  88.1155682
  69.0479270  77.7402408  87.6521587  84.7744274  20.9944439  64.8790216
  84.1149998  21.6712570  65.0317097  85.4689693  21.1905646  65.5078077
  86.6722965  20.6959248  86.2970161  87.1871471  19.9719751  85.9405804
  87.2181129  21.0568142  86.9956398  80.9338379  44.0992451  58.1132936
  81.0937405  43.1719685  58.2888460  81.8073463  44.4796610  58.0211210
  10.6435959  30.9182562  12.8989202   9.9929802  31.6155197  12.8167516
  10.9176628  30.7391895  11.9994432  12.6235096  76.1690725  24.8880273
  12.0760624  75.7153882  25.5288965  13.5054580  76.1332454  25.2583105
  84.3309975  24.9099112  75.2503109  85.1294231  25.0121093  74.7323322
  84.0197182  25.8043051  75.3895664  22.3659507  76.5820064   1.9093591
  22.9647438  77.1453370   1.4191133  21.5246288  77.0370234   1.8722517
 107.4721241  50.2795458  49.9668503 108.2907200  49.8871374  49.6632910
 106.8743896  50.1911545  49.2244673  73.1555263  64.3477566  45.5281973
  73.2666294  64.1489894  44.5984745  73.9978496  64.1230948  45.9234810
  98.8231190  74.9334682   5.7329542  97.9265221  74.7574820   5.4476816
  98.8187083  74.7392930   6.6702444   9.5259269  50.4667330  82.2098923
   8.9604266  51.1403036  81.8320751  10.3250774  50.5024529  81.6842365
 101.1501511  69.4812859  17.4621564 101.9319352  69.3933286  16.9168932
 100.4252823  69.2531873  16.8801099  33.8434307  94.4682611   7.5936586
  34.2155449  93.6239780   7.3388177  33.6139862  94.8888077   6.7649728
  15.6757243  27.3062205  80.9337044  14.9370082  26.7289543  81.1268330
  15.5804523  28.0317330  81.5507889  27.7734558  97.7718414  21.5595132
  27.1895210  97.1236671  21.9533521  27.2000972  98.3111156  21.0148317
  48.1586258  84.5585789  11.3713151  47.6543800  85.3021945  11.0411531
  47.5844757  83.8036407  11.2422449  46.8926040  61.8116428   9.2402154
  47.2821705  62.2579957   8.4883863  47.5917427  61.7883552   9.8935873
 103.5616970  43.4930515  72.1479607 103.2632065  43.0955982  72.9659843
 103.9820004  44.3096066  72.4178028  34.3756477  85.6777228  22.8149492
  33.8753120  85.0145019  22.3395139  34.1374389  85.5453385  23.7325365
  15.4990856  72.9278745   0.5811388  15.0168888  73.7138547   0.8379442
  16.4014522  73.2266249   0.4683763 100.0431061  21.5229535  73.3397055
 100.6608486  22.0850086  72.8720284 100.0374126  21.8651390  74.2336369
  14.7610648  44.7478580  65.9042358  15.6013568  45.1491833  66.1257601
  14.4377025  45.2620220  65.1644325  93.8077363  54.0268759   3.3776647
  93.7813815  54.6913536   2.6891786  93.0774268  53.4423990   3.1745130
  86.5422400  62.9388548  11.9208032  86.4800843  63.8667573  12.1474344
  85.6849774  62.5788166  12.1481878   0.8144363  15.6646335  83.2362366
   1.5240462  15.9298778  82.6511383   1.2588294  15.3219163  84.0116692
  93.5258389  17.8966522  61.9201326  94.3149376  17.3622298  62.0092869
  93.4130669  18.0015242  60.9754038  67.7741098  15.8755517  80.1892567
  67.1710491  15.7954407  79.4502544  67.6289606  16.7612708  80.5219269
  93.8777447  57.0876503  33.0570292  94.0812492  56.1650515  32.9033256
  94.7142220  57.5393105  32.9450655  36.8025104  70.5153431  32.5786096
  36.2479965  70.7917406  31.8489820  36.9051067  69.5714237  32.4572736
  32.8918831  85.6184806   0.5239469  33.2380382  86.1378349  -0.2017802
  32.3328106  84.9641789   0.1049406  93.8930798  15.8200872  70.8036995
  93.0177307  15.8279550  70.4164886  93.8875675  16.5498817  71.4230585
  23.1405060  42.2372617  15.7908136  23.7895004  42.7565922  15.3161222
  23.1433002  41.3882573  15.3487569  67.6256514  56.3106966  85.8750057
  67.4314022  56.2700462  84.9386024  68.0984163  57.1355677  85.9859562
   9.8473446  68.0093063  10.4557687  10.3342811  67.2854949  10.0617963
   9.8502437  67.8175582  11.3935644  60.0916664  95.6726612  13.6663133
  60.8450786  95.1801647  13.9919454  60.3044597  96.5870680  13.8528806
  95.8100986  40.8533287  81.8758965  96.2647438  40.5160427  82.6477528
  96.1514664  41.7407560  81.7655849   3.3900054  21.8581533  86.4067841
   3.1596358  22.2694206  87.2398663   3.8357242  21.0481501  86.6547108
  28.7254794  34.8523045  76.2114429  29.2968162  34.5949459  76.9350290
  28.9433273  35.7701302  76.0490417  18.3310119  97.3793949  19.5622617
  18.2729999  98.1806148  20.0827581  17.4339382  97.0467104  19.5339281
   1.1593048  72.7384271   7.9999525   1.7311041  72.3577370   8.6665517
   1.1938230  72.1178378   7.2720033  74.9603462   2.3859984   9.3758661
  75.2166557   2.1779162   8.4774000  75.6746292   2.9291827   9.7090036
  68.6051464  35.9896135  71.7197084  68.0315685  35.8234668  70.9716177
  68.1401348  36.6475153  72.2365856  34.9439510  40.3576422  58.3638525
  34.4171317  39.7254920  57.8748894  35.8095821  39.9533534  58.4227467
 106.1530121  69.8577382  18.5636407 106.3527831  69.1177930  17.9902250
 106.4622363  70.6246664  18.0815298  69.1353178   4.8988163  69.3154383
  70.0138092   4.6182990  69.0589190  68.9260817   4.3619034  70.0797510
  17.8335754  64.1436936  11.0238916  18.7023822  64.1515721  10.6222135
  17.9749290  64.4846381  11.9070703 100.8963299  20.0486016  86.1085892
 100.5163574  19.1738153  86.0273266 100.4646015  20.4270506  86.8745041
 105.0247002  24.3435836  55.2412128 105.7271957  24.9271035  55.5279970
 105.3109646  23.4719229  55.5141401  75.8055830  26.4194894  52.3307705
  75.2697515  27.0775867  52.7735186  75.7247114  26.6309714  51.4007330
  11.2106506  65.3312148  13.5865480  10.7191936  66.1516370  13.5464746
  11.5021221  65.1824345  12.6870233  44.4979477  24.7514224  66.8392706
  45.2990150  25.2722764  66.8961239  43.8389301  25.2750707  67.2950363
  91.2990761  15.8669066  70.0912809  90.6033325  15.2945495  70.4146671
  90.8367729  16.6042805  69.6927977  38.8859932  85.5020942  12.4880582
  39.1107074  84.9868645  13.2628328  37.9586116  85.7110013  12.6000482
  95.5179405  22.9159164  83.4920597  96.3874340  22.6923203  83.8240433
  95.6780148  23.6026287  82.8447342 101.0296726  37.1343327  54.6908092
 100.9111500  38.0607367  54.9004793 100.1944447  36.8667984  54.3073320
  17.3909648   5.1053435  79.6287012  17.1387084   5.7705915  78.9883566
  16.6701968   5.0935739  80.2584457  10.0001319  32.5822234  54.4035625
  10.1129897  31.6542935  54.1975594   9.2290004  32.6097584  54.9699831
 106.1316577  85.7503564  79.9979448 105.7319442  86.3199396  80.6552410
 105.7032482  84.9034888  80.1224804  41.2313835  52.9655434  15.7517606
  40.3024093  52.9096432  15.9756166  41.6569320  52.3390767  16.3371450
  33.8451950  86.9046456  86.6727829  33.0437843  87.4263317  86.7153931
  33.5957710  86.0527618  87.0309925  60.0832550  70.2056993  13.6431867
  59.3966381  70.1685049  12.9772932  60.7862560  69.6584381  13.2931596
  93.8831902  32.3309898  82.5411701  93.2394505  32.5822186  83.2035255
  93.5224247  32.6622701  81.7187691  24.6098312  15.1752424  80.3082752
  25.0628265  14.4906092  79.8160267  24.9740203  15.9936440  79.9709034
   9.1280357  61.7237545  11.4780695   9.3774025  62.5378932  11.9153673
   8.3238117  61.9415702  11.0068971   5.5638488  24.3453240  59.8258829
   5.9525665  24.9405265  60.4668713   6.2507518  24.2157531  59.1719675
 105.5806637   0.6387846  71.4515781 105.2758598   1.5405111  71.5526438
 105.6590176   0.3106283  72.3473501  42.7201740 100.3589596   6.2705022
  42.7822296 100.1073564   7.1919614  42.1905128  99.6699823   5.8692533
 105.9415531  17.7586734  73.3133459 106.2403393  17.4268031  72.4666929
 106.7015553  17.6675034  73.8880730  71.1324549  37.4753451  71.1556149
  70.1981211  37.4912906  71.3629675  71.1699820  37.6101947  70.2087069
  33.5068552  87.5939078  83.2757473  34.1934291  87.4508280  83.9271832
  32.8275005  88.0772335  83.7459660  76.3823414  16.8321633  73.1358290
  76.7074680  17.5824082  73.6334801  76.0631132  17.2088575  72.3158121
   2.8060802  17.4038625  68.6002684   3.1875499  17.5041413  69.4724226
   2.7895530  18.2915592  68.2425642  61.5298454  74.9596943   5.1470834
  61.1088840  75.8050646   5.3031904  61.4363853  74.8158635   4.2053777
   0.4756625  53.8179350  79.5460510   1.2016471  53.2066059  79.6703720
   0.3640445  54.2342186  80.4007339  99.7966766  31.5869093  75.6033230
  98.8857174  31.8086934  75.7961607  99.7473526  30.7462025  75.1483393
  38.4593288  51.5576310   6.8643266  38.3219997  52.1549336   6.1290723
  39.3039600  51.8192530   7.2309190  95.5913544  26.1044216  78.6032486
  95.7727909  26.5171838  79.4476080  96.4113426  26.1851263  78.1160736
   2.4289219  73.4222282  16.4425451   3.0208151  74.1261782  16.7077619
   2.0571272  73.0998339  17.2635538  96.4467049   6.8584126  88.0344582
  97.1306229   6.2528133  87.7485466  95.6578827   6.3192141  88.0915260
  18.8332931  54.1146417  16.8270284  19.1079704  54.5613350  17.6278097
  19.4102661  54.4640903  16.1478979  86.2009335   6.9669914  84.2206383
  85.2889061   6.6835749  84.2846489  86.7060566   6.1540776  84.2367458
  83.3037090  10.2231986  10.4256231  82.5363445  10.7432038  10.6643182
  83.4219265   9.6199662  11.1593515 106.3134670  18.9031196  82.0977688
 106.1777020  19.4586134  81.3301659 106.6737843  19.4932079  82.7597427
   8.9816745  16.0462189  49.7670460   8.5636314  15.2564371  49.4239426
   8.2534202  16.5980756  50.0522423  22.8249923  58.4058548  29.7137529
  22.2755710  57.6496191  29.9198610  23.0580322  58.7722041  30.5668050
  42.7390663  70.8051075  24.1541559  43.1457512  71.4352335  24.7489435
  42.9467098  69.9505342  24.5320684  34.7643463  35.0041236   9.4023210
  34.8757736  34.0545131   9.4476587  34.1571132  35.1395668   8.6748868
  17.1096881  33.8494444  74.6612167  16.2433227  33.4670758  74.8006630
  17.5443443  33.2448387  74.0597534 105.9483775  90.8634581  20.7391435
 106.3863047  91.0091604  19.9005586 105.7947691  91.7426456  21.0850698
  67.9150001  50.7640536  16.0927564  67.6775257  50.7904276  17.0196516
  68.2751171  49.8867740  15.9626371   6.1757167  29.4671965  80.7152939
   5.5875667  29.2422366  81.4361954   7.0387061  29.1771102  81.0108280
  18.6688121  22.9926109  59.2354488  18.2572730  23.7531185  58.8249588
  19.5230849  22.9233742  58.8092327  87.0346737  13.5538638  80.0658989
  87.4730492  14.2547834  79.5834398  86.4561272  13.1453776  79.4219589
  30.0052873 101.5698684  79.5599413  29.1692535 102.0224447  79.4483519
  30.0315467 100.9352438  78.8438463  19.6877750  57.6530600  79.1025591
  19.0646632  58.3729124  79.0037107  19.2816909  57.0712996  79.7451210
   1.1443313  22.7154565  71.1137056   0.8544715  22.0088625  70.5366993
   0.6979736  22.5456142  71.9432497  92.5729370  55.2404594  54.3532419
  92.2815704  54.4603729  54.8252678  91.7650223  55.6446028  54.0367460
  87.6616669  68.4130669  53.7909317  88.3107090  69.1156340  53.8280344
  87.7466202  68.0549192  52.9073381  87.3708153  25.2696609  83.9764881
  88.1675148  25.6655741  84.3297005  86.9188118  24.9165082  84.7427940
  27.6085941  98.7908424  24.1784555  28.4445659  98.5283674  24.5637971
  27.6772491  98.5332884  23.2591230  95.2464485  22.3454809  54.3064928
  94.9096203  21.4694118  54.1186571  94.6505260  22.9352927  53.8447189
  83.8846111  21.7372274  86.9512272  84.6310234  21.1928272  86.7007446
  83.6753273  22.2350407  86.1609077  79.7780323  57.0576000  82.1039104
  79.9032879  56.3189363  81.5081596  80.1377392  56.7561340  82.9381466
 103.4309006  11.8838143  80.1311970 103.0653954  12.1060157  80.9875011
 102.9641724  11.0898972  79.8702574  69.0285683  19.2364681  80.4505730
  68.2279062  19.1396403  79.9350166  69.3691349  20.0966120  80.2048111
   1.1291869  33.3409142  70.1742887   0.2733310  33.4464359  69.7588205
   1.5675338  34.1805983  70.0363874  30.3023426  72.9976620  13.8259107
  30.2526275  73.7342323  14.4351846  31.1672966  72.6176084  13.9796526
 107.7718925  61.9213057  73.7221098 108.2113838  61.5174389  74.4704151
 107.2695351  62.6430082  74.1002893  88.3470058  38.9592171  68.6379957
  88.8331032  38.7478995  69.4350433  87.5842285  38.3814478  68.6623716
   3.2728275   6.6016912  55.8057213   3.6496146   7.4178219  56.1346531
   3.6278327   5.9246963  56.3818121  69.9213791  12.1379292  86.5356827
  69.5202541  12.8177357  85.9942150  69.2170858  11.8461800  87.1145535
  15.9830745  37.3643327  44.9292517  15.9517177  38.3144975  45.0407600
  16.9169887  37.1545887  44.9231148  81.9762524  94.8604835  40.4782564
  82.0372971  95.7317652  40.8699018  82.6917561  94.8327555  39.8430330
  85.3769104  88.9761741  59.4583941  86.0200778  88.6144657  58.8486958
  84.7023193  88.3002431  59.5237970  34.4333164  69.9959983  14.5648557
  34.2444889  69.0700365  14.7170717  35.3175441  70.0030245  14.1983491
  31.4931671  94.3016352  28.4309656  30.8109943  94.0103735  27.8259546
  31.8784992  95.0681318  28.0064279  90.3308964   7.3177106  10.7433874
  90.1859856   7.7166278  11.6013509  90.3258515   6.3757235  10.9133131
   1.9567950  54.9402046  50.9935665   2.3336013  55.5162096  50.3283834
   1.2590583  54.4707203  50.5364275   6.6573127  15.0260818  31.5234232
   7.4733623  15.4229116  31.2187624   6.8615897  14.7016180  32.4004793
 101.3454723  45.1613712  78.1209612 102.0640373  44.8614168  78.6776638
 101.6981316  45.9261370  77.6659918 104.8164654  83.6985493  87.8256702
 105.4148769  83.4492016  87.1214294 103.9476395  83.4743500  87.4923325
  24.4406303  19.1623557  82.3101997  25.0762065  19.2514968  81.6000366
  24.6121200  18.2953000  82.6776791  16.2667457  76.6077413  21.8761903
  16.2468998  77.2668327  22.5700456  15.3937332  76.2155808  21.8933279
  70.2802944  34.0729761  79.0295601  69.3842554  34.0696931  78.6929083
  70.1785469  34.0842056  79.9812698  68.3270351  70.6056697  35.7064915
  67.9098026  69.7443063  35.6923509  67.6406757  71.1992962  36.0110402
  11.2104972  22.1144938  66.1230326  12.0901092  21.9435883  65.7864046
  10.7129749  22.4026728  65.3577566  95.4889011  38.8944101  55.5563354
  95.3806114  39.5986605  56.1955070  96.0994816  38.2855630  55.9719419
  89.7557640  28.2566333  81.2127876  89.7992802  28.5468197  82.1239090
  90.5429459  28.6205578  80.8076572  89.8972321  34.6941328  71.2141228
  90.4243851  34.8275685  72.0018673  89.0994835  35.1992130  71.3713694
  14.3622955  16.9295681  79.9983406  14.5294841  16.0474825  79.6663713
  14.1857703  16.8050694  80.9308529   2.1502956  31.0055208  87.2395992
   2.4905093  30.8689141  86.3553905   2.3725303  30.2012610  87.7086449
  15.1492111  76.0087146   4.2735464  14.3222801  75.6411733   4.5855314
  15.2383510  76.8350257   4.7484190  96.3416767  24.8609471  49.8599243
  97.0579529  25.4928613  49.7978687  96.5973759  24.2785454  50.5752230
  85.1484489  26.3776612  86.9141293  84.9349880  26.0544395  86.0387993
  84.5412159  25.9179020  87.4938965  86.9126225  37.8129458  58.5004616
  87.0552826  36.8703699  58.4142685  87.4393082  38.0665779  59.2584229
 100.6750107  12.7354407  79.4729471 100.5877876  12.5617743  80.4102135
 100.0028610  12.1897614  79.0646791  86.5211868  23.1222773  72.8638315
  86.4540958  23.9557528  73.3297157  87.4154949  22.8252792  73.0318451
  97.8443241   6.9010985  60.7988501  97.5628662   7.3059261  61.6192913
  98.4032154   7.5595939  60.3862286  43.5507949  32.7610183  71.2547636
  42.9722865  33.4357095  70.8993149  43.5304340  32.9023933  72.2012424
  69.7631025  30.4262400  80.9539032  69.7344971  29.9822903  80.1063633
  68.8761187  30.7642889  81.0772610  89.0587711  32.4322128  70.0170851
  89.3224907  33.2968426  70.3318834  88.7590599  31.9728589  70.8015585
  50.6188870   4.4023950  12.7136880  49.9990654   3.7195069  12.9700166
  50.7692433   4.9027116  13.5157472  27.6664487  75.2596385  65.3842211
  27.3099224  74.6194036  64.7684097  27.1396772  75.1496536  66.1758327
  47.5278274  59.2834188  23.5673791  47.5847236  59.9922223  22.9266054
  46.5956203  59.0695216  23.6057931  53.0828468 100.0027050   6.5382749
  54.0229980  99.8494972   6.4440614  52.8433792 100.5075325   5.7610780
  79.2334843  69.8164463  57.4863386  78.6295986  70.2140903  58.1135845
  78.8852119  68.9363766  57.3434591  23.4771816  39.2618967  44.4299394
  23.6417762  40.0735654  43.9500124  22.8647319  38.7767006  43.8770181
  46.7451946  87.9212601  26.7571926  46.0905544  87.2513814  26.5598726
  46.5631095  88.1749148  27.6620340  90.1760101  43.3588552  57.1449566
  90.6304741  42.6185989  56.7428255  89.6406555  42.9655218  57.8341007
   8.3146755  37.5974084  26.0805398   8.0752556  37.8531517  25.1897508
   7.6948682  36.9034578  26.3052637  52.2225571  -0.0781625  13.5558778
  52.2716427   0.4980952  12.7931482  51.2859440  -0.1560825  13.7373048
  23.9095108  74.5328297  10.2272207  23.6759941  73.8807286  10.8878786
  24.6400444  75.0151147  10.6144506 107.7575549  48.9151412  27.1556551
 107.9273804  48.6488914  28.0592615 106.8337782  49.1658103  27.1494180
  22.0007030  66.3389481   0.5218679  21.9385235  65.8334757   1.3323385
  21.7992393  67.2372950   0.7838136  87.2245598  49.3610954  84.9611378
  86.5535355  48.6880732  84.8471260  87.9109955  48.9309549  85.4710579
   1.3306316  19.6057630  50.7759523   2.0679458  20.1029444  50.4218197
   1.4791187  19.5979536  51.7215347  40.4736980  31.3886571  73.4966230
  40.5701907  32.2095466  73.9793873  40.1274093  31.6515779  72.6438761
   3.5391696  -0.1449222  64.2237616   2.9284080  -0.2924552  64.9458647
   3.6555465   0.8048472  64.1987562  58.5897056  96.5886988   6.1652166
  58.7352935  97.0141519   5.3202230  58.9000503  97.2243751   6.8100721
   7.7557834  35.4881573  69.6772575   8.5908969  35.8536053  69.9692631
   7.9432662  35.1235080  68.8123178  18.6053069  59.0600634  82.7877140
  19.4004520  58.9449596  83.3080196  18.0344947  58.3417273  83.0604935
 101.0872078  13.3225882  68.6095476 100.5263042  13.7301803  67.9496336
 100.5281067  12.6678061  69.0277529  16.1448375  92.2022928  10.0945455
  16.7138855  92.8020681   9.6121675  15.7460014  91.6546215   9.4183713
  96.0074234  11.0546947  72.0627117  95.2598286  10.5976081  72.4479342
  95.9937954  10.8008230  71.1398935 104.1073998  69.9791778  20.3573877
 104.8858078  69.8249580  19.8220998 103.8733729  70.8907463  20.1827318
  22.0951160   4.0846416  45.6711245  22.5340541   3.3832470  45.1898670
  21.8990882   4.7449180  45.0064087 102.6883229  59.0634020  23.3648855
 103.6392315  59.1724755  23.3755571 102.4297675  59.3027200  22.4748785
  97.9714489  20.8821964  83.1394196  98.9159584  20.7726884  83.2496071
  97.8021717  21.7853999  83.4073734   7.5378219  80.6986226  13.3933908
   7.4427883  80.4682316  14.3175775   7.1783821  79.9476160  12.9211408
  52.0669643  88.4787399  62.6770639  51.8762390  87.7470190  63.2639503
  52.9183761  88.2643241  62.2957897  35.7327254  11.7046094  46.6418934
  35.7402976  11.3893795  45.7381201  36.0591109  12.6026487  46.5850687
  68.0387735  40.6111717  82.1960449  68.8623571  40.4001856  82.6358509
  67.6643372  41.3216972  82.7168083  67.4019909   4.9295202  67.0527840
  67.9082632   4.5484197  67.7701998  66.9699192   5.6898159  67.4420071
  92.3398590  10.2794945  70.9293938  92.2839165   9.6618652  70.2002621
  92.8597641  11.0069489  70.5877256  86.0635853  39.9290776  73.1212044
  85.9181213  40.5132437  72.3770094  86.5889549  40.4457569  73.7321520
  93.9312172  52.3816919  59.3350410  93.6199474  53.1334400  58.8308430
  93.6493969  51.6201258  58.8282537  88.0037117  12.9005194  54.9961138
  88.6148167  13.6121392  54.8053598  88.3208561  12.5263369  55.8180857
  32.2392265  58.7456448  31.5570337  32.1065609  57.9265453  32.0342237
  31.8645088  59.4178291  32.1262342   9.5810596  96.7416252  19.5352060
   9.1602699  97.4794544  19.9765379   8.8543407  96.1930956  19.2398721
  27.0568077  65.4924454  21.4801294  27.5466816  65.9850694  20.8216650
  27.3474971  65.8559824  22.3165304  81.9478321  81.3866711  69.9003315
  82.8357029  81.3396168  70.2548647  81.9461155  82.1789169  69.3631315
  51.3004772  74.3192448  17.2566968  51.8267814  74.1153230  18.0297739
  51.6044609  73.7027301  16.5905649  92.4449913  72.8406913  79.4824791
  91.9240753  72.0779163  79.2313623  91.8384544  73.5780174  79.4139767
  29.4617073  48.5110724   8.5710603  30.0856010  49.1846333   8.8418085
  28.8081924  48.9833748   8.0552274  27.4007034   2.0388610  18.3602315
  27.5920391   1.7742068  19.2600042  26.8657065   1.3267094  18.0097372
 107.2940350  35.1076603  57.3651743 106.8159389  35.0079846  58.1884193
 106.6526890  34.8919773  56.6881275  56.7356865  53.4278552  22.6869566
  57.6172725  53.3104686  22.3330289  56.2194339  52.7324037  22.2794515
  83.5433769  28.7799215  68.8626480  83.5216618  29.7367144  68.8802195
  84.4427109  28.5652637  68.6149836  37.0021240  76.2741198   1.0106641
  37.9580013  76.2808145   1.0605318  36.7690365  77.1683468   0.7611543
 100.3593063   2.7845421  83.3441925  99.5314217   2.9318872  83.8014984
 100.4429340   1.8319730  83.3011723   3.3561595  51.8933916  75.0592852
   3.6585696  52.7398634  74.7302485   3.5039600  51.9369745  76.0040045
  88.2183170  21.6878295  82.8886795  87.7274418  22.0353436  83.6333370
  88.0270290  22.2931051  82.1722412  95.5118561  52.2290182  80.1694965
  95.3896236  52.2148371  79.2202425  95.8025742  53.1208277  80.3602600
  12.6458724  43.2170343  63.0852747  12.7139362  44.0089893  63.6185741
  13.5530456  42.9749918  62.8990412 105.3554630   4.0274537  76.8071222
 106.0157204   4.5533884  77.2584295 105.7389545   3.8464841  75.9489775
 100.8986751  85.2849252  69.3407249 101.7040817  85.3237063  69.8565102
 100.7867328  84.3555302  69.1409111  99.4309807  39.4877887  87.2344875
 100.1338005  38.9779496  86.8315697  99.8692322  40.2613926  87.5890446
  99.7634792  11.2686002  76.1463881 100.5141544  11.6404295  76.6094875
 100.1505566  10.7072949  75.4745674  75.1878357  83.1459522  87.6374245
  75.8565855  82.5195885  87.9143238  74.4657135  82.6019764  87.3229885
  94.7330856  14.9122822  75.6197309  94.7893715  14.0569389  76.0456991
  95.3289032  15.4691124  76.1209059  38.9513103 100.7558836  14.0967828
  38.3089058 100.9995474  14.7632391  38.4273903 100.5540956  13.3215314
  17.0509426  65.1487638   0.5171091  17.4744121  65.3916050  -0.3062552
  17.0324794  64.1918339   0.5038339  71.0239498 100.3660608  62.4145126
  70.5166618 100.9513158  62.9769754  71.9071857 100.7349936  62.4196196
  86.6392040  44.7024441  75.5442762  87.5511169  44.9432325  75.7076025
  86.6333771  43.7460470  75.5831337 100.0939941  36.9323730  75.8771324
  99.4129562  37.3313046  75.3355885 100.0597286  36.0012937  75.6576967
  28.2579311  74.5282555  87.3154831  27.4727805  74.3597889  86.7945290
  27.9301818  74.6707296  88.2034588  29.4920715  32.0004964  68.0545568
  30.0722964  31.6878819  67.3604107  29.4622882  31.2802529  68.6843109
  32.8934757  93.8373388   3.2808668  32.6628963  93.3432640   4.0676004
  33.5964767  94.4225134   3.5629922  20.8339691   0.7029111   0.2519876
  21.3312197  -0.1096242   0.1584131  20.6195593   0.7465369   1.1838419
  66.7970268  84.9705733   8.1594354  67.7221862  84.7268380   8.1894857
  66.3397495  84.2229070   8.5443002  13.5713951 100.7789625  24.0785677
  14.4208328 101.2157740  24.0163309  13.7390796 100.0045504  24.6156007
  88.1394100  17.6549155  27.2900278  88.4674931  17.5671965  26.3950998
  88.9192677  17.5777633  27.8396684  31.3989623  27.3849463  77.2254944
  30.9425624  26.9156098  76.5271711  31.4855464  26.7420125  77.9293203
  10.4919799  62.4469757  71.2974167  10.4974158  62.3858833  70.3421831
  10.8536323  63.3133459  71.4840651   4.0911142  69.6742751  17.6638013
   4.2801992  68.8127364  18.0355913   4.9090091  70.1619173  17.7611906
  67.8760719  37.4465895  83.6096668  68.7542915  37.8007150  83.4698486
  67.5310659  37.3066044  82.7278519   9.1052516  62.0375156  81.6372490
   8.9369758  62.5922918  80.8755779  10.0261672  61.7899323  81.5544510
  83.5938644  30.0712919  74.0043831  83.9585876  30.5864000  73.2847452
  82.7068615  30.4127431  74.1178226  37.9629977  57.9336405  56.7164755
  37.7017005  58.0346489  55.8011866  38.6076148  57.2261429  56.7048550
   8.0870994  36.5241957  85.2685833   7.7568610  36.4885449  86.1663151
   9.0175994  36.7275953  85.3635693  94.6209908   6.3598592  23.9623529
  94.0788365   7.0420796  24.3584138  94.7004700   5.6917245  24.6431715
  51.3173485  19.3113810  25.4089052  51.3757706  20.1864011  25.7925207
  51.7685509  18.7448651  26.0347730  86.6122913  74.4794607  73.1791115
  85.8681393  74.7960281  73.6912107  87.1743870  74.0420532  73.8186121
   8.1161864  35.2208543  81.9944096   8.9334377  35.6007957  81.6719437
   7.4399837  35.8415914  81.7229939   6.2852176  25.0990343  55.5206060
   5.4965194  24.9569869  56.0440540   6.7725642  24.2784810  55.5942488
  82.6517010   0.7914883   9.0633184  83.0697441   1.5763480   9.4175321
  82.0044422   1.1246402   8.4417898   6.7951568  30.0673509  85.4893589
   7.1334918  29.8527336  84.6200466   7.1596320  30.9313059  85.6816387
  17.8668960  27.0265365  39.4784093  17.2625049  26.6355181  38.8474989
  17.5163158  26.7757368  40.3330612  82.7543918  82.8761763  78.9725113
  81.9843952  83.3961994  79.2025423  82.8962604  82.3098392  79.7310448
  59.7950459  12.9981381  24.2682439  60.7057476  13.1543929  24.5181161
  59.2978096  13.1411654  25.0735551  22.0991309  34.3872285  64.0824699
  22.1176418  33.4313130  64.0364790  22.5626167  34.5970273  64.8932743
  97.4883080   1.6860600  48.2033777  96.5427780   1.8222952  48.1430244
  97.7700329   1.5572803  47.2976828  24.5007499  58.1302214  83.6688614
  24.1043361  58.6722279  82.9867172  23.8851913  57.4069357  83.7879658
   9.7183116  43.3314562  85.9245491   9.8104461  44.1466761  85.4314327
   8.8799270  42.9705906  85.6362534  84.4931698  40.2209139  80.7613659
  83.8204575  39.5400095  80.7685566  85.2579880  39.8062086  81.1604977
  11.1792453  49.1664028  65.0745487  11.5633376  49.5229387  65.8755398
  10.6130107  48.4559774  65.3760719  36.9556610  92.3648752   3.7870580
  36.5069763  93.1991781   3.9243585  36.4943306  91.9631351   3.0508501
  37.7574817  86.3443150   7.5405866  37.1202079  86.1701979   8.2332689
  38.5791389  85.9849681   7.8752119  38.6496401  14.7774226   7.4521143
  39.1587544  13.9859778   7.2770578  38.4704971  15.1434380   6.5859968
 106.7182827  28.4447575  69.4281578 105.8397007  28.5657859  69.0680504
 107.1099663  27.7643919  68.8805151  59.5249168  97.6233257  31.0779649
  59.1451542  97.0142712  30.4446680  59.8035328  98.3729519  30.5519754
  25.1059993  79.7663021  72.9116726  25.6121619  79.5815468  72.1205330
  24.7744735  80.6548214  72.7818584  39.1742126  81.8948306   3.2921583
  40.0767032  81.5761699   3.2775003  39.2446891  82.8239597   3.0731088
   5.7747920  36.4373755  64.2558956   5.9218486  37.2004771  64.8147154
   5.7154353  36.7966366  63.3706617  76.4433670  20.1634032  10.0285417
  77.2265530  20.3794438   9.5223981  75.7485485  20.6875235   9.6300870
  20.5145534  58.3762741  84.9023247  21.3011630  58.8111496  85.2315044
  20.8071883  57.4946833  84.6712494   7.6466544  50.0600767  51.4946890
   7.7672656  50.7647610  50.8582067   8.4835609  50.0084877  51.9563675
   3.7959846  76.4645576  87.2295856   4.6636375  76.0693169  87.3144150
   3.5934241  76.7883253  88.1072998 101.8651772  27.6343584  72.9590321
 102.7659702  27.9550505  73.0033970 101.4967442  28.0613732  72.1856308
  19.4274521   6.0462529   2.0095521  20.3738117   6.1289412   2.1270258
  19.3150759   5.8923966   1.0715086   0.2001460  31.7437816  82.6817036
  -0.3282754  31.0031462  82.3842716   0.4164108  32.2207832  81.8804932
  98.9069748  75.0650597  64.3501139  99.2772865  74.2885208  64.7697449
  97.9839420  74.8487425  64.2180252  26.2844173  65.0737108   6.6919214
  26.5498916  64.8122825   5.8102209  26.7698375  65.8816923   6.8585378
  93.3342838  37.2229201  11.1899454  92.6762390  36.5366179  11.0794527
  93.1460476  37.8498847  10.4915792  21.1533539  82.0551957   2.3178751
  21.7517940  82.7968730   2.2283250  20.5382911  82.3247136   3.0000001
   6.0902778  49.2867157   0.2322942   5.8135645  48.5815225  -0.3528231
   5.8897440  48.9621113   1.1101705  25.4159721  25.6783390  85.1026058
  24.6992667  25.8602643  85.7104397  25.7621272  26.5413213  84.8752880
  41.4143936  88.1863536  17.2963697  41.9737999  87.5940432  16.7939168
  42.0264141  88.7507094  17.7687723  23.4133236  79.6715034   3.0290967
  22.5067703  79.7183074   3.3327562  23.3443157  79.4312490   2.1051103
  89.2217350  48.3744764  43.8047218  88.9524651  48.2374716  44.7129917
  88.5721016  47.8979874  43.2878399  86.8588543  40.9347827  20.0638086
  87.0791435  40.0284964  20.2790815  86.8161965  41.3785846  20.9108335
  83.7542343  51.4995480  46.2282848  84.3991756  51.3447571  45.5381250
  83.7413788  52.4506807  46.3351297  55.4817200  22.6343686  10.4956514
  56.4343262  22.5774724  10.4212457  55.2419090  21.9035680  11.0654336
  44.2317963   8.0469376   6.7381841  44.3939972   7.2694737   7.2724802
  43.2814169   8.1587941   6.7603570  82.4826145   5.7831056  14.2216856
  82.2012806   4.9629361  14.6271593  83.2967568   6.0064084  14.6728307
  70.2855873  29.9156672  12.6251394  69.6548462  29.1956717  12.6260454
  69.8101425  30.6501109  12.2368413  92.5288669  85.8344323  87.8156090
  92.0294467  85.0235207  87.9116917  93.2728950  85.5935211  87.2636890
  94.2150116  20.3701520  63.2162046  94.5466423  20.1347709  64.0827179
  93.8747406  19.5498633  62.8590345  20.2810367  23.1846428  78.7886667
  21.1367019  23.0606127  79.1993809  20.2645667  22.5493002  78.0729151
  56.1609356  86.3949598   4.4770414  55.2524940  86.4701737   4.7691137
  56.6104976  87.1252169   4.9023134  80.0551605   7.9205758   3.3071500
  79.1096878   7.9274804   3.4564001  80.2242279   7.0803410   2.8809434
  13.6682789  64.3186797  13.9705068  14.2750160  64.6228064  13.2955247
  12.8872005  64.8590387  13.8515169  76.9437361  18.0270803  80.0829124
  77.2690582  17.5658917  79.3098068  76.0006380  17.8633893  80.0802517
   2.5583442  61.6507149  87.6554012   2.2272285  60.9948492  88.2689381
   2.5566276  61.2074947  86.8070030  21.3834747  17.9618967  80.2297974
  21.8736060  18.7645960  80.0518227  20.5310806  18.1056213  79.8187113
  72.8579760  37.1557021  76.4352512  72.9825354  36.3289618  75.9691858
  72.4446154  36.9050002  77.2613955 105.8044434  25.1528668  85.1924610
 105.5174446  24.2951369  85.5057716 106.2452888  24.9695992  84.3628216
  10.8939735  78.5975493  23.2070810   9.9887363  78.3574189  23.4048540
  11.4096729  78.1727041  23.8924963  16.3716872  29.0952277  76.8791151
  16.8663772  28.3590007  77.2389507  16.0314258  29.5535493  77.6474905
 102.3969269  61.7695427  46.8125439 101.8247509  61.5255404  47.5400829
 101.8016624  62.1023989  46.1409092  78.3940021  82.6921243  68.1215668
  78.5349838  82.1155436  68.8725090  79.0914909  83.3444733  68.1862068
   3.7805827  66.3342142  83.1684589   3.1923564  65.9866381  83.8388443
   3.1999000  66.6047239  82.4572182  40.6266586  90.3561272  29.9158365
  40.8805076  91.0974897  29.3661386  41.2279598  89.6549190  29.6648962
  15.0064747  85.7139934   5.5480367  14.2940323  85.1018681   5.3637868
  15.6603042  85.1886882   6.0093385  44.7223560  93.7165893   4.7075635
  44.6494285  92.8521885   4.3029386  44.1399662  94.2730202   4.1904241
  93.1442070  26.1063004  67.1962595  93.8513279  26.7418408  67.0853376
  93.3009624  25.7216787  68.0586576   5.3514655  21.8452907  61.4719582
   5.2275928  22.4989462  60.7837534   6.2867625  21.6434884  61.4450741
 107.5209999  64.9297905  53.6062098 108.0169010  64.4555378  54.2735863
 108.1492805  65.5502653  53.2367516  67.6153374   1.7274577  31.6424734
  67.8535366   2.4068124  32.2733194  67.7897835   0.9045989  32.0993215
   5.6706222  38.6464119  65.9751844   5.8269675  38.6258435  66.9193029
   5.3912147  39.5446539  65.7981920 100.7851752  86.8403400  21.7878992
 100.0570687  86.2543620  21.5812093 101.3940199  86.2981500  22.2894651
  88.8461113  53.0964708  31.4680386  89.2758179  53.1561327  30.6147957
  88.6296558  54.0018177  31.6910267 101.2578011  40.4577446  59.8160553
 101.4920807  39.7059870  59.2718029 101.6417599  40.2633667  60.6710577
  33.0821689  51.5963030  25.6260180  33.0865749  50.6697035  25.3859663
  32.2011264  51.7513227  25.9665394  59.4390670  86.6760029   9.6416837
  59.2471496  85.8544125   9.1895849  59.4033138  87.3414816   8.9545900
  47.2691147  47.5431411   4.8169977  47.3386184  46.5961359   4.6962434
  48.1671707  47.8300293   4.9825746  36.6035358  96.2532629   6.2066156
  35.9291355  96.6432871   6.7627603  37.0135872  95.5873789   6.7585928
  26.2873061  19.2420936  85.0779247  25.9951194  19.3893731  84.1783810
  27.2170623  19.0297854  84.9960327  91.3890553  56.6888237  65.7788992
  92.3000050  56.4218616  65.9019232  90.8965206  56.1537218  66.4012384
 103.1167221  40.6676769  80.2560425 103.9826298  40.3430939  80.0089073
 102.5552845  39.8927236  80.2343941   3.6573203  48.3137512  86.5825748
   2.7043899  48.3286715  86.6716385   3.8313182  47.5800419  85.9929848
  26.7764656  47.6446788  33.3776647  26.5422908  48.4954838  33.0068189
  26.9787399  47.8305532  34.2945940  70.7116596  84.8701967  13.0909425
  70.3097812  84.0221847  12.9022676  71.0720627  85.1564826  12.2516614
 100.7028198   0.0763280  20.7054216  99.9452114   0.3053910  21.2437326
 100.9808540   0.9061534  20.3177148  55.4253292  23.7763316   3.6097604
  54.9247837  24.5035607   3.2398778  54.9937058  23.5878331   4.4430715
  42.9803173  72.8734054   2.4349004  43.7632934  73.0820097   2.9444868
  43.1640522  73.2188190   1.5613061   3.3861621  60.6561470  73.0743122
   2.4515994  60.5306196  72.9097891   3.8199599  60.1865530  72.3618984
  94.0117073   5.9623105  10.8845884  93.8778496   5.5719859  11.7482835
  94.9290657   5.7815320  10.6796342  79.5476914  46.7247874   4.8021966
  80.0910759  46.0787207   5.2533895  80.1642704  47.2245414   4.2671186
  99.5299053  15.5074603   5.8170110  99.1069317  15.6662232   6.6608888
 100.4311657  15.8050687   5.9410841 101.8923569  14.4318826   4.4688970
 100.9641075  14.4866759   4.6960146 102.2742558  15.2332360   4.8269731
 101.3745689   7.9340005  86.6709423 101.4506340   8.4505475  87.4732113
 101.0230923   8.5461009  86.0243893  69.3943691  10.8219206  83.7962723
  69.1877127   9.8888981  83.7415600  69.8517370  10.9173453  84.6317005
  16.6660587  56.5018977  12.8804475  16.7128174  55.5470557  12.8322584
  16.9762031  56.8003382  12.0254785  50.7940475  28.6279620   7.1810991
  51.1345188  27.9563893   7.7721197  50.6502906  28.1684102   6.3538248
  21.8352683  11.6369474  69.7895527  21.5527805  10.7950234  70.1467562
  22.5307830  11.9264245  70.3800631  73.2579319  98.0379690  70.5326796
  72.4076072  97.8324980  70.1441431  73.0703060  98.1740717  71.4613914
  84.0917015   4.0502372  78.0724716  83.8809872   4.4843450  77.2457981
  83.3279800   3.5036570  78.2574415  77.3602057  29.2341900  75.4131937
  77.1245003  29.4047618  74.5012856  77.6203871  30.0887108  75.7571888
  53.7102787  62.2996570  24.4681055  53.5279934  61.4915813  23.9885026
  54.4373314  62.7015699  23.9926130  34.7805778  76.6342153   6.8658620
  35.5776970  76.1735071   7.1277601  35.0172226  77.5610508   6.9006521
   3.4652694  48.4563828  39.2233443   4.3447002  48.0785561  39.2151213
   3.4880050  49.1007042  39.9308491  13.2569297  36.1787105  82.0605087
  14.0888198  36.5447187  81.7601109  12.7947791  36.9215274  82.4489212
  84.8634052   0.9664003  75.8624268  85.4571533   0.3419837  75.4455423
  85.2547359   1.8223056  75.6877375   1.5392001  64.9324036  79.7467756
   1.7346748  65.6718063  80.3223610   1.8030341  65.2302837  78.8762045
 100.4215717  13.1379175  56.5163231 100.8401108  12.9344273  57.3527718
 101.1409187  13.1487894  55.8849335  14.2511837  47.3900424   3.4932882
  13.7268154  47.9739644   2.9452974  14.5562355  46.7088942   2.8939420
  10.4808219  24.5905972  58.2271099  11.1261352  24.2215705  57.6240921
  10.8339389  25.4493570  58.4596443  70.5345774  14.8227322  51.0585308
  71.3519049  15.3206527  51.0417318  70.8107948  13.9124894  51.1652756
 105.4283524  13.9106441  79.5512486 105.7688713  13.9859247  80.4426575
 104.8292923  13.1648850  79.5858812 105.3452110  15.6822836  59.3791533
 104.4203568  15.5891764  59.6076632 105.3410149  16.1808896  58.5620785
  71.0626125  26.0620379  61.4326525  70.6389189  26.9078517  61.5786600
  70.5300283  25.6406379  60.7581091  47.5432865  56.8662102   1.7735654
  47.0214359  56.1372478   2.1090108  48.0080406  57.2009255   2.5405103
  60.3617469  89.4153685  67.3953962  60.2087871  90.2903850  67.7520180
  60.0063030  88.8216729  68.0567694  93.7628269   5.9342664  79.9872732
  93.8933849   6.1778402  79.0708351  92.9369545   6.3523567  80.2309036
  69.0234566  22.9387784  44.1040516  68.9135695  22.3575544  44.8566055
  69.2333078  23.7902594  44.4876814  14.8669322  53.4728622  68.5723925
  14.9667438  53.8026524  67.6793623  15.7481845  53.1988192  68.8264084
  77.2985832  82.9285295  81.4806557  77.5066940  82.6538307  82.3736668
  76.3484279  83.0444641  81.4810181  50.5767433  56.7578865   3.0648309
  49.7962848  56.9974841   3.5645467  51.1995212  57.4632324   3.2405073
  48.8539402  59.7798426   6.7499715  49.6491234  60.0288452   7.2210390
  48.1973736  60.4149975   7.0358640  76.4815807  28.1664729  42.7344036
  77.0045376  28.0362344  41.9433403  76.7803669  29.0061736  43.0834913
 102.7931404  37.6675153  68.7691689 103.4150410  37.5748968  68.0474472
 102.3263264  38.4815025  68.5801172  70.1801292  98.6537499  40.9461546
  69.3191234  98.7973288  40.5533552  70.3027145  97.7049661  40.9143019
  29.9468128  22.9394521  24.8489934  30.3469364  22.6343526  25.6632692
  29.1970054  23.4628333  25.1319963  14.2391284  22.6451087  65.8369875
  15.0309737  22.9534316  65.3963661  13.7984546  23.4446096  66.1248159
  32.4900134  18.3230340  83.3096886  32.1152766  19.1778982  83.5218334
  32.3793586  17.8080046  84.1088963  33.5948165  11.1898410  70.0409937
  32.8508743  11.6126883  69.6120644  33.4968169  10.2613163  69.8301220
  49.0002815  54.4990407   8.2803422  48.5450069  55.3004573   8.0220968
  49.9128334  54.6524979   8.0355341  83.8979816  12.3303640  19.5105338
  83.0511761  12.7747953  19.5509994  83.8738155  11.8434691  18.6867738
  59.1920463  92.3556615  78.3350897  59.3460838  91.5048725  78.7457752
  58.2550994  92.3609693  78.1392813  93.5165977  46.6023207  50.0624752
  93.5027885  45.7347870  49.6582079  92.5934029  46.8323851  50.1673889
  27.3643382  25.1802516  48.4523630  28.1931003  25.2415180  48.9273691
  27.1726497  24.2428398  48.4250736  99.2481422  58.4135675  72.2907066
  98.9603233  57.7225113  71.6941881  99.8282719  58.9607143  71.7612648
  98.4768105   0.7525761  32.6448250  98.7183189   1.6663928  32.7959585
  99.2151070   0.3871911  32.1573377  39.5214740  79.1743118  25.9700274
  39.5055334  79.8547322  26.6430855  39.6707860  78.3621056  26.4540291
  61.3758270  98.4248782  68.1280994  61.0061351  99.2745755  68.3680487
  61.5332786  97.9873104  68.9647436  34.4842036  46.3998842  33.7624574
  33.6195548  46.7207575  33.5062075  34.4085391  45.4466772  33.7188220
  94.1161633   7.6490450  49.8250532  93.3303642   7.7481800  49.2875290
  94.1409016   6.7174542  50.0435925  17.9323665  53.8224338  10.4935724
  18.1856434  54.7420151  10.5739004  17.6147834  53.5845004  11.3646394
  60.8980362  50.6319325   9.5600206  61.2597362  51.4985233   9.7455484
  61.1638538  50.0963899  10.3075201  26.6301044  29.1631460  65.2204227
  27.3176368  29.4411469  65.8256102  26.3840564  29.9620605  64.7541332
 105.7917404  49.6515608   5.6774253 105.7860947  48.6981392   5.5926180
 106.4000988  49.8245049   6.3959152  15.5182822  34.2251658  60.1641703
  15.3935226  33.6807346  60.9415102  15.6148036  33.5993004  59.4463921
  88.0933189  12.6222169  40.0433111  87.6641178  13.4459484  40.2745819
  88.0583286  12.5941169  39.0871620   5.8458702  43.5693689  19.2467863
   6.2310354  44.1128524  18.5593969   6.2164680  42.6991291  19.0999109
  61.5983955  75.4199154  79.5376587  61.7327014  74.5240409  79.8468542
  60.9637825  75.7920439  80.1500511   2.4627288  14.5414007  58.0685997
   1.7082008  14.0520906  57.7407503   3.1505759  13.8831019  58.1673431
  20.1387389  16.1772287  61.4764166  20.9014781  16.3783264  62.0186472
  20.3971561  16.4394319  60.5928469  96.2519264  29.6383071  19.6095598
  96.8573952  28.9314198  19.8330414  95.3844166  29.2773461  19.7922587
 107.1496296  15.5925477  62.7348328 106.3620853  15.4604661  63.2626104
 106.9866085  16.4083076  62.2613382  43.7807552  40.4957606  22.6708681
  43.4205906  39.7112192  22.2573358  44.4043056  40.1618041  23.3157617
  23.8602249  53.7922414  43.6653692  24.0137283  53.8447882  42.7220232
  23.4378616  52.9426995  43.7923509  91.9545460  16.7041433  79.4178629
  91.2588215  17.0166993  79.9962234  91.6400528  16.9026625  78.5358667
  37.1362956   3.8683268  84.5671177  36.6543945   3.2025906  85.0578308
  37.7395900   4.2472208  85.2064228  25.8377926  67.5931300   1.3365156
  25.5121986  68.4337200   1.6584188  25.4278938  67.4905313   0.4776269
  40.8641712  59.5381345   1.7151910  41.5934745  59.6297248   2.3283464
  41.1166469  58.8079984   1.1500436  71.9725370  14.4727886  67.3363638
  72.3125076  13.7633312  67.8816366  71.0475969  14.2588055  67.2141886
  84.3532745  99.3834230  33.4959626  83.9954559  99.9725855  34.1601038
  85.2048198  99.7606006  33.2749534  82.4594688   3.2179233  52.6127291
  82.4362946   3.3769846  51.6691208  82.9345417   3.9679676  52.9704571
  82.3744297  23.3820105  50.4944563  83.1812668  23.2172656  50.0064850
  82.4458599  22.8257680  51.2701654  96.5519047  23.9824629  55.8343554
  96.4940643  23.6225677  56.7194319  96.0677719  23.3607721  55.2908945
   7.6014026   9.8675251  79.9326134   7.0061286   9.1325206  79.7854614
   7.0257362  10.6258404  80.0316238  19.8412410  26.3007225   7.1503240
  20.0609771  25.3755320   7.0409280  19.0664665  26.4292110   6.6031057
  97.1797466  28.2502484  74.4282961  96.9469643  28.9468932  73.8145065
  96.4349556  28.2001996  75.0274754  31.4454071  42.0623095   6.4515382
  32.2846786  41.6760285   6.2012750  31.4729587  42.9488481   6.0916502
  95.5284119   6.4624214  67.0555210  96.2750721   6.5100986  66.4584780
  95.2126217   5.5626136  66.9727325  80.0493232  91.7531890  67.0622444
  79.9169342  92.6264817  67.4311161  80.9235088  91.7872591  66.6738224
 107.3031902   5.7395792  87.0408058 106.9163704   5.9008300  86.1802197
 106.8897438   6.3851207  87.6140118  53.6675787  28.2197618  56.2893343
  53.8754416  28.3257318  57.2176647  54.4689131  27.8660822  55.9033203
  18.6123554  81.4735521  25.3635770  18.0314724  80.9762300  25.9393198
  18.1770603  81.4562572  24.5112497  41.8258468  36.8138875   0.4115659
  41.2393371  36.2427033  -0.0844019  41.6351120  37.6936497   0.0861913
   9.0579494  54.3671322  67.4423075   8.3037360  54.9456882  67.5548458
   9.6360667  54.5821190  68.1742907  19.7553531  77.5049747   2.0404035
  18.9302437  77.3492660   2.4999601  19.7066299  78.4201468   1.7641431
  21.6622050  16.7328024  59.1809797  22.5479491  17.0564640  59.3450880
  21.7918952  15.8911967  58.7438154  14.2744621  34.0760875  77.1048212
  15.0256713  33.5353589  76.8608236  13.9039500  33.6392784  77.8717279
   4.3560107  34.0861654  58.9037371   4.8023685  33.5208368  58.2733393
   3.5910876  34.4146180  58.4312534   6.1348049  71.9775666  11.1024076
   6.9483082  72.3786773  11.4082700   6.3744680  71.5448154  10.2829439
  45.6712143  94.8855461  10.8851797  46.3634292  94.8302330  11.5439779
  45.0633232  95.5391849  11.2307912  10.8381828  19.0104282  81.5274048
  11.6700824  18.9743614  81.9995022  10.6235965  18.0946255  81.3499641
  81.4469753   1.6075904  17.4871236  82.1018831   2.1959502  17.8628332
  81.9373821   0.8179433  17.2586710  98.9511307  91.8311037  37.4993974
  99.0622385  92.0672764  36.5784627  99.1631802  92.6317324  37.9792482
  97.7957209  82.6760901  41.4525968  97.9187306  81.9110454  42.0145685
  97.9166468  83.4244765  42.0369989  81.4471444  94.3388332  18.8806325
  81.7734345  95.1151909  19.3356496  82.1043309  94.1617836  18.2075864
  16.1411095  15.9209639  16.9248468  16.3033772  15.8393771  17.8646642
  17.0119810  15.8959348  16.5283758  98.5016163  73.9783491  27.8682405
  98.0419262  73.3120550  28.3790952  99.0914925  74.3964185  28.4955293
  51.8025923  20.4743814  87.7323055  52.5287247  20.7507992  88.2913780
  51.8847752  19.5218194  87.6864624  96.5751688  14.1571385  21.9247800
  96.3362185  13.2611043  21.6875917  97.3167221  14.3656546  21.3565809
   0.8110229  81.8084301  50.5486948   0.4986087  80.9310259  50.3278142
   0.0713531  82.3828877  50.3509027  95.8131282  39.3795688  28.7767202
  95.6463997  40.1744563  28.2701665  96.4685218  38.9035994  28.2666856
  73.7164709   4.6086318  30.3146249  74.6527044   4.7092254  30.1426393
  73.6355065   3.7341887  30.6954462  20.3870201   7.8485639  53.8385469
  20.0115442   8.5739333  53.3394510  20.1361609   8.0263430  54.7450143
  13.7401962   9.9270160  23.9179880  14.2603636   9.2605693  24.3668825
  13.5631800  10.5854089  24.5898611   3.1565523  11.8902928  20.8408433
   3.8568187  11.8064124  20.1936704   2.3562074  11.6916091  20.3548318
  76.7375859  93.2936586  46.7382509  77.2619256  93.3119263  47.5388509
  75.9236582  93.7383951  46.9748098  66.7141776  24.2789084  18.3755666
  67.4553101  24.7699124  18.7303525  67.0617105  23.8540275  17.5913984
  35.3141904  71.4207268  86.4906979  35.6156301  72.1266937  87.0625210
  35.8442163  71.5111065  85.6987858 102.3189322   3.4633309  32.8178770
 101.4680569   3.8513810  33.0219919 102.2192685   2.5374705  33.0394155
   5.5298090   0.0914771   1.0884077   6.2032223  -0.1054090   0.4372674
   5.7524777   0.9664971   1.4062006 101.3389691  93.3449425  46.9138223
 101.8835505  94.1297401  46.8525392 100.9798964  93.3712400  47.8007299
  73.8207825  93.6351694  36.5887720  73.2819494  94.4133104  36.4459878
  73.9942177  93.2992758  35.7093793   9.4429922  14.1214711  40.9015829
   9.9222803  14.7388512  41.4541704  10.0735855  13.8617522  40.2299196
   0.8311320  23.4247167  43.4140951   1.5488720  22.7932460  43.3658964
   0.2103400  23.0351788  44.0298158  39.7125244  63.7534666  82.6576805
  40.5339289  64.2327070  82.7665806  39.9753761  62.9063368  82.2977924
  91.0618703  26.5220267  20.1815301  90.8760468  25.7615334  20.7323057
  92.0042531  26.6611392  20.2753049  75.1524743  85.4317845  40.3173429
  74.5979961  85.0664820  41.0067922  74.8278054  86.3240947  40.1964933
 102.7161495  12.5529534  26.6400129 102.7569191  11.6088302  26.7923433
 101.8271129  12.7986771  26.8958742  21.5493584   5.3064162  14.8857099
  21.4353037   5.0992591  15.8132440  22.4841881   5.4909236  14.7947008
  82.3212203  83.6175574  61.1251909  82.9102763  82.8863896  61.3113100
  82.7212103  84.0632810  60.3784830  45.5416926  89.6351661  77.1612436
  44.7603639  90.1831950  77.2348863  45.4999479  89.0551628  77.9215700
  17.8371513  67.2026348  66.8293285  17.1885502  66.5503740  67.0941019
  17.3189282  67.9275370  66.4797688  30.4619169   3.1729371  54.8845464
  30.3127527   2.7719981  54.0282613  31.4084196   3.3103759  54.9230463
  90.8015831  96.4722265  13.9783937  91.0358819  96.2659277  14.8832494
  90.0031336  96.9951405  14.0509874  77.1028908  91.9120087   6.6935522
  76.3228568  91.4054836   6.9198591  77.8306254  91.4043535   7.0526010
 100.7330744  20.6087596   7.8431303 100.6589334  21.5584380   7.9371721
 100.7420294  20.2790648   8.7417108 100.1141850   8.4983260  45.0091249
  99.8368685   8.2119424  44.1388876  99.7520821   7.8416879  45.6040556
  95.7595436   8.1730611  25.8604318  95.2056305   7.6164967  26.4078313
  96.5068953   7.6192052  25.6347353  38.0615616   1.2660272  81.6209108
  38.1998825   0.3683335  81.3188440  38.8461113   1.4711768  82.1294672
  69.9623243   7.2573096  17.9387838  70.3045450   6.3794190  17.7701932
  70.0641545   7.3768145  18.8830263  38.5522843  26.1511237  23.6440164
  37.9709339  26.0569627  24.3986017  38.5052300  27.0805318  23.4199220
  77.2162922  76.5493382  38.4998495  77.1747406  75.6062879  38.3412153
  78.1165131  76.7896618  38.2805711  66.8889817  94.5902361  35.5026990
  67.8293379  94.7684635  35.4886228  66.8254741  93.6359276  35.4641229
   6.5672684  11.1928136  36.3497812   5.7961035  11.3021190  35.7933790
   6.7729664  12.0779282  36.6506082  54.6961149  87.5224675  33.5954076
  55.4491814  88.1036605  33.7018949  53.9567026  88.1127061  33.4500772
  94.1052715   9.7687203  46.6495115  94.8882095   9.2677934  46.4207822
  93.4266798   9.4332702  46.0636598  97.4482974  97.6705898  33.8292676
  96.7168959  97.8303875  34.4257051  98.0481156  98.4001173  33.9849645
  30.0861263   3.8078315  22.3563463  30.4432202   2.9275090  22.2390920
  30.4821396   4.3225629  21.6531641   2.1238971  14.5188195  48.3203489
   2.0011950  14.1228492  47.4575693   2.6021695  15.3294379  48.1460268
 104.5103709  18.0214173  48.2971174 103.7349216  17.9419524  48.8526231
 104.3285648  18.7773425  47.7387601  83.5021885  90.4740704  28.1198865
  83.4530123  90.5494965  29.0728361  82.8684004  91.1140741  27.7959425
  33.7901688  55.2921111  36.2287694  33.3982468  54.5180613  36.6331083
  34.6812201  55.0214774  36.0073644  79.6556386  73.1419815  32.3344976
  80.5686720  73.0089272  32.0797426  79.1538294  72.9269875  31.5482408
 106.1857264  11.8995911  39.0358240 105.8038942  12.0711285  39.8966486
 105.5604331  12.2767693  38.4169752  60.7896757  73.4123707  81.4022541
  60.5030060  74.2460775  81.7750549  61.7251444  73.3703184  81.6006660
   8.8667194  75.1694597  24.0584642   9.1831962  75.6061949  23.2676775
   8.9144603  74.2360200  23.8519651   7.5006056   3.0159623  18.0864603
   8.3496714   2.9531056  17.6490099   6.9383335   2.4078376  17.6066000
  82.0406207  86.3587703  28.2736093  81.5383204  87.1277465  28.0041582
  81.4531239  85.6204380  28.1125433  81.5221604  97.6382078  26.0102159
  81.3561877  97.6636375  26.9525701  82.4520405  97.4234499  25.9364969
  85.3210696  57.6558716  20.1577837  85.5897292  56.7610992  20.3661901
  85.6801041  58.1856842  20.8695585  53.6329385  67.0994164  24.0305597
  54.5894488  67.0967223  24.0668088  53.4280594  67.3543824  23.1309778
  47.4764105  93.2337345  26.3531477  46.5655597  93.3575548  26.6200716
  47.5664600  93.7588753  25.5579454  37.8020764  19.2365558  43.2211954
  38.3867550  19.4695765  43.9423639  38.3307219  19.3641145  42.4334795
  95.7718857  90.4804982  57.8811437  96.4350232  91.0781492  57.5357610
  96.0791119  90.2648677  58.7616807   0.6484914  17.9007108  28.3771211
   0.5397129  16.9630868  28.2181913  -0.1546645  18.1620557  28.8275320
  79.7928008  75.1281513   1.2312490  80.2322348  74.5202888   1.8259222
  80.3347310  75.1251854   0.4422361  17.3811627  30.0508220  19.8992330
  16.8097639  30.8043296  19.7510320  17.9472971  30.3182704  20.6232435
   0.1071358  35.6549079   8.3733160   0.2756000  36.0583884   7.5218088
   0.6472516  34.8646552   8.3749563  69.9475440  78.4613861   2.8940469
  69.7891363  78.7652315   2.0002824  69.6417173  79.1790379   3.4487325
  19.9169445  32.8107268  19.7132665  20.3521300  32.9645545  20.5518323
  20.2648211  31.9709117  19.4133932  67.5805338  73.2163824  44.1041261
  68.4961112  73.2777871  43.8317663  67.4659451  73.9373697  44.7232229
 101.8697779   7.4688966   3.1051046 101.5295212   7.8756196   3.9019949
 101.1177651   7.0103366   2.7303583  89.6675356  98.3508839  11.4832288
  90.2966794  97.6333012  11.4091379  88.8427123  97.9795326  11.1701852
  93.6657826  11.2278325  25.3376657  93.7336366  10.6290872  24.5939428
  93.5462181  12.0905072  24.9405080  96.6666325  81.2261666  19.1063196
  96.4050492  81.8580259  18.4365732  96.5708455  80.3736462  18.6817438
   6.2507200  18.6497409  43.1627828   6.3876438  18.9729363  44.0533048
   6.9232559  17.9788072  43.0454332 106.7364462  71.9640960  10.4127103
 107.6515921  71.7059459  10.3027231 106.2607964  71.4408721   9.7675497
  80.8885153  86.9352831  48.4325677  81.3646039  87.0277919  47.6073343
  79.9725827  87.0858492  48.1988412  71.5677293  93.3717693  17.3107416
  71.1798128  94.0232862  17.8949338  72.0356997  92.7749123  17.8946859
   8.9843559  40.7489879  15.9183294   8.6479044  40.6004531  15.0346071
   9.0268946  41.7016227  16.0014326  98.1605872  85.5299462  28.9662153
  98.3736094  86.3804950  29.3501646  97.7627095  85.0363292  29.6833307
  98.5797223   0.4493277  87.2712135  98.4516533   1.2820189  87.7256012
  97.9717549   0.4835074  86.5326786   3.9553571  45.5477530  45.2510339
   3.1254077  45.3505523  44.8168355   4.4888830  44.7647864  45.1148492
 104.1545383  24.9552352  22.6463110 103.8920371  24.6244485  21.7872983
 104.8454301  25.5902631  22.4575407  83.9392766  92.7348341  15.6086427
  83.5536297  91.8788732  15.4219896  84.2352160  92.6713242  16.5167219
  36.3430262  50.2936220  78.5061836  37.2020531  50.5757618  78.1920052
  36.5196514  49.8890114  79.3554878  59.4317039  70.8248724  20.3633672
  58.8042148  70.1949681  20.0088102  60.1938113  70.2963473  20.6001932
  80.3885134  74.1068138  19.4035512  79.4424160  74.0031232  19.3016798
  80.5340775  75.0508274  19.3412668  87.5109538  94.9154152  12.1421224
  86.7066153  94.7097744  12.6185495  87.9520138  94.0718712  12.0414526
  94.1513785  68.3516051  23.2848054  93.4908684  68.0445398  22.6637823
  94.9452504  68.4526707  22.7596456  90.6700484  10.6931264   1.7808229
  90.8376388  10.2964885   0.9259397  89.7351901  10.8984668   1.7704660
  48.6772871  46.2809086  65.7356215  48.0448627  46.1683941  66.4452791
  48.6715841  47.2211933  65.5565643  54.1050148  21.7807102  78.5134554
  55.0302076  21.7068577  78.7475395  54.0730000  21.5450978  77.5862598
 103.2445963  90.4999699  24.4565565 103.1867989  89.5524801  24.3334562
 102.4681004  90.8464183  24.0169412  67.9504140  46.4067925  21.4593870
  68.8559469  46.1146377  21.3550550  67.5427516  45.7334663  22.0040685
  67.3002060  84.9205722  39.4415075  67.9525836  84.4075049  38.9646417
  67.0152720  85.5866112  38.8158590  88.7392215   6.8174559  59.5366365
  88.6848824   5.9684426  59.9753267  89.6216719   7.1322686  59.7326070
  69.0258177  34.5747341  19.5221979  69.4386919  33.9281441  20.0946409
  68.2573732  34.1261913  19.1693002  17.5518584  75.2751255  66.1352348
  17.9218745  74.6610355  65.5010319  17.8173828  74.9286699  66.9871140
  65.6762505  34.8160172  80.2033424  64.8701715  34.4755578  80.5913544
  65.3782606  35.4016638  79.5073128  26.3450766  44.9243021  74.7457504
  26.3617015  44.4727802  75.5895996  25.7962370  44.3717670  74.1892290
   5.5305092  57.0326938  33.9747888   4.7114507  57.2813482  34.4032175
   5.2560321  56.5510292  33.1944734  57.0391806  81.9990004   8.4135896
  57.0456108  82.3815693   9.2909986  56.1123785  81.8568481   8.2210714
  77.9053029  66.1944796   7.1468717  77.0888289  66.5766646   6.8251020
  77.8007706  66.1721410   8.0980855 102.5081929 100.4384626  20.2529317
 102.3598965 100.4702772  21.1980421 103.3828934 100.0608934  20.1603109
  88.5518750  82.1001781  33.2582361  87.6924046  82.4546684  33.0304700
  88.4632357  81.8247570  34.1706544  70.0141963  68.9595236  19.8932535
  69.4545039  68.1983019  19.7398931  70.6933697  68.6414982  20.4880792
  82.7969464  92.2731651  22.5393468  83.3442267  92.0010151  21.8027002
  82.0215710  91.7149652  22.4807436   8.1842415  84.0945019  22.1771699
   8.0459015  83.2206096  22.5424177   8.5978119  84.5875396  22.8857595
  77.7968502  33.9421606  86.4819050  77.8655481  33.0959392  86.9239712
  77.1107864  33.8150716  85.8266258  24.8907423  13.3146579  44.1731817
  25.6921053  13.0083615  43.7486440  24.4742012  13.8776881  43.5207063
  92.6619013  81.1704625  22.5543481  91.9601830  81.8052401  22.4098093
  93.4494885  81.7040528  22.6602727  87.8704651 100.6947626   9.9264413
  88.5618313 101.1293138   9.4270402  87.4088963 101.4081205  10.3672487
  23.8803482  33.9595801  27.4909383  23.1504584  34.1159446  28.0901510
  24.2547941  34.8271376  27.3380548  94.3911799  92.4129595  38.6914140
  93.5374983  92.7842964  38.9140588  94.3267163  92.2064318  37.7589876
  85.3614815  86.9406570  39.2260152  84.4142207  86.9335069  39.0886194
  85.6743058  87.6763572  38.6995966  87.7916531   9.1180665  26.9817525
  87.6829581   8.3379847  27.5257093  87.5312035   9.8437793  27.5489790
  36.6095090  10.0472879  74.2344666  36.4737439   9.1923821  73.8258886
  37.2521472   9.8835218  74.9247074  43.1224918  19.9353969  69.0526915
  42.5911856  20.6184006  68.6434841  43.4477711  20.3358269  69.8589659
  94.5863732  97.6047100  17.3290712  94.0393694  98.3803810  17.4529916
  94.7436102  97.5707735  16.3854867  29.7401802  65.6198276   7.5810224
  29.6895210  64.6889676   7.3638422  29.1265003  66.0400833   6.9785100
  32.2825646  60.2385426  67.6578379  31.6803813  59.5300341  67.4306440
  32.7295613  59.9295235  68.4458303  71.0695060  89.4333543  56.3259679
  71.1365374  89.4882931  55.3727037  70.1299532  89.4792999  56.5030557
  15.2502442   3.1238372  37.7061445  16.1480808   3.4045083  37.8832132
  15.3020525   2.1690566  37.6621419  72.1596003  20.5368042  75.5578804
  72.0895720  19.6992898  76.0160255  72.3855829  20.2996469  74.6584797
  43.2027175  77.2554077  21.3106615  42.8752866  76.3998546  21.5882379
  44.1551634  77.1602119  21.3148195  86.7084607  95.3535856  49.6139604
  87.0313176  96.1522974  49.1967660  86.1038741  95.6632151  50.2883798
  73.4410819  95.5449737   9.9033433  73.4425791  94.6973194   9.4587022
  72.6220902  95.5541386  10.3987199  78.4537896  82.4930896  42.3279554
  79.3205412  82.1182050  42.1716386  78.1599148  82.0854796  43.1426508
  85.6740006  60.0982799  44.4158250  85.7259663  59.4182338  45.0874406
  86.3381299  59.8507769  43.7724668  54.1010269 101.0414709  22.7389223
  54.2813929 101.9799627  22.7930433  53.1490704 100.9757866  22.8143961
  82.6413306  86.5489878  15.9719926  82.5242575  85.7052578  15.5353624
  82.9099186  87.1451892  15.2729684  12.3861075   3.6521012  15.3440362
  12.4627924   4.6006400  15.4470903  12.4166107   3.5107428  14.3978197
  29.6299028  31.9347644  74.0856123  28.6737370  31.8972206  74.1094446
  29.9120665  31.2057042  74.6379614  17.1701241   6.0579736  44.6851808
  17.8432131   6.5618665  44.2277128  16.6471195   5.6664807  43.9855939
  27.0616055  36.1484814  73.8019848  27.1172190  36.8078279  73.1103182
  27.7966070  35.5595684  73.6311483  50.6979179  49.4507504  75.5649900
  51.4091921  49.1684961  74.9899721  51.1357737  49.7243643  76.3710022
  43.9473581  20.7479167  64.8281002  43.5411310  21.5168452  65.2280521
  44.8764277  20.9708166  64.7699833  38.8256478  31.5114570  86.8881512
  38.0424738  31.0568738  87.1983433  39.1615748  31.9647050  87.6614189
  85.7475185  55.0051975  82.6453686  85.4350948  54.3985224  81.9741249
  86.1967373  54.4482660  83.2811832  47.6267763  88.5524644   8.4036523
  47.3013695  88.0185713   9.1284257  47.0551678  88.3319057   7.6682264
  18.9428759   0.8479745  50.6011850  19.8331785   1.1587960  50.7654554
  18.6377907   1.3746793  49.8624498  88.4520539  96.6543020  28.8627225
  88.5809096  95.8417810  29.3520528  88.5873230  96.4070143  27.9479677
  46.7945766  51.5506172  81.5446568  46.8696404  50.6460905  81.2406349
  46.1069155  51.9307518  80.9979820  87.4427994  88.7742390   0.9981710
  87.6815327  87.8597964   0.8464128  88.2654961  89.2549075   0.9067422
  21.8658471  63.5331154  62.1117735  21.6965437  62.8439236  61.4694452
  21.1865401  63.4140110  62.7755404   8.0705102  99.3849291  37.3133546
   8.5656770 100.1460947  37.0105917   7.9529174  98.8484110  36.5294153
   0.9036676  70.4056634  11.3078863   1.6218511  70.3198899  10.6809217
   1.3042442  70.2217604  12.1575624  50.9464455  53.5076284  87.1491623
  51.5444899  54.1499424  86.7670536  50.9541368  52.7762318  86.5317249
 104.9320833   8.5922248  14.7846300 104.0663664   8.2464511  14.5673448
 104.9196045   9.4918401  14.4578725  25.0245953  32.0868403  21.5159875
  24.2432404  31.7944533  21.0467130  24.9226618  31.7283255  22.3976404
   1.3452474  81.3016476  14.1474134   0.9078447  82.0797862  14.4929678
   1.0446016  81.2406863  13.2406980  13.3674050   9.4861609  57.0459253
  13.9732647   9.8760993  57.6760942  13.4443283   8.5432441  57.1916276
  77.1390971  70.0049128   7.3331243  76.6954287  69.3677927   6.7732412
  78.0534800  69.7219111   7.3400671   4.2661468  63.9664651   5.0395185
   4.6092598  64.5642342   5.7037336   3.7407295  64.5231224   4.4648057
  24.5151305  45.9992218  88.0621529  24.9797177  46.0616970  87.2275925
  23.6458111  46.3558626  87.8796196  54.4003630  17.8680623  86.3099098
  55.0735664  17.9969287  86.9780540  54.8254347  17.3296332  85.6423378
 101.1665551   5.9143073   9.0326101 100.3612463   5.4511363   8.8020021
 101.1999528   6.6535289   8.4254343 105.8678953   9.4797952  34.0408212
 106.0141818   8.6737449  33.5457307 106.7399899   9.7406775  34.3368322
  98.9783750  39.1474199  81.3810062  99.1363363  40.0447178  81.0875130
  98.6395697  38.6982656  80.6066036 106.2742081  48.2809639  70.9528017
 106.9047894  48.0115604  71.6206503 106.2840837  47.5690603  70.3130150
  45.4897118  18.6115987  10.6078130  45.6399918  18.9031512   9.7085649
  46.0588646  17.8488833  10.7105905  73.5200652  89.8450388  14.4325906
  73.2564672  89.1171254  13.8696558  72.8141864  90.4852427  14.3425542
  97.5812348  65.8719613  26.8340379  97.0707043  66.4437009  27.4073679
  97.0997675  65.8706559  26.0067350  90.5865391  96.2757124  59.1135294
  89.8306044  96.1643900  58.5369855  90.8566292  97.1844877  58.9815790
  19.2475045  55.5116796  80.8762932  18.5966480  55.2758074  80.2152443
  18.8882899  55.1746702  81.6970348  21.9763446  52.4187899  86.6265297
  22.0677090  52.5156307  85.6786346  22.8387904  52.1267271  86.9216824
   7.0057631  17.4759442  13.0583746   6.0837221  17.2193772  13.0426771
   7.0415020  18.2030398  13.6798936  91.8851861  88.2817902   6.4792806
  92.1675642  88.7198438   7.2821504  92.5067338  88.5771741   5.8139593
  66.4068317  64.7027922  84.2864609  66.9889879  65.2862406  84.7732067
  65.6550980  65.2498674  84.0587807  62.7615929  55.3121662  87.2406578
  62.3608637  56.0950041  87.6185608  63.6963987  55.4105473  87.4214649
  90.2853878  80.4762377  19.2377931  91.2055262  80.7361735  19.1929037
  90.3104647  79.5374597  19.4229967 107.5168651  44.0132523  82.4106216
 107.8125351  43.1363583  82.6552963 108.2635958  44.5802546  82.6033306
  34.5336747  70.4636860  55.5879354  34.4767785  71.3964081  55.7953548
  35.4693270  70.3018236  55.4671526  81.4054926  92.6577963   4.9650938
  81.7738875  92.5496305   5.8419115  81.7262038  93.5114635   4.6741849
 104.6508606  54.9059130  11.6419775 105.0447663  55.7320110  11.3615591
 104.9884804  54.2576183  11.0239488  68.8106712  60.2052654   4.9832231
  68.6453160  59.9629147   5.8943445  69.6948012  59.8838080   4.8065454
  37.1769834  67.2563362  87.3736763  36.9129467  66.3430834  87.4854183
  36.3530946  67.7432346  87.3545647 100.2986105  55.8309613  10.8321744
 100.4792555  54.9020092  10.6884748  99.7363957  56.0818054  10.0992185
  29.4357276  17.1857810  86.9886303  28.9169788  17.6649237  87.6348209
  29.1879416  17.5719595  86.1485767  57.1037912  26.7311788  83.9721012
  57.2752857  26.6104889  84.9060535  56.2901735  26.2523198  83.8141441
   1.5258543  99.5682444  18.3592779   1.3586609  99.9711145  19.2113191
   0.6685583  99.2563595  18.0694467   8.7604706 101.8539633   9.0404588
   7.9381553 101.3696159   9.1142160   8.8172714 102.0898737   8.1145269
  97.9306428   2.5389869   9.9140817  97.3672955   1.9368607   9.4279558
  97.9876773   2.1586902  10.7906419  26.5348911   4.1404683  41.3722593
  26.0450936   4.5300395  42.0965272  26.5153408   3.1998307  41.5484506
  96.5801255   2.3425347   5.0548822  96.1111347   3.1222731   5.3520090
  96.4901463   2.3574788   4.1020376  75.8178504  95.5058493   0.7222539
  75.1174863  94.9365581   1.0410482  76.5946253  95.2232469   1.2049467
  73.7990817  81.6893209   1.4138967  73.8498171  80.8728255   1.9108850
  74.6994122  82.0137037   1.3936121  84.1483267  91.7756761   8.7935907
  83.6140212  91.9197096   9.5746213  84.8576411  91.2055935   9.0904314
  44.3658495  24.8496532  73.9157581  44.2605448  24.9113798  74.8651409
  44.7970915  25.6677818  73.6689138  60.5013426  79.0853228  23.5307199
  59.9053677  79.7889437  23.7875444  60.8834132  79.3842973  22.7055723
  90.1278122  77.3904647   8.4399778  90.3477534  77.9372038   7.6856977
  90.9286507  77.3718370   8.9639455  68.2208808  70.9134711  10.5869466
  69.0929492  71.2782372  10.4363615  68.1508859  70.8453990  11.5391618
  47.7232647  26.5559149  76.5683603  48.1851196  25.7711792  76.8635035
  47.0836782  26.7312360  77.2585964  99.1379587  18.6895329  51.2847597
  98.9414613  17.8436620  51.6874010  98.5582129  18.7332875  50.5243570
  31.4300728  16.3238728  68.7342024  31.4010763  16.7958760  69.5664310
  32.1702719  16.7096782  68.2657051  71.9440174  30.8620954  71.1507654
  71.0787725  30.9920382  71.5389681  72.0865297  29.9165678  71.1943436
  98.1863650  89.1098226  51.2706548  98.7623700  89.6952928  51.7622549
  98.4552678  89.2195310  50.3585798   8.2432930  92.2224487   8.1818086
   7.3294965  92.1023144   8.4402257   8.3460418  93.1704868   8.0987245
  79.2515524  76.2125029   9.5813543  78.5940035  76.1554731   8.8880903
  80.0684412  76.4056887   9.1213495  99.5036849  53.3238572   0.9914476
 100.2521475  53.9174254   0.9305364  99.0250262  53.6206098   1.7654306
  38.4358835   0.8457620  34.0951902  39.1381884   1.4013774  34.4332487
  38.8157702   0.4208476  33.3261854  52.0642328  43.4716177  75.4285002
  52.0764971  43.3964729  76.3826656  52.7661991  42.8915596  75.1335239
  33.3379364  24.4665295  16.6108305  34.0999174  25.0432546  16.5560991
  33.5314560  23.7553555  16.0000783  19.4995785  11.3235385  46.2656194
  18.8475418  10.6566865  46.0502416  20.3394127  10.8705336  46.1901456
  86.0397307   6.1276347   0.6712228  85.0961558   6.2578112   0.5766088
  86.3001232   6.7484671   1.3516599   7.9687548  39.6471888  19.6675188
   8.1975460  39.1799933  20.4710275   8.3315706  39.1075522  18.9651090
 105.4340736  13.4549100  36.5681631 105.2251236  13.0401713  35.7311613
 105.7493107  14.3270928  36.3311941  96.1813744  87.5973476  15.2446443
  97.0770224  87.4591435  14.9365121  96.2812718  87.8701533  16.1566907
  24.8166323   5.0023229  24.0846712  24.2382860   5.3213603  23.3918745
  25.6604576   5.4153401  23.9013559  84.9707468  80.1002921  51.9188577
  84.6297511  80.2188767  52.8053648  85.8634718  80.4434551  51.9577295
  59.9359322  46.4378881  87.1186066  59.3793011  47.1246719  86.7515564
  60.8170891  46.8115711  87.1061134  85.7086810  92.8604568  33.9293462
  86.3896616  92.4421944  34.4561750  85.7538327  92.4158873  33.0828554
  61.0283375  12.9772622  13.3478529  61.5354347  12.4298579  12.7483255
  61.6276550  13.6819465  13.5937578   3.2155887  86.6847052  16.8909437
   3.6550132  86.7991485  17.7335817   2.8743450  85.7908143  16.9182188
   4.9932289  18.6304242  21.7361719   5.8543778  18.5274035  21.3311559
   4.6304083  17.7448756  21.7560560  99.2138108  87.6272477  15.7190210
  99.6991070  87.2020139  16.4260561  99.5576056  88.5202779  15.6958849
  45.0814819  85.8761501  82.9569626  44.5747423  86.6546059  83.1881809
  45.9715271  86.0746002  83.2479477  25.8857155   8.4013850  48.5667306
  25.7331991   7.4631221  48.4543211  25.4537440   8.8060719  47.8144914
  15.7716131  18.7891776  46.0628015  16.4263821  18.1132228  46.2377054
  14.9799109  18.3022553  45.8340055  46.2273284  77.6615490  20.8932954
  46.7327054  76.9415511  20.5158979  46.0948094  78.2686032  20.1651842
   8.6379910  23.3348424  41.5866834   8.5407734  22.4235160  41.8628294
   7.9973412  23.4416921  40.8835584 104.5373543  83.2520975  40.1225645
 104.8369559  82.7026738  39.3982679 103.7198981  83.6382116  39.8080617
  45.3433895   1.5156609  31.0374147  44.9095822   1.9175631  31.7900831
  44.8786545   0.6891925  30.9062654  63.9477777  67.8172731  86.2507820
  64.3437290  67.3812819  87.0053387  63.0669212  68.0504799  86.5439224
   6.0080719  35.8730418  50.0546819   5.6509543  35.0741107  50.4425127
   6.7956448  35.5841739  49.5936853  29.6835947   7.6000411  25.1298601
  29.2865801   7.4629361  24.2697412  29.3440294   8.4472997  25.4180891
   5.8956234 100.8032288   9.3216116   5.5710260 101.5297712   8.7896234
   6.0206310 100.0873579   8.6986047   1.0267536  75.2010764   6.6854078
   1.0064451  74.5474137   7.3843652   0.4322616  75.8893765   6.9838220
  96.2106045  96.4533915  47.8758890  96.1989459  97.1747745  48.5049421
  95.3841504  96.5369762  47.4002630  36.0826588  45.4915149  21.9165117
  36.4023018  44.8685176  21.2638647  36.4119196  46.3397509  21.6193468
  73.3836087  58.6661811  27.9905683  73.1007703  57.9924650  27.3722250
  73.7760480  59.3452884  27.4419004   9.5564604   1.4534432  27.7497179
  10.1329279   1.2751967  28.4927827  10.1292181   1.4020306  26.9845087
   2.0086328  63.5995914  12.0180780   1.3088695  62.9588748  12.1447355
   1.6731683  64.1905106  11.3438970 108.0301913  87.0979680  16.1311895
 108.2008799  88.0359377  16.2166959 107.4062642  87.0329918  15.4081899
  99.2205389  99.7048963  34.3956644  99.9744996 100.0687612  33.9315874
  99.2822608 100.0717796  35.2776033   4.3832207  26.3038117  24.1414339
   4.8596382  27.1214682  23.9975626   4.7891998  25.6808144  23.5387022
  22.4411579 101.8039240  19.6912080  23.1987627 101.8936504  19.1130907
  22.6964982 101.1263288  20.3172189  11.8424416   3.9897687   7.7592069
  12.0545960   3.1860501   8.2338220  11.5529013   3.6897761   6.8975812
   8.8277141  88.9786591  12.2950822   8.9743511  88.0855979  11.9833643
   9.3076126  89.0255512  13.1219560 100.2061614 101.5907539   9.7253973
 100.1206788 100.9131969  10.3960973  99.3353423 101.6500248   9.3324644
  54.8635932  90.1906837  13.7255270  55.4419621  90.5461515  13.0507165
  55.4028460  90.1690830  14.5160753  89.9964341  84.3036093   5.8429796
  89.8278912  84.0136351   4.9464590  90.7205208  84.9243678   5.7617933
  94.1353385  36.7571742  33.1243688  93.8760130  36.2838275  32.3338491
  94.7543494  36.1723811  33.5614854  83.1852921  83.7616719   1.3610441
  82.7761754  84.5686282   1.0485155  83.5395487  83.3515824   0.5720216
 102.4828537 101.4195837  27.9292375 101.8667706 100.7095922  27.7487165
 101.9396599 102.2073091  27.9549295  38.8379908  31.0125930  25.0348836
  38.2360459  31.2762935  24.3389303  39.6119452  30.6904895  24.5728475
  39.0090585  46.8255997  77.6686096  39.5954800  46.3805199  78.2803679
  39.5310259  47.5477314  77.3188829  84.5599040  98.5948814  25.8946687
  84.8562344  98.7964119  25.0070840  84.9514540  97.7436413  26.0904104
  36.0053015  47.6069266  36.0870821  35.5463028  47.1653277  35.3725511
  35.3406191  47.7167327  36.7670518   8.9130545  10.0597817  15.0400907
   9.4616032  10.6829411  14.5636446   8.1635714   9.9108703  14.4636137
  26.5200520   1.2959058   0.1164705  26.3232517   0.4149539   0.4349500
  25.6677914   1.7289264   0.0677568  93.1521480   7.6089913  38.6616594
  93.3126680   8.3942754  39.1849214  93.9619200   7.1036727  38.7334711
   9.2065096  20.6913907  17.6387483   9.2405844  20.0968129  16.8893796
  10.0591803  21.1263377  17.6383573   9.9279300  82.4808182   9.9354154
   9.4925682  81.6285242   9.9184400  10.6777183  82.3552240  10.5170328
  15.9833479   5.9066111  30.6782228  15.7536411   6.6848285  30.1704389
  15.4993105   6.0041911  31.4982301  88.1374701  72.7732386   5.7019788
  87.8226622  73.6005081   6.0663301  88.1627377  72.9220261   4.7567541
  89.1073235 100.0246204  13.7020475  89.2321022 100.9485735  13.4853345
  89.2220314  99.5657982  12.8698522  70.2962144  96.9926752  30.4032022
  70.8965262  96.8545832  29.6705514  69.5722421  96.3890423  30.2367002
  47.9843140   7.3565919  10.8607656  48.3018398   6.4913184  10.6024820
  48.7705803   7.8278024  11.1364061  34.0074206  23.1060273  28.3030302
  34.3989897  23.5558326  27.5543100  33.3613873  23.7250049  28.6432249
  71.3284095  69.0621795  24.4115716  71.1023530  69.1562499  25.3369314
  70.7559069  69.6829273  23.9608556  84.5490845  96.2977470   3.5863477
  84.8896893  97.1867193   3.4865743  84.6711215  95.8965267   2.7259046
   8.7363196  21.4962346  26.9809133   8.5581875  21.4686782  26.0408384
   8.2689238  20.7399089  27.3355276  24.1201591  62.9582405  86.1459160
  24.7875047  62.7974033  86.8130016  24.1668224  62.1941042  85.5713272
  26.1709690  11.9568211  12.0328409  26.6093016  12.6082856  11.4854032
  26.8819475  11.5227467  12.5043470  50.1227188  37.4367785  86.4348316
  49.3648005  37.9426384  86.7279148  50.8411646  37.7376533  86.9911957
  23.7836448  88.8322581  21.6061288  24.7253410  88.8620533  21.4371377
  23.7072555  88.4127940  22.4631292 100.9270771  63.7292077  27.2315580
 101.2831553  64.2946817  26.5462190  99.9821385  63.7338163  27.0789224
   1.4666104  27.1056754   9.4503767   1.0708022  26.7647321   8.6482984
   2.4087262  27.0766789   9.2836172  66.6052532  67.2155428  62.6215553
  66.1285782  66.7313337  61.9473505  67.5239658  66.9918299  62.4727249
  33.8799858  27.8071315   2.2060186  33.1733990  27.3646075   1.7357713
  33.9669085  28.6531598   1.7667944  16.9836807   2.4419314   9.7934991
  17.3678112   1.6277081   9.4683630  16.7149687   2.9119450   9.0041238
  37.5829506  29.3442256  26.5107614  38.2122564  28.6253268  26.5690404
  37.9194212  29.9007232  25.8083898  30.2581310  18.1680304  21.0132677
  29.3504524  18.4634311  20.9419424  30.2171850  17.4054629  21.5903741
  26.8809605  15.5014331  29.0315897  26.6725636  14.6183211  29.3363935
  26.0528183  15.8385093  28.6898309  61.7728710  21.1200768  34.7472364
  61.5395928  20.2243192  34.5034486  62.3985100  21.3954408  34.0771753
  34.3774033  18.1456715  20.8682806  35.1832342  17.8194577  21.2688428
  33.7019921  17.5303132  21.1535627  50.6894199  96.1103571  84.2214489
  50.1429931  95.4331137  84.6201801  50.9251968  96.6866619  84.9484348
  -0.2496838  33.6318118   3.8225633   0.6976032  33.4956271   3.8408357
  -0.3937101  34.3895060   4.3894750   9.4152165  11.7608840  12.9020578
   9.0716219  12.5986297  13.2124597  10.1907540  11.9943339  12.3918802
   3.3585441  54.5560408  59.3956757   4.1262579  54.9760246  59.7835684
   3.7052605  54.0633917  58.6518240  97.6545437  91.0708107   1.4500696
  96.9638260  91.0819830   2.1126539  97.3433836  90.4512133   0.7901365
  57.2301292  61.1100960  84.6075916  57.4235725  60.1769447  84.5179367
  56.6336060  61.1603546  85.3544998  29.1479159  17.7280814  13.2230169
  29.6550894  18.4815795  12.9209596  29.5458174  16.9784982  12.7802640
 105.5325373 101.1184658  21.1770231 105.6680544 102.0276703  21.4438898
 105.5541285 100.6228222  21.9956190  16.1438990   3.0414111  21.5920240
  16.2462378   2.7901751  22.5099832  16.6585541   3.8437135  21.5044862
  20.8201504  16.3555915   8.5314638  20.0600195  16.3130195   9.1116506
  21.3357115  17.0895965   8.8656408   7.2760821  15.0091082   9.6810895
   7.0493078  14.8776061   8.7604887   6.6719151  15.6878335   9.9820024
  78.6380299  60.0570466  14.4573766  78.1884392  60.8766879  14.2517358
  79.5650729  60.2934749  14.4877988  32.3207665  10.6192595  15.8911974
  32.1105766  11.4121444  16.3845426  31.6002989  10.5270154  15.2677804
  60.7926512  21.1924267  83.4048271  60.2313900  21.3452554  84.1649914
  60.5938578  21.9163013  82.8109264  70.6738862  93.8290943   2.6782018
  69.9266370  94.1223968   2.1568376  70.3095945  93.6657728   3.5481721
  43.8476801  31.6934115  20.7753259  42.9268932  31.6984660  21.0367853
  43.9282656  30.9349830  20.1969320  85.5949458  93.8642515  22.6971418
  85.0182446  93.3139099  23.2270128  85.4757508  93.5446371  21.8027860
  87.7374228  92.5465311  19.7422773  87.6941355  93.0888761  18.9547426
  88.5069808  91.9929279  19.6098501  43.6961460   8.7135131  36.4393217
  43.3768559   8.5002095  37.3161203  43.9152050   9.6442325  36.4840299
  30.0180292  19.4928510  26.5910322  30.5727625  20.1379353  26.1524374
  30.2994299  19.5172936  27.5056058  65.4251194   0.5567080  30.4248792
  66.0153771   1.1949307  30.8255083  65.6804753  -0.2810853  30.8110601
  74.7066887  98.1716980  16.2932760  74.3033536  98.9002623  16.7652303
  74.0484317  97.4771751  16.3171083  76.1235960  79.8957266  29.1264516
  75.6125029  79.9656309  29.9327642  76.8568381  79.3250073  29.3563825
  15.6380892  48.4084803   0.6074983  15.7229090  49.0642554  -0.0845927
  14.7316361  48.4892852   0.9042245  16.7866945  12.6720673  20.4147607
  16.5124130  12.0773131  21.1128122  17.5670719  12.2611005  20.0428087
  16.6054630  16.3308770   5.3067953  16.8115997  15.8154208   6.0865671
  16.4147663  17.2068555   5.6422502 100.8873709  55.7129197   6.0568220
 100.9253844  56.3552584   5.3481752 101.5768202  55.0831269   5.8464700
  97.8919332  33.9754302  41.2092954  97.0072929  34.1150672  41.5471536
  97.7754395  33.8835437  40.2636701  64.5398140  16.0387809  25.4842359
  65.3703404  16.4152820  25.7752782  64.7537995  15.5901868  24.6661932
 107.9031221   1.8615491  30.3173811 107.7408211   1.9448954  29.3777257
 107.2000234   2.3652369  30.7274896   8.9443350   3.6250550  11.7331010
   9.0536595   4.5147521  12.0688325   8.5209084   3.1496627  12.4478990
  15.2251768   8.2524211  29.5950872  15.9924030   8.8127667  29.7117502
  14.4806147   8.8231761  29.7850782  79.0905961  88.9706410  38.6165029
  78.1397446  89.0179671  38.5171396  79.2258891  88.8023771  39.5490343
   7.1180002   2.3534911  69.0639162   7.5113384   2.5493758  68.2135391
   7.5546734   2.9492324  69.6727228  35.0316000  10.5571038   7.2068006
  34.1837502  10.2985961   6.8454725  35.2317572   9.8816878   7.8548509
  16.6646290  33.7846763  42.7742464  17.2829724  34.3141658  43.2777578
  17.1696711  33.4780414  42.0211584  75.8763313  80.3580189  82.3115444
  75.8930397  80.4313374  83.2657909  75.2968979  81.0648441  82.0271301
  25.8714962  18.6570126   0.6773645  26.2345648  19.4704730   1.0276395
  25.0680876  18.9256532   0.2317220 106.2695273  97.7725042  21.5932352
 106.7371138  98.1535543  22.3364717 106.9605025  97.4370922  21.0220224
  47.8824806  13.8631875  12.8973466  47.3739243  13.3406932  12.2771818
  48.7733841  13.8499886  12.5475580  73.4989341  67.8818609   5.0461656
  73.2314023  67.8706933   4.1271764  73.0040678  67.1680201   5.4483682
  22.9994726  15.7646996  10.7077009  23.2134915  16.6976029  10.7189161
  23.2432985  15.4525430  11.5791017  88.7655648  82.0872225  35.8687574
  89.0324887  82.9323853  36.2302572  89.5126542  81.5109886  36.0301191
  86.6703884  10.0632960  30.6926424  87.1948890  10.8461339  30.8608514
  86.5263764   9.6809251  31.5582544  10.5328036   1.3336474   2.9731161
  10.2482271   0.4321725   3.1234342  10.5278492   1.4307410   2.0208627
 106.8501584  33.0614287  31.3995725 106.4600055  33.5613925  30.6826097
 106.5011374  32.1766097  31.2922460  51.1231609  88.4887017  34.1269380
  50.3960129  88.2752217  33.5422117  51.6348370  89.1387309  33.6453992
 100.3196923  18.5307748   6.1134321  99.7384564  17.9693705   6.6264898
 100.4146997  19.3234212   6.6415578 104.6072690   7.0345456  19.5075494
 103.9434592   6.4360434  19.8501474 104.1120545   7.8002221  19.2164499
  72.6527961  92.3236813  29.0663606  72.4612959  92.3983683  30.0012285
  73.5792979  92.5525774  28.9926225  54.2621279  65.7725000  76.8431473
  55.0768375  66.1533213  77.1709490  53.9869881  66.3628674  76.1417198
 107.7583226  79.6850408  16.7751867 107.9633244  80.2222432  17.5404436
 107.9908379  80.2351369  16.0271436  92.6528796  97.7499069   8.2849676
  92.0803507  97.3834003   7.6110822  93.4040316  98.0925764   7.8006345
  80.2652558  94.3311037  36.2088186  79.3752869  94.2302193  36.5464765
  80.7068737  93.5170139  36.4506036  73.9861711  88.4854282  16.9980699
  74.2424305  89.0154160  16.2432939  73.1096204  88.1678404  16.7812044
 103.8784997   2.3365456   3.3078176 104.8352997   2.3172290   3.2880575
 103.6590378   3.2658297   3.3748895  80.8478316  94.6287073  10.4061395
  80.3550490  93.9187159   9.9946672  80.3678330  95.4221882  10.1690179
  88.7747010  98.5591997  86.0820657  89.4961079  98.9476122  85.5871660
  88.7097796  97.6643862  85.7484132  95.3806742  71.2033523  16.0070497
  95.5037602  70.2547730  15.9712869  94.4815835  71.3396443  15.7082254
  75.8406115  62.2670317  57.4280167  76.0704422  61.3692427  57.6675701
  76.5612745  62.5577497  56.8691254  49.7040796  67.5612259  86.5635204
  49.4859648  67.7175474  87.4823380  50.2167273  68.3272457  86.3053703
   5.6039524  14.4340712  56.5902025   6.0469437  13.7447793  56.0953599
   4.8060322  14.6114547  56.0921175  77.6309689  92.5982727  16.8381197
  78.5109766  92.2218908  16.8255884  77.4872836  92.8409923  17.7528173
  73.2000192  60.8160205  20.9532148  73.5255178  59.9240132  20.8323556
  72.4553331  60.8822782  20.3554803  13.0517856  89.2810191  15.3698045
  13.8701145  88.8639535  15.1002962  13.1568519  89.4296016  16.3095457
  43.2429218   6.7198998  10.0343019  42.6514721   6.8457276   9.2922861
  42.6643324   6.5238387  10.7712060  18.7844729  35.6112027  83.7780571
  19.6221876  35.5479097  84.2368126  18.9213967  36.2952685  83.1226635
  86.6931494 100.3686251  55.0184709  87.1141966 101.1511291  54.6626073
  87.3538455  99.9812426  55.5926210  80.2625617  98.6568655  15.6949598
  80.2924975  99.5206989  16.1062128  79.8748644  98.0881990  16.3601953
 102.5372569  39.6304995  52.5123674 103.4268348  39.8085505  52.2071058
 102.0069043  40.3260619  52.1235734  94.6672686  97.9139866  49.9352151
  94.1461857  98.3081163  49.2356664  94.0202721  97.5719179  50.5521566
  91.2676581  88.8946642  26.2364275  91.3816651  88.4319414  25.4063016
  91.8684681  88.4566583  26.8392641   5.7447577   8.1076676  14.3523675
   5.2726841   8.6292941  15.0014383   6.4339590   8.6898572  14.0325433
  81.0216331  29.1321492  84.3860149  81.3182259  29.4829226  83.5462379
  81.7349815  29.3289495  84.9931622  33.8095999   0.8127601  15.0991422
  34.1965008  -0.0334542  14.8744947  33.5210657   0.7109839  16.0061246
 106.1195986  12.9110486  15.2825815 105.3950040  13.4677417  14.9974710
 106.6295950  12.7558762  14.4875604  30.6245518  16.3404900  17.7890283
  31.5744305  16.3276870  17.9065210  30.4430628  17.1951777  17.3981363
   4.4920445   0.1441676  17.0335847   3.8856578   0.2754933  16.3047010
   5.2977705   0.5802829  16.7563802  28.6113262  40.2882869  29.9847871
  28.1886768  39.7318560  30.6389886  29.5410967  40.0701815  30.0495130
  35.0924444   5.1810176   0.8387929  35.6987620   4.7528846   0.2343828
  35.1261234   6.1064011   0.5963975  41.4135313  62.2847748  80.9652901
  41.0994720  61.8363905  80.1800823  42.3047972  61.9577646  81.0875225
  17.9492855  41.5758998  29.8412878  18.3257628  41.8700702  29.0118486
  17.5863362  42.3695762  30.2344400 104.9776848  90.4987015  27.1727830
 105.7266530  89.9197353  27.0310766 104.6995791  90.7504548  26.2921506
  16.2041521  15.0713593  30.0122911  16.3849211  14.7583014  30.8986074
  15.8185291  14.3174750  29.5659906  98.4380524   4.6642978   8.1754381
  98.7021033   4.0192181   7.5193960  97.9861037   4.1524751   8.8462621
   0.0821964  98.2375015  23.7748415   0.0428716  97.8960003  24.6681768
   0.9887306  98.0938257  23.5031873   4.0941763  11.1015517  30.7760221
   4.2291927  11.0539348  31.7224580   4.8495484  11.5912349  30.4506666
  96.2871305  11.7011172  20.9117681  96.4999334  10.7679088  20.9033472
  95.4534809  11.7608983  20.4452020   7.9646731   5.6758935   9.2861349
   8.1970310   6.0356528  10.1421815   8.7106419   5.8900220   8.7258607
  69.6494293  27.4878693  69.0145350  70.3944063  26.8882918  68.9727020
  68.8875198  26.9358444  68.8384819  82.1154364  95.7559265  16.4270193
  81.7277153  96.4882673  16.9061643  82.1679123  96.0628570  15.5218870
  49.4872570  32.6143462  73.6942178  48.5704613  32.6992423  73.4324724
  49.9792385  33.0118663  72.9757768  67.3811515 101.6605343  19.2796499
  67.2188529 101.9765819  18.3908254  67.5890263 100.7326712  19.1697008
  54.6669102  37.1140146  71.2314129  54.2075872  37.4869299  71.9838667
  54.9566603  37.8741097  70.7268953  57.0288801  74.3144178  44.1042805
  57.5457382  74.0967512  44.8799801  56.6232014  73.4865665  43.8467407
  15.3267765  13.4392316  11.7912084  15.4090834  12.9518372  12.6109010
  14.7716427  12.8881080  11.2395555  57.2974308  67.1402766  36.3655550
  58.0431970  67.7380074  36.4183027  57.4935683  66.5781523  35.6160432
  31.5919733  54.4900329  11.8840581  32.5030375  54.6599872  12.1234495
  31.1151219  55.2596385  12.1947938  88.8387299  61.9662666  73.2030535
  88.9867115  62.8810787  72.9633665  88.2740402  62.0091867  73.9747477
  61.1404800  99.1240978  86.5467739  61.6904306  99.2580032  87.3186874
  60.8434391 100.0024414  86.3090324  46.1760235  46.8495369  74.5853138
  45.6404829  47.4124479  74.0262413  46.5115643  47.4353933  75.2638531
  37.1665907   3.9601571  23.1762392  38.0957222   3.7542970  23.2790166
  37.0146990   4.6887929  23.7781126  87.1710452  76.9485415  28.9428121
  87.9140433  77.5462212  29.0262300  87.3082312  76.5117444  28.1022054
  35.9674502  10.8067757  44.1518194  36.2617445   9.9556834  43.8273794
  35.6334543  11.2565286  43.3756715  82.3969944  77.1011437   8.3771688
  82.7818736  76.4288439   8.9394075  83.0549820  77.7957858   8.3496076
  38.0153752  17.7454287  27.2531492  37.7043820  16.8572051  27.0783121
  38.8432551  17.6222617  27.7175600  34.4585657  96.4393711  83.0120182
  34.2085147  95.5879974  83.3710098  33.8422275  96.5872288  82.2947311
  45.2811813  42.2517395  79.5747566  45.0284243  42.7717018  80.3376389
  44.4616652  42.1057940  79.1021872   4.0595627  25.8980090  38.6313993
   4.4112015  26.0349566  39.5110685   4.5801497  26.4752538  38.0728132
  58.1382370  46.0525608  79.3221617  58.4735012  46.6133261  80.0217152
  57.5142002  46.6046333  78.8509655 102.6532134  81.7497100  47.0526010
 102.8620203  82.5517453  47.5315267 103.5007628  81.3283004  46.9100935
  77.1811446  88.2523931  10.9985620  77.7513083  87.6124586  11.4247400
  77.0310744  88.9216246  11.6662771 101.3671915  11.8658263   2.9896432
 100.9370558  11.0534388   3.2565576 101.3545935  12.4127681   3.7750894
  61.7611083  82.1368779   5.3996355  61.2686499  82.9557456   5.3432924
  61.1288818  81.4995445   5.7317907  28.1105614  12.2629458   3.4064371
  27.4198103  12.6216561   3.9635927  27.7297878  12.2545773   2.5282747
  14.4069052  15.1803309  24.2668230  13.7814331  15.7107217  24.7604925
  14.7505570  14.5573432  24.9071580 101.8784563   1.2230212  39.0250379
 101.9747512   1.8722684  39.7217733 101.5503947   0.4414136  39.4696695
  43.0843401  57.1323919  85.0959587  42.1860838  57.1697664  85.4245472
  43.6290503  57.1854639  85.8812714  33.4677124   5.0479371  27.2713930
  34.1991282   4.5730836  26.8767149  33.8427973   5.4628474  28.0481798
  23.8398695  20.3916556   7.7753717  23.7937784  20.5011565   6.8255788
  24.7282982  20.6640250   8.0050355  95.0724276  90.9773792  11.6434843
  94.1875180  91.1826338  11.3417608  95.6471594  91.4093603  11.0115701
  75.5592807  94.0270437  32.6938516  75.2285608  94.8363413  33.0835897
  76.3622673  94.2888321  32.2434026  25.0090599  12.0574481  22.8282529
  24.3355847  12.6642854  23.1355363  25.4855013  11.8075330  23.6199457
  13.3762352  87.6198901  13.2559854  14.0648357  87.8396548  12.6284772
  12.9534809  88.4563817  13.4503728  32.0529747  43.6675841  32.3248464
  32.8956843  43.4250934  32.7085954  32.1962357  44.5434577  31.9662744
  20.1810169   1.1034781  22.8208047  19.5224619   1.0263163  22.1304590
  19.8746777   0.5151088  23.5108930   7.4096624  95.8907951  22.4684125
   8.1887047  96.4063467  22.6770669   6.7255966  96.2514986  23.0324728
  64.6948179  94.9810518  21.4171773  65.5814417  94.7073234  21.6521341
  64.5291337  95.7500519  21.9625455  22.2671080   5.6804902   1.6939527
  22.1742821   5.1916606   0.8762342  23.0351353   5.2963263   2.1167833
  89.9446162  99.5810427  30.5799467  89.5951470 100.3931250  30.2130300
  90.4278573  99.1802277  29.8574144  94.6237095  65.3224768  36.9983655
  94.0853508  64.5680775  36.7590124  95.4936036  65.1136006  36.6579515
  80.9196590  11.1129624  19.1919118  81.1788563  11.5351636  18.3728868
  80.7916240  10.1937873  18.9574796  10.5296707   6.6855151  22.1733552
  10.3201294   5.8821256  21.6970235  11.4151526   6.9096333  21.8871194
  87.3423298  85.6549848  33.1994134  87.1338852  84.9841846  32.5491697
  87.3786887  86.4703001  32.6992399  40.5522776  22.0537591  34.3141007
  40.3545380  21.6387558  33.4745169  41.0086298  22.8620005  34.0801787
  36.8303490  23.8298995  19.2278463  36.2251425  23.9676434  19.9565298
  36.4044857  23.1664903  18.6849290  38.9727283  89.3996811  50.2982759
  38.2158780  89.8854256  49.9704552  39.4711781  90.0437737  50.8011961
  92.2577723  91.3069929  44.4392950  92.9908427  90.9366526  43.9476759
  92.6273116  91.5200199  45.2961999  42.6553583  26.2311990   8.2826025
  42.5321531  25.3443963   8.6211664  41.9476605  26.7393882   8.6790067
  26.1697245  52.1957404  25.4394418  25.7643843  51.3787753  25.7301408
  25.8745957  52.8486449  26.0741407  25.8224154  17.8691871   5.9233362
  26.7618036  18.0415542   5.9871084  25.5094052  17.9106624   6.8269617
  92.7470970  11.4530856  22.1293146  91.9562435  11.4454896  21.5901262
  93.1724453  10.6161982  21.9424230  44.3976593  12.5740916   9.8045427
  44.5526695  11.7333514  10.2350885  44.5616818  13.2259852  10.4859907
  47.3860741   4.4575507  10.3614217  46.6473007   3.9433295  10.0357992
  47.1107674   4.7483642  11.2308294  42.6882458  22.7094609  18.4455949
  42.7970648  22.2307593  17.6238710  43.1002951  22.1507747  19.1046316
  58.9848089  76.0054255  75.3868771  58.2205486  75.6234741  75.8184385
  58.8886833  75.7586765  74.4670343  61.4144659  80.0369644  82.4034977
  62.3044348  79.9871063  82.0546341  61.4940357  79.7317982  83.3072567
  46.5205765  34.6237285  11.6211111  46.5753174  35.4862410  12.0326025
  46.1447716  34.7938544  10.7573682  96.9603443  46.7063713  86.5021610
  96.2856102  46.2982559  85.9595680  97.5293064  47.1570826  85.8781624
  60.4391384  37.0523650  22.8890497  60.8756256  37.3824412  23.6743909
  59.6962357  36.5487201  23.2217104  22.6965237   7.9292399  50.2680189
  23.1427241   8.7745816  50.3183538  23.1710673   7.3708875  50.8838731
 107.4759118  38.7001998  25.6078798 107.5689284  39.2642791  26.3756067
 106.5354959  38.6914451  25.4296285  24.7785759  10.2717883  46.4513952
  24.6221924  11.1524398  46.7923051  25.6073761  10.3420073  45.9776861
  43.6484480  31.5151317   9.6907026  44.2082787  32.2001273   9.3251878
  42.9635763  31.9909102  10.1606161   8.4248114  29.1292674  42.6579172
   8.8278294  29.2797572  41.8028337   8.3410502  30.0027758  43.0402833
  84.9237212  91.3998331  20.6595022  85.8002718  91.4141859  20.2752000
  84.9116763  90.6092991  21.1990816  18.4846783  61.5637023   9.8258096
  17.9267550  62.1049506  10.3843862  19.3545914  61.6305072  10.2195341
  30.4616547  83.7810516  88.0274391  29.6409512  83.6855030  87.5441742
  30.3897309  83.1548405  88.7477970  45.4510498  42.6919848  22.3466093
  44.8895645  41.9228656  22.2495634  45.7448960  42.6606662  23.2570535
  17.5577927   8.6023576   3.0643350  18.2453108   8.9455659   3.6350805
  16.9333315   8.1912715   3.6620695  16.5103817   0.1239068  18.2122976
  15.6548739   0.2124984  18.6324007  16.3087702  -0.0622838  17.2952825
  28.6148739  32.4874598  11.9299013  27.7752590  32.2904498  12.3451883
  29.2699623  32.1979243  12.5649244  94.0092286  96.9344057  21.8252641
  94.1337927  96.1875166  21.2397176  94.5845421  96.7543949  22.5687963
  46.2107277  15.8372313   1.8435556  46.3716507  16.2400967   2.6967985
  46.0521317  14.9140698   2.0406515   6.5234423  41.4989859   0.7270795
   7.1894741  42.1658999   0.8939725   6.6675902  41.2389571  -0.1827830
  63.3996487  28.2726628   7.0026380  63.5208988  29.1389949   6.6140539
  63.8368130  27.6748425   6.3962251  84.1783865  69.1031195  19.0263826
  84.1919812  69.1713263  18.0717165  83.4179505  69.6199192  19.2926294
  17.4372053   6.7283780  26.9707376  18.0601454   6.1321694  27.3863203
  17.9769898   7.4463422  26.6399843  67.7522564  67.2223377  72.8919935
  68.5722828  66.7406559  73.0004835  67.4032640  66.9156694  72.0551014
  51.8522835   8.9787204  27.7283079  51.6750050   9.8937184  27.5101739
  51.6644955   8.9150149  28.6647398  35.6200028  48.8292891   4.9151212
  36.1040163  49.5813376   4.5739633  35.5802393  48.2168109   4.1805917
  26.1843920  21.5727383  34.5367319  26.4967632  20.8579738  35.0914938
  25.9779930  22.2787196  35.1492769  97.9032485  44.5908934   2.7284891
  98.4355585  44.5430762   3.5225851  97.8094570  43.6805827   2.4478323
  51.7333508  44.4926268  29.4997961  52.2557068  44.9912269  28.8714773
  51.0506344  45.1019484  29.7806245  28.9212895  18.2176835   5.9472734
  29.0286589  17.8944356   6.8418294  29.6042681  18.8810546   5.8487302
  33.3457184  15.4066283  18.0317098  33.8575554  14.9773604  17.3461610
  33.9614964  16.0094745  18.4483987  61.2602615  72.2497702  70.6010246
  60.5077267  72.6242924  70.1431417  61.4524174  72.8765011  71.2985373
  10.2267218   3.3719165  40.6034833  10.0350523   4.2883880  40.8024007
  10.0143051   3.2789142  39.6747858  57.6414061  33.7360597  70.8764791
  57.2353983  33.0163527  71.3596058  58.1847429  34.1835403  71.5251541
  33.3835459  17.8146035   9.2613584  32.6800776  18.3908612   9.5601827
  34.1264439  18.0315787   9.8246175  83.4710598  81.0177994  81.0116673
  84.2152882  80.4179287  81.0617447  82.8692722  80.7099533  81.6893959
  62.4241590  53.7662125  84.9848938  63.3089256  53.9231968  84.6550846
  62.4084234  54.1936064  85.8412361  22.4793816  14.7077281  47.3176176
  21.9378901  15.4155833  47.6668340  23.3711910  14.9371488  47.5789053
 106.7396554  78.1960739  35.4972345 107.5484141  77.8807773  35.9006292
 106.7970284  79.1495456  35.5591089 101.3005726  14.6423108  18.0642015
 102.0006530  15.1362712  18.4909612 101.4177434  14.8186213  17.1307069
  14.1975212  22.2876508  47.9437048  13.7489796  21.5752274  48.3992273
  14.0776014  22.0909221  47.0146448  43.6292744  12.5905568  14.2357523
  43.1497336  13.0893952  13.5743696  44.2995453  12.1192510  13.7409288
  45.4523659  35.6724936   9.3185026  44.7574425  36.3156611   9.4586545
  46.0975170  36.1304957   8.7797624  18.8191605  21.8161685   0.7673151
  19.3882466  22.4586732   1.1910612  19.4071579  21.1034543   0.5172521
  98.0214254   5.0166280  21.5693456  97.1487324   4.7508771  21.2794954
  98.3357255   4.2781932  22.0910341  24.4612551  25.9602696  18.3084756
  24.3834257  25.5829198  19.1847021  25.0758267  25.3845078  17.8534586
  84.1844614  79.0208615  15.0510007  83.4928950  78.7284531  14.4573099
  83.8541087  79.8408069  15.4181272  48.5738564  29.4222552  31.9515306
  48.3945084  28.9470155  32.7628309  47.8275681  29.2218978  31.3866025
  54.9527740  80.6249046  71.5451288  54.7580719  80.5230808  72.4767733
  54.1231489  80.9013939  71.1558867  31.2316505  97.9867090  28.6692411
  30.4472629  97.4831690  28.4514696  31.9502060  97.3603453  28.5821611
  41.4419890  11.6245038  38.2354242  41.0960102  11.0319859  38.9028436
  40.8610773  11.5044314  37.4841863  56.9576883  40.1146889  86.1963177
  56.7167473  39.2771745  86.5922356  57.2584534  40.6492805  86.9311619
  18.2672501  18.2316691   4.4809896  17.5573921  18.7246520   4.8924524
  17.9041624  17.3563249   4.3461782   3.5251522  30.8940703  22.7787286
   3.0062127  30.1212794  22.5557310   4.4184446  30.6648452  22.5223810
  32.6783610  13.5732943  30.8595926  32.9396439  13.8003690  29.9671728
  33.4135628  13.0652053  31.2024576  66.8058968  89.5869637  83.0232143
  67.2576380  89.1497707  82.3013878  67.1482277  89.1644764  83.8109589
  35.6768561  14.4949681  21.7815572  35.3411436  14.0113885  21.0267812
  35.1530457  14.1817529  22.5189573  28.9711189   5.9980542   4.3884450
  29.6879435   6.3141114   4.9384481  29.0903568   6.4530236   3.5547620
  42.1833515  13.8916737  32.9584962  42.8162098  14.1904361  32.3054582
  41.4502049  14.5018203  32.8782159  92.1590765  75.4103197  53.5925848
  91.8035801  75.2667846  52.7155191  92.9238375  75.9686936  53.4526235
  84.6012076 100.2307142   9.4013196  84.5286473 100.9047617  10.0770647
  85.5401143 100.1671900   9.2262346  72.5514892  17.5580747  21.3134271
  71.6800260  17.5942237  20.9191209  72.4208404  17.0955188  22.1411974
  71.9916058  62.3167086  79.8681736  72.7266216  61.9358397  79.3876314
  71.3079262  62.4319172  79.2082262  87.1403408  80.9853745  64.2966795
  86.3576031  81.4742470  64.0425968  87.4121666  81.3818455  65.1244164
  58.7781429   4.0623195  10.9724218  59.1654205   4.7187430  11.5515310
  58.2375336   4.5676381  10.3652841  17.7746002  87.2357358  32.2282106
  18.1482498  86.8094624  32.9995138  18.3833973  87.9470457  32.0291597
  28.8449431   6.5742022  15.4889280  28.4443617   6.4330441  16.3467390
  28.2662392   7.2008044  15.0545293  34.7028637  24.2130811  21.0059053
  34.5300484  23.5668952  21.6906053  34.0790892  23.9994342  20.3120023
  84.1650351  84.6289672  31.7087537  84.4292458  85.5389942  31.8439371
  83.2239970  84.6753396  31.5398580  48.1892586  26.4903647   7.5436288
  48.1009102  27.4400479   7.4628717  47.3030853  26.1827094   7.7340871
  77.9906186  98.2600464  39.3241960  77.6797493  97.4129881  39.6437151
  78.5804232  98.5729660  40.0100786  91.0623940  84.7370233   0.6303102
  92.0031222  84.6872295   0.7999784  90.9022292  84.0633930  -0.0305956
  23.7895680   2.2555167  36.1633188  22.9055166   1.9404036  35.9752065
  24.3261957   1.4632518  36.1873037  26.9578219  35.9245402  23.1409818
  26.7978859  35.1187045  23.6322004  26.5448427  36.6106326  23.6653406
  37.4133134  71.5139008  84.6018791  38.1877661  72.0254946  84.8358154
  37.7113819  70.6045580  84.6237469  40.0218392  53.2155330  38.5672647
  40.3046465  52.4045379  38.9897996  40.8287573  53.7155158  38.4442312
  70.6818771  95.8596897  64.8490191  70.8260822  95.7446957  65.7882786
  69.7304583  95.8322811  64.7476482 101.2449972  31.7508609  59.2784673
 101.4990441  30.9001548  58.9207059 100.7583587  32.1728141  58.5703832
  38.4332085  22.1956450  39.0346891  38.5625363  22.4249656  38.1144029
  37.4930573  22.0328624  39.1111261  25.9366179  29.1244418  56.8153078
  26.5700340  29.3103988  57.5084383  25.0905466  29.3640334  57.1934396
  90.2286156  92.0886005  18.3242494  90.3232487  92.9873194  18.6398107
  90.1998290  92.1712269  17.3710615  14.3891422  66.5149774   0.9094221
  14.0928642  66.2665357   1.7850572  15.3129951  66.2653185   0.8893568
  59.1660643  50.5588722  76.1527824  59.8662949  51.1382341  75.8523703
  59.2286396  49.7921658  75.5831528  37.1098519  28.5701424  68.5846788
  36.8052769  27.7062184  68.8623411  38.0158997  28.4280116  68.3106309
   1.4796774  97.5266327  35.4287511   0.9048216  96.7935385  35.2088815
   2.0404617  97.6301969  34.6599657  21.3653747  93.7442984  13.8966066
  21.0309498  92.8528036  13.7984544  22.3173610  93.6465181  13.8768465
  56.4077091  20.3070790  13.8671094  55.6870842  20.8174617  13.4977418
  56.6120243  19.6586902  13.1932622  79.8175955  68.4720612  83.1975460
  80.0042152  69.1511917  83.8457584  79.0964317  68.8280725  82.6784897
  35.0918532  41.6418368  32.0736772  34.8145723  40.9363849  32.6582223
  34.7465992  41.3922698  31.2165052  34.8789168  23.1848819   8.5202676
  35.4474831  22.9848058   7.7766687  35.3699255  22.8841597   9.2849332
 104.8834698  18.1614215   9.3009645 105.5146234  18.4330375   9.9673730
 105.1970665  17.3055560   9.0087682 100.4844340  98.8395370  19.6055109
  99.9741324  98.9209856  20.4112417 101.3507899  99.1751779  19.8357469
  72.0364984  99.0752853   7.7305395  72.3319777  98.6702455   8.5459310
  71.2936243  98.5395349   7.4524385  33.0731726   4.0452058   3.9151556
  32.6741171   4.0751655   3.0456144  33.6997891   4.7687919   3.9161760
  80.6107140  78.2447767  86.5275955  80.1663685  77.5322056  86.9869709
  80.4712296  78.0553436  85.5997562  81.0043101  44.9074561  11.1845953
  80.3312675  45.1436431  11.8229276  80.5465995  44.3625171  10.5444604
  67.2116470  13.2236964  14.5605547  66.4251042  12.9382235  15.0254041
  67.7275372  12.4250514  14.4497949  68.4045601  63.4481478  82.5283909
  67.9149580  63.6755419  81.7379379  67.8979778  63.8337898  83.2431507
  61.5629292  79.0374231  84.9955559  60.8862925  78.7743521  85.6194115
  62.0391989  79.7385740  85.4402924  18.8431637  98.4253992   9.0915662
  18.8587085  98.3011164  10.0405389  18.8665668  99.3750585   8.9739687
  76.5609837  38.9780623  20.6539995  75.6979084  38.5646541  20.6743318
  76.6927338  39.2123706  19.7353155  38.0772010  95.9605230   3.6660940
  37.6357834  96.5044655   3.0137807  37.4372760  95.8658375   4.3716222
  17.2788096  37.9350764  31.0389406  16.6334105  38.3956344  31.5752012
  17.6255179  37.2531897  31.6143209  12.1881724  30.1424987   1.2888414
  12.8238535  29.5506484   0.8865243  11.9810200  29.7355182   2.1300775
  65.2334261  66.7289782  77.1399450  65.3939009  66.7959261  76.1986732
  64.7039652  65.9374619  77.2369432  42.3040533  30.0927646  29.6777803
  42.8369141  29.3897921  30.0494367  42.9264021  30.6335647  29.1915304
  15.7693243  54.1396815  26.3257200  16.2233401  54.8626620  26.7586118
  16.4655733  53.5266978  26.0896570  25.1176644  10.7585246  70.0774652
  24.3817711  10.5985124  70.6683046  24.7096014  10.9497697  69.2329961
  34.1732303  93.4577669  32.1656877  34.6459762  92.6277412  32.1040231
  33.9930717  93.5619558  33.0999929  48.9943314  91.5898228  67.6821136
  49.3770695  91.0041332  67.0288849  49.5237541  92.3855686  67.6298046
  80.1120377  70.2881861  85.0425053  79.6160746  71.0925341  85.1950550
  80.0462151  69.8062277  85.8668900  78.8094759  67.0972681  75.8057785
  78.3800840  67.4461460  75.0246620  78.6015129  66.1629772  75.7963085
  58.7295818  46.7777926  10.5448991  59.6006107  46.9878775  10.2081377
  58.1725598  46.7490394   9.7669965   7.5804091  49.7188956  32.9785711
   8.0652762  50.1680285  33.6709672   6.7312384  50.1600654  32.9559309
  86.5353871  19.6491820   8.1597883  86.3205433  19.6314580   7.2271806
  87.0969200  20.4176432   8.2616502  36.3430262  39.0994549  82.1817303
  36.6018987  39.8661900  82.6929379  35.6032825  39.4015789  81.6547298
  58.4929466  30.0315833  84.5365143  59.3708754  29.7354126  84.7768402
  58.3024979  29.5758104  83.7166119  85.6521471  96.6159071  30.8393270
  85.3223380  96.1756004  31.6226369  86.3992127  97.1279730  31.1490232
  48.8826700  72.9127516   5.8838159  48.7244757  73.4778727   5.1276094
  48.3265253  73.2746018   6.5737421  63.4379800  78.4571804   5.0251562
  63.4103926  78.1683172   4.1130048  62.5185712  78.5470880   5.2758295
  36.0058999  18.5272229  84.0040684  35.6110048  19.1388750  84.6254921
  36.9249630  18.7909949  83.9595509  22.7080297  21.5187263  68.5138130
  23.4759784  22.0203352  68.7874460  22.2702336  21.2853718  69.3324137
  64.0939760  26.2963676  87.2381401  64.7899151  25.6395316  87.2599030
  63.3996296  25.9278131  87.7842903  68.7549981  65.8173598   3.3777696
  68.9643677  66.6554762   2.9655057  67.8646453  65.9299840   3.7106687
  86.1977728  75.1605619  17.0788461  86.1770113  76.0755767  17.3591119
  86.1672219  74.6596540  17.8939516  61.8066502  21.7791200  67.5434685
  62.0221233  22.1780014  68.3864975  62.3588705  22.2403336  66.9121504
  59.9776491  97.1223129  27.3115045  59.0761431  97.3203386  27.0579225
  59.8929389  96.6022076  28.1105978  55.1763113  41.5371485  29.4852430
  54.3766435  41.9488497  29.8127538  55.8804437  41.9506283  29.9847013
  57.3294306  26.4045906  86.8205833  58.1442738  25.9027195  86.8008137
  56.7563534  25.9079361  87.4046612  25.4840636  56.4318657  86.3768196
  25.1391172  57.0761156  85.7586098  26.4143515  56.6448545  86.4505482
  71.8747234   6.1679167  67.1209621  71.2321901   5.5487293  66.7745686
  72.0631886   6.7530626  66.3872576  53.8670397  40.8020067  81.6914463
  54.1354275  41.6816807  81.9567204  54.0730619  40.2508545  82.4464417
  95.2957591  40.6565346  20.2697927  95.8807000  41.3914890  20.4539567
  95.7202872  40.1865710  19.5520574  37.7040553  40.2824116  65.5659771
  38.0719376  39.6129346  64.9891806  38.3602071  40.3925180  66.2541437
  70.7446814  27.9980659  87.8231621  71.1555004  27.1954489  87.5018215
  69.8058653  27.8129721  87.7987099 101.6494807  77.6629628  38.7272531
 100.8061226  78.1151666  38.7051183 101.4634951  76.8303527  39.1613084
  82.8450688  74.6585478  43.7296564  82.2816809  73.9170970  43.9511949
  83.0641135  74.5257486  42.8073770  79.7627743  65.5615844  32.5021631
  79.0779170  65.9356119  31.9478113  80.1362093  64.8538734  31.9768793
  40.8908301  86.9721736  10.8664876  41.6804811  86.4338316  10.9200651
  40.2744999  86.5538205  11.4676076  58.0384811  64.2244913  19.0632135
  57.7725371  65.1269294  18.8868219  58.7971147  64.0833105  18.4968359
 102.1655997  55.6231983  27.8140718 101.6261395  56.3171495  28.1930810
 102.0522698  55.7210706  26.8686563  84.0022858  27.5216736  29.6696359
  83.9233311  27.8027595  30.5812151  83.2770642  27.9566349  29.2211992
  72.1737892   8.5352666   9.4557935  72.9854590   8.6418778   8.9597494
  72.2282342   7.6504714   9.8168928  27.5968289  24.0078330  82.2000694
  27.4501181  24.3456626  81.3165569  27.8118706  24.7822356  82.7199554
  69.8842081  86.3422955  23.3145887  70.4768761  85.8150114  22.7789098
  69.4501837  85.7087602  23.8859827  90.3482159  75.7519974  25.5823976
  91.0765084  76.2094630  26.0025770  90.6878432  74.8753275  25.4025632
  51.9641590  53.6483002  82.4400425  52.1740055  53.0152035  83.1266212
  52.4162483  53.3182287  81.6635799  51.8099960  98.8828243   1.9601327
  51.6095789  98.0061068   2.2879011  51.3584646  98.9325537   1.1175901
  32.9621053   3.7355232  75.8700752  33.7073302   3.2280701  75.5485773
  32.2447157   3.1036067  75.9177065  47.2234774  15.4315495  68.7012339
  46.7602873  15.0265694  67.9679680  47.6360464  16.2085962  68.3241177
  86.5305384  63.8222851  23.3847219  85.6488951  63.9359178  23.0297166
  86.6305502  64.5388020  24.0114862  86.2527760  71.2712230   3.2639486
  85.4480608  70.7587506   3.3416730  86.0247239  72.1304954   3.6187345
 106.3943633  35.6922068   5.1290113 105.5711945  35.8882905   5.5764181
 107.0010766  36.3650109   5.4379922  94.2058381  79.6670546  11.1681158
  93.4178456  80.0211348  10.7558900  93.9071568  78.8749207  11.6148168
  67.2681912  60.8911092  22.9026491  66.3948544  61.2464489  23.0677110
  67.8167709  61.6618682  22.7569562  50.5863476  20.9264088  85.1547623
  50.2243137  20.0450754  85.0630093  50.8218384  20.9934664  86.0801125
  41.9899416  18.1655717  84.7235680  41.2925291  17.7453101  84.2203522
  41.5298367  18.6871660  85.3812027  49.5985611  95.3376402  10.4100877
  50.2642663  95.9000267  10.8060628  49.4046768  94.6854462  11.0833532
  87.9265078  36.3928725   5.4523641  87.4012002  36.1825348   4.6803266
  87.5749358  35.8297576   6.1419469 100.7144030  57.9506881   7.6086313
 100.7062109  57.2619392   6.9439680 101.6431244  58.1234933   7.7630502
  26.9307145  87.7433790   6.1337072  27.0833733  86.8362059   5.8691961
  27.3526772  88.2659544   5.4517252  72.0906170  85.0499715   4.6997625
  71.2809165  85.0883807   5.2088243  71.9522365  85.6686677   3.9826185
  83.2402142  72.1605624  18.3885080  82.4651440  71.6323818  18.5796148
  83.4306868  72.6125301  19.2105085   4.0619174 102.0010514  72.9435110
   4.5072690 101.4946651  72.2641993   4.5913068 101.8651877  73.7293386
  67.4000033  87.0331253   3.4018785  67.1308955  87.7060713   4.0271455
  67.8614076  87.5148262   2.7153665  53.9117750  71.2726153   7.1836645
  54.2505642  72.1508969   7.3570901  53.0120727  71.2942566   7.5096971
  22.0944786  15.5288172  81.0963631  22.0394683  16.4428425  80.8174992
  22.8915954  15.1993346  80.6813049  34.8091912  21.7747712  82.8429127
  34.7923660  21.5048718  83.7611198  35.7110882  21.6174603  82.5635147
  29.9656343  33.4970951  78.8591099  29.3957853  32.8568101  79.2851830
  30.3214264  34.0177155  79.5792484  11.4314405  99.8333556  84.9638653
  10.8649341 100.1091775  84.2432880  12.0291797  99.1984723  84.5690727
  26.8854229  81.6894020  10.7544500  26.3092033  82.1131934  10.1183683
  27.5413505  82.3543800  10.9637243  75.9738636  34.6008182  84.3052673
  75.1027346  34.2053604  84.2739582  76.4294481  34.2370844  83.5460758
 103.8324603  91.5558685  12.7978689 102.9945954  91.5985788  12.3370153
 104.4815644  91.4380802  12.1043188  98.3606108  40.5260540  10.1509172
  98.5810669  41.3326718   9.6850854  97.4079092  40.5533732  10.2395135
  80.0823554  65.5168845  35.1671964  79.9544199  65.6525470  34.2283422
  79.2122515  65.6376876  35.5474073  26.0297322  13.9521742  87.7702999
  25.3704929  13.2733262  87.6260757  26.8341470  13.4687257  87.9585171
  27.3780322  29.8759937  82.6729488  27.4861407  29.6142578  81.7585945
  28.2703209  30.0207543  82.9877377  73.1086167  81.1529554  10.5144197
  72.9161938  80.2591838  10.2309019  73.6746891  81.0451449  11.2787229
  37.1297860  19.9956119  54.4585657  37.3212337  20.1274633  53.5300207
  36.2681413  19.5788419  54.4686317  67.8988075   6.3143396  53.5888386
  67.7515602   5.6490701  54.2611217  67.5326872   7.1164602  53.9613771
  24.0130639  23.5964870  87.6501846  24.0825915  24.5429468  87.5252438
  23.6899853  23.4961939  88.5456085 101.9313296  49.7261645  22.1806509
 101.9207581  48.8293485  22.5150854 101.8857630  49.6276960  21.2296278
  34.9019504   2.9508135  70.8290577  34.5833421   2.0487073  70.7986498
  35.3595901   3.0150676  71.6673136  96.3299473  36.3840951  21.2109548
  96.5076741  35.6384219  20.6377012  95.4181584  36.6128851  21.0305959
  62.9904985   8.6363161  76.1014700  62.1726274   8.4926194  76.5775681
  63.3268785   9.4630462  76.4473009  66.1804064  66.2532402   6.6699678
  66.0585412  65.7460143   5.8674127  66.9130858  66.8375589   6.4750845
  67.4150213  76.7960609  23.3162385  67.1461709  77.5154032  22.7448446
  67.1850618  77.0912446  24.1972715  62.6041230 101.8100275  18.3936483
  61.7431339 101.6341604  18.7731248  62.9822954 100.9432186  18.2458097
   6.2626068  73.4033574   7.9236394   6.9285289  72.7164854   7.9550916
   5.4867546  72.9687299   7.5695497  11.3337755   3.6177117  36.5852911
  10.8120108   2.9148394  36.9725305  10.9578085   3.7429387  35.7139665
  55.3232463  65.5480994   3.1282789  54.7476347  65.9084584   2.4537069
  56.0297855  65.1258410   2.6396829  46.7736864  40.0453520  80.2885246
  47.6463509  40.1546144  79.9106979  46.2814665  40.8053875  79.9782085
  58.2309183  87.1869959   2.5103265  57.2914561  87.3482908   2.5976450
  58.4086140  86.4706363   3.1198198  31.6939616  13.6827469  88.2574368
  31.0138512  13.6872172  87.5838947  32.3743033  13.1077850  87.9070282
  71.2094291  89.0782799   0.1139337  72.0582779  89.4530858   0.3489000
  71.3378652  88.1322707   0.1832372  88.3361348  67.7932145  26.9778616
  88.4392317  66.9735135  26.4944440  89.0782507  68.3301236  26.6999799
  79.9305209  50.8343488   5.5187303  80.5199679  50.1269691   5.7802660
  79.0642603  50.5410535   5.8012277  55.8326837  73.6784376  14.4019395
  55.0531980  74.0208496  13.9644605  56.3817891  74.4483293  14.5502073
  57.2820759  58.2280636  85.1539135  58.0450535  58.4435987  85.6902313
  57.4922609  57.3770475  84.7694302  79.7794247   0.8302871  83.1345940
  79.9748707   1.5054396  83.7843609  78.8312864   0.7113705  83.1905079
  16.2934200  83.4461392  18.2716161  16.1850826  82.8924622  17.4983484
  15.4109375  83.5278167  18.6332494  56.0110664  31.1151338  85.1610565
  56.8136883  30.9461784  84.6676159  55.7758379  30.2655220  85.5339622
 102.7126416  52.3701058  11.8453199 102.4696167  52.0832264  10.9650499
 103.6540898  52.5346854  11.7922098   4.2946235  75.7377638  29.6692544
   3.6787836  76.2147654  30.2255327   4.2152635  74.8263515  29.9507982
  93.1538161  67.4939395   3.4099466  92.7762707  67.5161113   2.5306303
  92.6817091  66.7905940   3.8556463  79.3858965  63.9983274  14.8781568
  78.5784491  63.5933591  15.1947958  80.0250109  63.2857753  14.8725683
  62.1196636  98.9842333   0.9729272  61.6055258  98.1950392   0.8024580
  62.9743441  98.8023342   0.5822069  30.8951783  40.8347273  56.8470764
  30.4940796  41.0126352  57.6977825  30.2404475  41.1191845  56.2093925
  76.1347350  73.6542477   0.1926977  76.0703667  74.6083654   0.2345354
  77.0172986  73.4880222  -0.1384848  91.7884167  67.9811801   1.1227113
  91.0135611  68.5186137   1.2870199  91.4508971  67.2042765   0.6769067
  91.0938891  90.6958593  32.1267969  91.1741599  90.2417149  31.2880212
  90.1507338  90.7479705  32.2816450 106.3083418 100.1384421  86.3265038
 105.6656249 100.5931842  86.8708897 106.2877472  99.2332882  86.6371536
  83.3489617  69.9002279  12.5511152  84.1930254  69.4609238  12.4471742
  82.8668889  69.3498339  13.1682855  78.4509905  86.6111483  15.6726629
  78.0507716  86.9995822  14.8947317  79.1441687  87.2243823  15.9169561
  83.9270016  86.4732201  81.5576649  84.4609102  85.7026417  81.7510128
  83.7418981  86.4074297  80.6208420  38.0548254  73.8218273  13.0819875
  37.2038734  74.0027274  13.4812147  38.0697917  72.8712763  12.9703504
  11.5032291  29.9704766  65.9462881  12.1405733  30.5576849  66.3527489
  10.7164383  30.5057025  65.8427286   0.1939813  79.8088033  79.3620777
   0.4916398  80.2225954  80.1722717   0.7788936  80.1543243  78.6877441
  24.3452621  52.7476931  51.7850780  24.0110970  53.4588528  52.3317194
  23.8035107  52.7769184  50.9964800  80.6341704  71.5849770   1.6878587
  81.3223656  72.2358073   1.5498716  80.9321030  71.0777773   2.4429781
  25.8208028  99.5123219  67.0224190  25.3977958  99.5323623  66.1639929
  25.1537076  99.8395462  67.6258564  87.5267784  91.8955887  53.5078144
  87.6277629  91.0145230  53.8680315  88.0650131  92.4489022  54.0738392
 105.8692034  77.7270712  17.1066076 106.5267285  78.4166516  17.0151025
 105.2803429  78.0468024  17.7901536  74.2814287  41.7838873   6.1019594
  73.7626179  42.5168528   5.7705480  74.5099767  42.0372368   6.9962770
  53.8060617  12.5178087  84.6194363  54.7212076  12.7136421  84.4184589
  53.5732031  11.8139338  84.0139866  45.4816055  22.1413040  52.5907993
  45.4071808  23.0772471  52.4045134  46.4161634  22.0009327  52.7428770
  18.8074005   2.5776422  62.1284389  19.3894267   1.8678048  62.3997450
  19.3841040   3.2091671  61.6985321  81.3854273  73.7964786   3.7092477
  80.9080466  74.3314589   4.3433935  81.5594443  72.9761471   4.1707784
  83.8523777  54.6489133  46.2592870  83.4066018  54.6342580  45.4123479
  84.7824057  54.5867048  46.0415441  58.0762148   3.0607593  69.9019575
  58.8762236   3.3239463  70.3568697  58.0058765   3.6715442  69.1683197
  67.0594501  18.1062400  81.9217968  66.5325689  18.6561739  82.5016308
  67.7888632  18.6668801  81.6574764  81.2132987  25.2041282   3.3118135
  82.0362242  24.9801983   3.7464124  81.4312132  25.2201094   2.3798925
   3.8821975  93.9675154  39.0219480   2.9286997  94.0274633  38.9629919
   4.0928022  94.3365396  39.8796827  69.8003276  93.1378330   5.3581506
  70.1087936  92.2702230   5.6195528  69.8422202  93.6586155   6.1601907
  91.8083628  70.9996952  24.1639692  92.4570139  70.5819763  24.7305376
  92.2503623  71.0898222  23.3197290  49.1414165  48.5253859  78.4747124
  49.4731712  47.6276016  78.4870481  49.9010706  49.0582323  78.2396841
  58.8753605  59.4846964  77.9035234  59.4561100  60.1470041  77.5289392
  58.0092764  59.8921585  77.8932428 105.3409537  51.9322222  37.2497160
 105.4123362  51.0496066  36.8862230 104.3989762  52.0928256  37.3054773
  37.1354222  48.5859442  80.8969307  36.7134571  48.7274408  81.7443752
  36.7784429  47.7533865  80.5876637 100.1506273  25.1639563   4.5523721
 100.6834976  24.4011933   4.7770387 100.6021921  25.5605561   3.8073713
  47.8215170  21.4354849  50.8078051  47.1115065  21.9998121  50.5017757
  48.0658197  21.7983150  51.6592169  20.0888252  59.9275827  53.9449596
  19.7118664  59.3685913  54.6244144  19.4780946  60.6610203  53.8721085
  83.4782465  90.2729167  38.9231950  83.5912951  89.6108617  39.6051961
  82.6600083  90.7142533  39.1510946  97.2980698  90.9908880  48.2966978
  96.5910681  90.8431066  47.6685792  97.2399577  91.9226898  48.5078794
  68.1831026  12.7088881  73.3205891  68.1726980  13.6004364  73.6688185
  69.0963554  12.4325538  73.3969975  68.1764182  76.8056573   0.3139478
  68.2959589  77.3656930  -0.4530638  69.0571960  76.7012633   0.6738931
  86.1788472  77.3354210  21.6156179  86.2697562  76.6099109  22.2333509
  85.2717646  77.2815551  21.3147241  88.8700541  94.0451397  30.2159959
  89.6350630  93.5087313  30.0080091  88.1252821  93.5317196  29.9030382
  37.9855824  37.5763559  64.7422266  37.7260470  36.6812778  64.9606419
  38.3630395  37.9205751  65.5517149  12.1592514  91.5657963   0.6004030
  11.5487949  91.3515676   1.3058740  12.2433559  90.7532586   0.1014692
  59.8474836  26.9824767  84.6025562  60.3381395  26.1718464  84.4670200
  58.9527225  26.7678118  84.3388367  52.8275347  49.1226292  73.8024855
  53.5468197  49.7384787  73.9424753  53.2568264  48.3092928  73.5371113
  90.6254729  84.6509875  46.1707288  90.1037606  85.4521574  46.1240751
  90.6369933  84.3200315  45.2726442  31.8148661  31.0303068  86.8260956
  31.5094018  30.6273985  86.0133266  31.3171816  31.8453574  86.8911743
  42.0028973  52.9413843  79.3625212  41.1205196  53.0342197  79.0033293
  41.9077396  52.3032808  80.0696278  14.4650928  47.2267960  32.7591688
  14.4147293  47.3985420  31.8188554  15.1798240  46.5965433  32.8495866
  57.7640343  20.3595877  82.4112415  57.1882534  19.8524320  81.8389606
  57.8179836  19.8430681  83.2153130  16.6334812  80.7512082  12.3013765
  16.1741440  79.9158110  12.3871213  15.9682361  81.3581051  11.9767934
  20.5007887   6.0017526  77.2237349  19.5821357   5.9804034  76.9556856
  20.8932710   6.6844398  76.6795588  93.0502900  89.9872340   8.0997354
  92.8827342  89.8463000   9.0315610  93.8796957  90.4644193   8.0750066
  74.0117248  89.7150411  10.1011831  73.0983838  89.9259008   9.9073392
  74.3057903  90.4255547  10.6712038  29.8959446  18.3903510  15.8337289
  30.8121872  18.1303555  15.7381708  29.5228434  18.2786853  14.9593431
  76.6237362  85.0184525   8.7151414  77.2179373  84.2848243   8.8730699
  75.7489069  84.6333183   8.7659246  60.5873966  38.3723021  85.5914879
  61.4594460  38.7557197  85.4979324  60.5081177  38.1827855  86.5263844
  90.6613501  98.6100210   3.7136156  91.4721735  98.7535299   3.2255537
  90.0845154  98.1635918   3.0937845  94.6706017  85.5110539   3.8405210
  93.7973889  85.4901232   4.2320425  94.5987519  84.9546541   3.0649644
  98.3816823  58.0055888  24.2884714  98.3881815  57.7114768  25.1993352
  97.6540478  57.5295527  23.8882619  42.2101641  38.0228615  82.4827862
  42.0626688  37.0892382  82.3317051  43.1416321  38.0871439  82.6936531
  88.8643177  92.0944656  23.2691938  88.0655869  92.2920383  22.7800828
  88.6998852  92.4407019  24.1463071  95.2740296  68.7341572   6.1608297
  96.0763987  68.6044003   6.6664011  94.8009547  67.9063691   6.2456972
  41.7424154  48.0493212  68.0169153  42.3717690  47.8780031  68.7174845
  42.0928288  48.8152647  67.5621843  39.0340662  18.4064460  71.4991760
  39.9048615  18.6238301  71.8318844  39.2001486  17.8415310  70.7445145
  76.7263993  99.3650307   8.5136396  76.3951024  98.6664356   7.9493410
  77.0786341  98.9088358   9.2778760  79.5492228  51.2432878   1.9593317
  79.6898421  52.1869716   1.8823988  78.6006459  51.1487563   2.0459348
  35.2167964   5.6421191  58.7325048  34.3583512   5.3288805  58.4475708
  35.5771637   4.9192238  59.2461061  45.6329155  43.5805082  87.3668480
  45.1565695  43.6843967  86.5431118  45.0020552  43.1699657  87.9582024
  58.3759260  37.7242613  83.5154152  58.3049250  37.6606369  84.4678593
  58.9806414  38.4515333  83.3683681  35.6955242  43.3782625  70.1941967
  35.6984735  43.9240599  69.4078588  36.1634731  42.5840807  69.9362707
  52.4714518  14.3421268  86.2789536  51.9318962  14.6752477  85.5619144
  53.1592226  13.8362801  85.8461475  60.1722606  77.3660125   5.2399808
  59.5695909  77.9981412   4.8482782  60.2509364  77.6438512   6.1525899
  31.4558268  51.6469288  79.9599600  32.2091866  51.8778849  79.4165134
  31.6034651  50.7314825  80.1974392  51.9439983  45.3745747  84.9700260
  51.5017176  46.2180758  84.8744965  52.3419046  45.2145052  84.1142941
  54.5992708  43.5513592  82.2468090  55.0184441  44.0356255  81.5354633
  54.1752815  44.2253208  82.7780724  90.6452235 101.2413229   5.8795435
  90.3670319 100.3258432   5.9066755  90.1093634 101.6341652   5.1905138
  87.0128815   9.7494275  43.3058626  86.2088112   9.4305522  42.8959638
  87.1420447  10.6216294  42.9333002  52.5777197  53.8802814  64.2343950
  53.4011316  53.4753084  64.5068264  52.2572184  54.3232632  65.0200653
  94.9804839  56.5462734  38.3800298  94.1904887  56.6843916  37.8574735
  94.7192629  55.9096630  39.0454084  35.8100295  49.3617392  83.8424110
  35.1171994  48.9667749  83.3130455  35.6315231  50.3015137  83.8079453
  74.2322262  86.0835041   6.8472272  73.4426316  85.6632723   7.1880800
  74.3900355  86.8158282   7.4430734  95.8433207  93.0184473   9.8543722
  95.3168066  93.4101023   9.1575033  96.7066821  92.8930057   9.4605428
  44.5645324  93.1901295  71.5812922  44.2330925  92.6602901  72.3063087
  43.9838830  92.9837770  70.8488321  66.7958864  88.6366714  33.4223253
  66.5443810  89.4744767  33.8109952  66.8668111  88.8189973  32.4853307
  38.2963085  39.6598029  79.4939232  39.1555524  39.2560267  79.6159840
  38.4069371  40.5576134  79.8068523  70.2234793  32.2136497  74.2099285
  69.6427393  32.3784351  74.9527693  69.7067308  32.4597883  73.4427118
  76.3105106  25.0203133  74.9000311  76.7122412  25.1917505  75.7517672
  75.9344435  25.8609605  74.6390343   7.2309152  95.1149906   1.4190179
   7.9118101  95.6253351   1.8573839   6.5327493  95.7463850   1.2454015
  61.7011770  91.4623560  26.2934286  62.6116999  91.1758579  26.3648302
  61.7437991  92.2707285  25.7825929  39.0534830  53.2119799  78.4642076
  38.5134649  53.9493465  78.1797647  39.1609859  53.3431911  79.4062567
  82.9775198  65.2905442   9.3592245  83.1027564  65.8142103  10.1506311
  83.6020525  64.5705034   9.4471532  53.1400728  37.9853868  76.4405775
  53.8199997  37.6000166  75.8879232  53.3540010  37.6890469  77.3252535
  83.8432845  54.5656644  18.2952386  83.7455090  54.7588305  19.2276269
  83.4429511  53.7030817  18.1860715  91.5155514  81.4661850   6.4290506
  92.2550734  81.6577758   5.8523065  91.0100420  82.2787823   6.4483148
  64.8171854  25.9570336  81.5566826  64.3279839  25.2291417  81.9402027
  65.5642271  25.5424953  81.1250401   7.2104589  93.9013018   4.4315416
   6.8855707  94.3127788   5.2323896   7.5954286  94.6210922   3.9316160
  44.3907928  42.2720814  75.7085800  44.3749142  41.3764620  76.0459852
  44.9071693  42.7604485  76.3497353  81.5914162  87.9580702   7.3415453
  81.8967732  87.1307553   6.9693357  81.6902026  88.5914554   6.6306955
  23.2064629   3.6574903  84.4273281  24.0961981   3.8655585  84.7124767
  23.2047367   2.7059940  84.3230057 100.2165135  72.2773851   5.0696260
 101.0476979  72.5206937   5.4772550  99.6629532  73.0512728   5.1740343
  87.3779400  70.7185389  11.8879491  86.9850071  70.8640887  12.7485544
  86.6840275  70.9406675  11.2671644  47.0415354  20.0172615  73.6832380
  46.5087032  19.8386228  74.4580984  46.9160986  20.9514380  73.5164738
  14.1215221  90.3222813  22.0349676  13.9564220  91.0456098  22.6397592
  14.7999756  90.6525911  21.4460451  78.5193777  31.4111686  87.7766037
  79.4196367  31.1064768  87.6628685  78.0894279  30.7103181  88.2666874
  11.5953437  94.6721978  74.6065855  11.1700002  94.8945118  75.4347706
  12.0984880  93.8813210  74.8004723  67.6135874  25.6249142  68.9656115
  66.6934395  25.8409452  68.8143301  67.8452206  25.0432420  68.2415676
  56.0527420  14.2739868  79.9149466  56.9687557  14.2238224  79.6417570
  55.5711937  14.4513690  79.1069365  97.1607359  92.2966446  24.8942644
  97.6610287  92.5545801  25.6684763  97.7583130  92.4472059  24.1618234
  71.5113243  91.8144239  35.8393175  72.2896822  92.2241463  35.4618055
  71.5456661  92.0450272  36.7676908  43.3165741  29.9224949  67.2525644
  44.0432119  29.6843696  66.6767836  43.3315659  29.2602539  67.9435349
  30.3865290  16.8813855  36.1743623  31.2548113  17.0206553  35.7963163
  29.7830010  17.2554166  35.5324251  24.8421097  46.8521929  77.3956537
  25.0695229  46.0327387  77.8349876  23.9608049  46.7036343  77.0529175
  62.7457809  19.1728830  84.6145058  62.1708345  19.9301589  84.5040417
  62.4850464  18.7946761  85.4542732  48.4678698   4.6510792  61.3858414
  47.7832460   4.0159798  61.1756706  48.7691593   4.3984714  62.2585678
  86.2256821  75.8552422   5.5245000  86.7162522  76.3491811   4.8675424
  86.8386754  75.7500352   6.2521059  88.2368096  98.3388056  16.5338213
  88.4133490  97.5438751  16.0306722  87.5819071  98.8085951  16.0174543
  97.7679261  68.2594813   7.4272806  98.4070166  68.6023749   6.8026048
  98.1068429  68.5196508   8.2838327  82.6768979  90.2726139  14.9895078
  83.3600195  90.0697960  14.3504221  81.9033774  89.8090686  14.6685297
  56.7272758  45.8632183  84.9547482  57.1606731  46.5849543  85.4102612
  56.6034746  46.1837673  84.0613556  76.5765627  76.8892182  41.1389524
  76.9495209  76.6794003  40.2827341  77.3350342  76.9704641  41.7171842
  76.0270882  43.3948994  83.7177753  76.2924480  43.6647129  84.5969868
  75.9696579  44.2125511  83.2234287 106.3451251  78.7998046  24.6233160
 106.1914595  79.7382535  24.7325498 106.3901909  78.4589065  25.5166227
  12.7287952  64.7594179   7.2493059  13.5213844  65.2827598   7.1303541
  12.7415077  64.1368557   6.5223390  82.2551632  34.2753172  86.1654758
  82.7189732  33.9932179  85.3771019  82.1822929  35.2252960  86.0734844
  73.7219437  57.9141278   9.7444898  73.4024557  58.7851722   9.5090276
  73.3941134  57.3429187   9.0498811  52.2973537  21.3298368  80.5383110
  52.5183010  20.4155517  80.7157898  52.9411936  21.6098952  79.8877239
  72.9350384  67.6594747  28.1786520  73.7604388  67.2954227  28.4986764
  72.3142179  67.5081386  28.8913328  81.3594532   7.1721590  73.9508963
  81.8096542   7.3811567  74.7693539  82.0335960   6.7710292  73.4023952
  42.6695013  42.1574354  78.7856483  42.3282433  42.2474670  79.6754074
  41.8890381  42.1006393  78.2343912  66.2526226  22.1900582  75.2444649
  65.5023336  22.0245528  74.6735811  66.2967348  21.4200211  75.8113241
  35.5816889  42.4113131  78.2475567  35.6597972  42.9910183  77.4898815
  35.2675366  42.9784966  78.9517164   1.1857645  52.2240506   0.3573686
   1.3376133  52.5138023   1.2569315   1.9565145  51.6991025   0.1414949
  70.8346804  97.1379198  23.7066347  71.2849267  97.6586927  24.3716985
  71.5315898  96.6381658  23.2814294  67.2851642  88.7047543  26.2404233
  66.7798956  88.2083906  26.8842870  67.7834352  89.3347587  26.7610437
  43.4532356  31.3327885  52.4138832  44.3113375  31.5043259  52.8017807
  43.1150627  30.5825257  52.9027319  22.8493834   8.2126815   0.7177335
  22.9779864   8.0220563  -0.2114314  22.6846981   7.3584229   1.1169321
  12.6339340   5.5661208  11.5147668  13.4515572   5.1014859  11.3363248
  12.2343445   5.6871802  10.6534273  34.8371601  13.4020621  16.0919363
  35.1738835  13.1022555  16.9363100  34.4761276  12.6145894  15.6847841
  93.1835803  34.1957380   3.4865839  93.5645874  33.3184875   3.5252840
  92.3525246  34.1167976   3.9549428 101.5215929  44.6047474  24.4995386
 100.6779154  44.2119343  24.2756158 101.3906249  45.5439497  24.3692380
  87.2518055  11.7844636   5.9454710  86.5381674  11.8278415   5.3090173
  87.2469871  12.6425702   6.3695795  97.0519217  94.9911798  17.3092824
  96.5432604  94.6282066  16.5842039  97.4926241  95.7537998  16.9345361
   3.5081989  10.5444169  61.3807678   2.8074154  10.9124172  60.8425236
   3.8561642   9.8211634  60.8591795  62.6592445  16.5036714  83.7763596
  62.4833488  17.4444675  83.7903023  63.4890795  16.4221036  83.3062935
  43.7077665  34.9128437  76.7522097  44.3429279  35.4391170  76.2665796
  42.9330921  35.4714060  76.8164062  33.2379055  67.8247452  70.2928448
  33.4787750  68.4780931  70.9496164  32.3369479  68.0444145  70.0556707
  19.0304852   1.8745191  11.4784509  18.3433581   2.2408206  10.9217626
  19.6441746   2.5974995  11.6085226  76.0913809  64.5321883   9.1840726
  75.1675590  64.2997791   9.0904218  76.3141211  64.2729451  10.0781709
  28.9232349  56.2558317  75.6583357  28.0561829  56.6492128  75.5598259
  29.1806173  56.0173178  74.7677755  47.6659640  69.8952784  18.4847337
  48.3044990  69.6300973  17.8227788  47.0816024  69.1418744  18.5692007
  53.6159237  73.6599840  28.4059793  54.0665849  73.4112395  27.5989706
  52.7366801  73.9100183  28.1219942  85.0984200  78.1022967   6.7465574
  85.1205595  77.2028793   6.4197713  85.9037693  78.1918992   7.2560770
  42.4150702  51.9189501   0.1917440  42.4632885  50.9634592   0.1610261
  41.6642817  52.1028476   0.7563097  88.5160979  92.4803270  10.9709436
  89.3081244  92.5600923  11.5025121  88.1986578  91.5943445  11.1455709
  19.8788548  34.4165611  75.4851913  19.0025139  34.1960502  75.1695442
  20.4399586  33.7230206  75.1382065  57.0534801  42.6152945  82.5305462
  56.1319876  42.8708506  82.4884224  57.2961378  42.4432182  81.6207409
  19.4223189  49.3917656  79.5590591  18.9752519  49.8667336  80.2596092
  18.7254333  49.1567802  78.9463902  91.9373568  89.3530501  10.4837591
  91.8397292  88.4621300  10.1476652  91.5189370  89.3315615  11.3443929
  79.1398581  82.2278608   2.2673017  78.8188799  81.3440622   2.0881254
  80.0639161  82.2020139   2.0189363  42.1027088  35.3446746  83.0307484
  42.1125174  35.7127047  83.9143181  43.0169058  35.1233149  82.8533363
  12.5234699   0.0843245   1.0836584  11.8548107   0.7460410   0.9068471
  12.0491505  -0.7468455   1.0634023  95.6840476  96.9964613  14.7904188
  94.9322518  97.4781383  14.4454176  95.8947142  96.3599695  14.1072446
  28.4352160  47.9554796  87.6488781  28.0762959  47.8033543  86.7746544
  28.9731860  48.7414312  87.5534916  61.5044308   9.6170194  34.9751359
  60.7650852   9.0923030  35.2821619  62.2115517   8.9841849  34.8496992
  69.5959854  21.8693900  79.5603991  69.6249008  22.3807597  80.3690338
  69.5891333  22.5246978  78.8627195   6.0987083  98.6533560   7.3869688
   7.0226995  98.4376491   7.2607214   5.8379976  99.0778030   6.5695840
  55.4701138  17.6219082  78.2430506  55.7749987  18.1731117  77.5223207
  54.9077225  16.9700384  77.8247023  76.4324339  97.4152292  14.4382841
  76.4262875  96.4583219  14.4612485  75.7164677  97.6733412  15.0188047
  25.2370199  19.3835558  13.9142400  25.5713864  18.5112251  13.7057478
  25.8977135  19.7607817  14.4951135  10.9203045  98.2373680  10.6224519
  11.0765545  99.1808142  10.5809289  11.7926399  97.8538908  10.7131273
  49.3142986   1.2435014  16.8314916  49.3521691   2.1758658  17.0447809
  50.2052975   1.0236604  16.5594179   2.8333084  85.7154883  20.1028139
   3.4288255  86.1508001  20.7128030   2.1974556  86.3906278  19.8659307
  39.5822096  36.8377757  53.1192732  40.0569677  37.6102781  52.8125429
  38.6750269  37.1315789  53.2025146  41.9556379   8.9789510  59.7806120
  42.0304012   9.8929018  59.5061350  42.5714016   8.8964164  60.5087948
  91.2379511  56.6646077  33.9847642  91.5414294  55.9522940  34.5475656
  92.0327576  57.1495135  33.7625486  80.8551892  65.5507852  17.0289594
  81.2251051  66.3612057  16.6787988  80.1822003  65.3014244  16.3956052
  35.6854343  46.9132185  72.1018076  35.3294969  46.1654043  72.5817108
  36.2282991  46.5221167  71.4172840  46.4298773  16.4116526  79.8364162
  45.9057236  17.0418048  79.3420506  47.0920324  16.1105025  79.2142487
  46.7659855  36.1250043  80.0796986  47.4437666  36.7921782  79.9714184
  46.2013626  36.4674425  80.7726479  78.7211595  13.1090505  18.5990125
  78.4615449  13.3270175  19.4941789  79.4489346  12.4960954  18.7032205
  88.0003985  65.9775163  17.1109659  87.9493769  66.1246480  18.0554182
  88.3385666  65.0861443  17.0253545  13.9325237  24.3341166  35.9318143
  14.6716595  24.6292312  35.4000074  13.1788588  24.3855245  35.3439600
   0.5455923   1.2457806  36.8127138   0.7505536   1.2462813  37.7477056
   0.8123851   2.1132762  36.5085680   0.2158443  83.4248651   7.2904855
   0.7521240  82.6408924   7.1720869   0.5207149  84.0281977   6.6127855
  91.1348248  33.4880114  86.9711685  92.0341778  33.8142204  86.9398689
  91.0809231  33.0134058  87.8006744  44.0504551   9.3305326  82.6825428
  43.7123823  10.1037312  83.1343174  44.0042973   8.6322510  83.3356094
  11.8766546   5.6398446  18.7561876  12.6538325   5.3925664  19.2572671
  11.1419916   5.3240640  19.2822916  61.9982394  65.6732024  41.0262281
  61.9829830  64.7883858  40.6614000  62.8577789  66.0175253  40.7836038
  78.9669847  43.4341574  68.5561275  78.6911583  44.0790129  69.2075253
  79.8927212  43.2823849  68.7464142  77.0260429  47.8645897  85.6513977
  77.9350567  47.8096247  85.3565979  76.9558907  48.7315035  86.0511112
  80.6628235  75.0180496  12.1441919  79.9136456  75.5310120  12.4472219
  80.3087481  74.4657625  11.4471609  23.0604434  41.5178728  51.0816050
  22.6473999  42.3623800  51.2617064  22.3971915  41.0250521  50.5984306
  20.0319902 101.8808989  67.3280573  19.8670284 100.9404057  67.2610426
  20.8464376 102.0163198  66.8437290  96.3012131  84.4052543   1.5727502
  96.7258509  84.7893847   0.8057004  95.8493336  83.6322535   1.2343580
  71.8013382  13.2268023  59.9320555  71.1694670  13.3977842  59.2336702
  71.4021683  13.6070287  60.7145643  53.7842270  64.4583787   5.1360494
  53.8520463  65.4072596   5.0299436  54.6357997  64.1243757   4.8540956
   1.1398689  94.1396870  17.3017961   1.3992397  95.0576557  17.2225172
   1.7911522  93.7566675  17.8894693   4.3559066  45.3352995  15.3337080
   3.9815513  46.1436520  15.6839258   3.9365188  44.6386613  15.8387167
  12.1170227  80.6657161  19.7160036  11.5598098  81.1133923  20.3526670
  12.7917282  80.2405442  20.2453786  93.8875731  92.5757946  22.5635702
  92.9987153  92.3056091  22.7941400  94.3691929  92.5453533  23.3902151
  81.3292885  37.0116735  75.1287413  80.5550480  36.6674113  75.5740166
  81.8755913  37.3602080  75.8332348 103.0457791  89.1333260  16.0851366
 102.7499398  88.4013690  16.6263849 102.3256453  89.7629775  16.1194498
  30.4120056  48.5410936  60.9533865  30.8751957  48.2303353  60.1754934
  29.5001117  48.2906528  60.8051759  30.1890556  53.1595065   9.9104673
  30.5852596  53.5500748  10.6893903  29.3035309  52.9220819  10.1856214
  67.0993233  17.1227717  85.1485443  67.9986000  17.3330200  85.4001904
  66.8499184  17.8221416  84.5444679  17.2242729  77.0019998  19.1273576
  16.8667213  77.3864354  19.9277288  17.7739517  77.6916350  18.7552339
  16.0795212   5.9533507  15.4180700  16.7297268   5.4369742  15.8943254
  16.0801888   5.5837972  14.5350820  53.5055065  16.1105514  82.9693222
  52.5948572  16.1064005  83.2641697  53.4545231  15.9248769  82.0316887
  64.8466428  41.8513091   6.5323335  64.5000704  41.4053549   5.7595235
  64.4524106  42.7230526   6.5027505  61.9518089   6.4387190  74.5149040
  62.3079824   7.3096615  74.3393135  62.0571136   6.3228017  75.4592037
  99.0405091  82.2558750  10.6080419  98.4238728  81.9903721  11.2903196
  99.6529730  82.8413500  11.0533983  91.1486014  30.9967162   3.8072664
  90.6462391  30.4037680   4.3660814  91.4560374  30.4450263   3.0879957
  51.6609001  41.4601660  66.9299841  51.0091496  42.1328068  67.1274948
  51.3739252  41.0858440  66.0970592  86.5278451   0.9519679  32.1438009
  86.3208096   0.7335193  31.2351495  85.9496979   1.6860635  32.3513586
  35.3520290  89.4942631  55.2721483  34.4830219  89.8893799  55.2018816
  35.1813404  88.5604514  55.3950006  68.4545279  27.0026588  65.6805420
  68.1706524  27.9033756  65.8366108  68.9591885  27.0478916  64.8684454
  99.0760430  81.2376417   5.7572538  99.5405205  80.6317343   5.1798708
  98.2327374  80.8148850   5.9195692  11.0379374  56.5368700  77.2988415
  11.4381015  57.3298645  76.9421101  11.7147958  56.1587238  77.8601837
  76.8042286  89.6310176  21.0839159  77.2598036  88.8011493  20.9424764
  76.0033377  89.5560397  20.5650789  70.7500728  99.1716398  16.6744310
  70.6819280 100.0433601  17.0639211  70.0005611  99.1148485  16.0817796
  93.4374150  97.7788843  45.2002889  92.4918374  97.6316322  45.1794511
  93.6961087  97.8049578  44.2790777  33.0647111  26.4466310  82.3247623
  33.4143162  27.1099019  82.9198074  33.6980462  25.7301021  82.3660660
  80.9934481  53.5524894  51.6342908  80.3175505  53.1980966  52.2120458
  81.2598761  52.8091897  51.0932237  20.9781448  91.9621147  11.0467130
  20.5874054  91.7212213  10.2067548  21.9143764  91.8001903  10.9305650
  71.6482314  71.2701024   0.6713659  71.5392693  70.3224434   0.5919916
  70.7634862  71.6007389   0.8267385  90.6657410  45.9499025  81.7088699
  89.9685478  45.5256414  81.2087154  91.0654259  46.5619659  81.0909176
  67.6977905  78.8448180  21.0619051  67.5413640  79.7879638  21.0145837
  68.6394151  78.7655677  21.2145311  64.1736603  28.7863469  82.1236420
  64.2329597  28.3205628  81.2895203  63.4790659  28.3335853  82.6019478
  19.9645225  92.3456253  27.8827173  19.8098270  93.2103838  28.2628423
  19.3549339  91.7690004  28.3433038  73.3319283  19.0102720  49.2361450
  73.5492611  19.1215038  50.1616859  73.9363813  19.5929980  48.7764740
  60.6687164   9.5607674  83.0328274  61.2176418  10.1534021  83.5463428
  61.0410309   9.5926601  82.1515751  27.9674721   5.1889474  23.1728822
  28.5889769   4.6048743  22.7383405  28.2044983   6.0634190  22.8640920
  90.6592997  80.4462422  53.8897974  91.4988097  80.2488078  54.3051034
  90.8920582  80.9294905  53.0970079  35.2486038   7.4147534  73.9477825
  35.2753568   7.4004370  74.9044991  34.5121002   7.9887784  73.7373352
  63.6980542  61.9583024  11.3499528  64.0911182  61.2737538  11.8913633
  64.4446214  62.4196590  10.9678251   5.5809395  97.2812046   1.0525400
   5.0667946  97.9130424   1.5551931   6.2107031  97.8156532   0.5687982
  88.4013661  53.1900132   5.7078821  87.7415999  53.0557465   6.3882619
  89.1391333  52.6434772   5.9784872  66.2242937  59.8175621  86.1402702
  66.7571259  60.0167942  85.3704453  66.4561272  60.4962635  86.7741871
  16.9243193   6.7553336  34.0145093  17.2542048   7.6503665  34.0940362
  17.7035618   6.2274606  33.8402730  23.9800453   8.9827639   5.6478483
  24.2067909   8.1333072   6.0263139  24.6594286   9.1420895   4.9926549
  37.9453564   0.3879887   8.4487611  37.7391291  -0.2667087   9.1158945
  38.8633919   0.2269179   8.2308275  18.5359375 100.7312645  12.2352201
  18.9415352  99.8656382  12.2842962  17.8137008 100.6932558  12.8622419
  44.8280716  19.3610436   7.9315645  44.4719410  20.1846797   8.2647592
  44.4587803  19.2787034   7.0523149  23.2065201   1.8220145  44.2457372
  22.5634480   1.4015490  43.6748678  23.3469916   1.1923510  44.9528581
   3.8490375  40.7396269  76.0347033   4.2527087  40.9677601  76.8721008
   4.4159396  40.0582981  75.6732607 101.8387373 101.4823212   1.4768297
 101.7400177 100.6003870   1.8355447 102.7681597 101.6830219   1.5869409
  73.8111401  46.8952227  79.0707397  74.2872858  46.9239140  78.2408667
  73.8501120  45.9768009  79.3376112  86.5749892  83.5886301   1.1122972
  86.0481413  82.9459871   0.6372434  86.0676344  83.7778439   1.9016153
  84.6170624  63.0949558   9.1360456  85.5463036  63.0832840   8.9066869
  84.5370682  62.4557544   9.8440439  15.0863028  20.1425988  13.2736475
  15.9179545  19.7994143  12.9468328  15.0492573  19.8528201  14.1851789
  99.4613560  99.6607460  22.3885805  99.1891869  98.7453474  22.3237688
  98.7995728 100.1430477  21.8929369  90.2924355  89.6047725  35.2027017
  89.4607981  90.0781931  35.1807767  90.1009568  88.8069881  35.6957704
  12.7095501  99.1889776   3.7126810  12.4599353  99.0696253   2.7963335
  12.4793331 100.0974811   3.9072401   2.8933946  89.8784317  38.9334566
   3.4561292  89.1636433  38.6357290   3.2235901  90.0960387  39.8051530
   6.2390939  41.7762102   3.3316118   6.1337749  42.7273537   3.3100111
   6.3396589  41.5254547   2.4133283  31.2533466  86.0868372  46.9247800
  30.5152408  86.6749085  46.7647535  31.2539856  85.4934110  46.1737234
  40.3705303 101.5456118   1.9414503  40.5501739 100.9144367   1.2446195
  39.9331657 101.0334410   2.6216203  73.7288713  71.0732508  83.2094002
  74.6672535  70.9197760  83.0993462  73.6762094  71.7998648  83.8302708
  48.6606598  11.8778712  35.9464056  47.8423596  11.7909629  35.4574663
  48.5706330  12.7054650  36.4188749  71.0010052  67.1030998  80.5826569
  70.2334547  67.6050186  80.3084850  70.7495356  66.7211008  81.4235306
  84.7580775  79.0701045  10.0624162  84.9989565  78.3704962  10.6696683
  85.3191861  78.9290918   9.2998487  95.2067947  49.9009705  81.6605854
  95.5267334  49.7860479  82.5553894  95.2010536  50.8489466  81.5281773
  25.2970878  53.9777441  10.8628160  26.1662475  54.3010844  11.0999853
  24.8958961  54.7007985  10.3806669  18.8699055   1.7183740  17.8194315
  18.0139542   1.3031442  17.7137643  19.3330717   1.5230376  17.0048410
  85.0124359  25.2864844  17.2514612  85.3222084  26.1231858  17.5981695
  84.4388580  24.9413211  17.9356367  43.4278774  18.9234311  26.1117918
  43.5807419  17.9908997  26.2642747  43.1416130  19.2611272  26.9604665
  73.2949781  65.9530020  78.1054258  72.3952723  65.6541014  78.2374096
  73.6119127  65.4382896  77.3632288  38.9023543   2.7953774  37.2944337
  39.8015738   2.4990565  37.4352628  38.9922953   3.5974843  36.7798883
  91.8730505  87.7699174  23.8752443  91.9862231  86.9731702  23.3569604
  91.2202271  88.2781161  23.3938009  10.5622760  69.5627107  17.9415876
  11.4801304  69.7413565  18.1461984  10.2951996  70.2921654  17.3823053
   4.8006908  93.6241878   3.0389482   5.5091278  93.6992945   3.6782533
   4.5903866  92.6905073   3.0230791  38.2223892  66.5515804  84.9279594
  37.8042555  66.7776346  85.7588005  37.5101519  66.2123013  84.3858910
  20.3052378  63.2429743  53.9118767  19.6520269  63.2533503  54.6114779
  19.9239063  63.7835979  53.2201099  12.7077285  78.4224595  34.2365247
  13.0674259  77.5498427  34.0771848  11.7744247  78.3359255  34.0423757
  58.3460903  43.8951540  77.6143074  58.1977892  44.6019077  78.2425880
  57.6674891  43.2504320  77.8144789  19.2918718  70.0365162  86.3564777
  18.8203013  70.1545525  85.5319118  18.6871028  69.5419836  86.9095898
   3.8190500  82.3423256  63.4667188   4.2121116  81.7424096  62.8328115
   4.2593567  82.1405591  64.2923433  60.2920198  61.4408064  80.9345722
  60.9787941  61.0628939  81.4838982  59.8746109  62.0981312  81.4912796
  50.8629990  18.1738288   1.6317064  50.3692341  18.8179404   1.1242181
  51.7209339  18.1420571   1.2083990  58.9758969  16.6607482  15.1262838
  59.7083378  16.5589530  15.7340795  59.2251206  17.4007899  14.5726949
 106.2891301  89.0775908   9.5981294 106.8005379  89.2671837   8.8115198
 105.7645186  88.3119620   9.3639642  45.0570202   4.1663987  30.7632238
  45.0677586   3.2212312  30.9141428  45.9574604   4.4456441  30.9289438
  86.6065844  86.7739095  14.7348291  87.1643408  86.7284860  13.9582426
  85.7211646  86.8825735  14.3877584  36.7933750   2.3544270   5.8723718
  35.9355641   2.4136359   6.2929422  36.6399861   2.6453692   4.9734479
  49.8624230   8.3286149  12.3757917  49.7511387   8.6940247  13.2534677
  50.6372833   7.7709205  12.4450094  78.0867004  64.7135067  79.7206259
  78.0370808  65.4291582  79.0868998  78.6009359  65.0701761  80.4449081
  82.9728889  60.7699251  66.6704178  83.3986664  60.3958130  65.8990669
  83.5748196  61.4515114  66.9693279  46.4130497  16.7326653  84.5331097
  45.8117867  16.9037390  83.8082314  45.8449841  16.6328514  85.2970314
  71.2872314  43.3037138  80.1277065  71.3016033  42.3571634  80.2693844
  71.7971849  43.4339952  79.3282032  74.4087362  32.6460671  57.8403139
  74.0612078  33.2204962  57.1580458  75.1883650  32.2528505  57.4481583
  25.4025269   3.9585025   9.8428995  25.9630537   4.5862920   9.3869096
  24.5496512   4.3902976   9.8917562  33.0873005  72.9043759  18.8972932
  33.4528248  72.5639380  19.7138292  33.7279598  72.6620187  18.2286817
 104.1427573  69.6393110   3.8394529 104.7183999  70.3977765   3.9373952
 103.8308629  69.4592322   4.7263223  13.6203567  85.1576652   8.4756834
  12.6634685  85.1820625   8.4786207  13.8789837  85.8281816   9.1079408
  73.9952230  35.7692242  68.4298849  73.7904739  36.6589212  68.7175465
  73.1575012  35.4153228  68.1312037  75.9084606  61.8540478  86.4961433
  76.3978243  61.3004971  85.8875847  76.3158751  62.7164936  86.4159966
  88.7948903  92.6013769  26.0796148  87.8995284  92.3561348  26.3128835
  89.3466147  92.0405735  26.6249067 101.8483742  97.3568787   7.5068742
 102.0227345  98.2351316   7.1684820 102.6498993  96.8664421   7.3245031
  41.7877388  28.2574964  69.4456673  42.0729303  27.5558281  70.0309515
  41.7470789  29.0336967  70.0043201   8.9892189  62.5541092   0.7769949
   8.9843933  63.1111516   1.5554029   8.2666389  62.8832663   0.2424318
  56.8528080  13.3778960   3.1074602  57.2776890  12.7387292   2.5354654
  55.9457112  13.4059197   2.8031427  96.5461691 100.9028448   0.5368215
  96.4188965 101.2972368   1.3996583  95.6616553 100.8108295   0.1827032
   0.6598933  39.7647595  60.6349802  -0.0340573  40.1720190  60.1165247
   0.2653297  38.9613509  60.9742117  55.9111317  95.1441349   0.6244928
  55.6590434  96.0480894   0.4359514  56.5635618  94.9331583  -0.0433844
  55.5010033  65.3894234  86.8777466  56.2824965  65.0639820  87.3244953
  54.7929478  65.2596998  87.5086689  77.5334319  90.5892624  25.9156877
  77.0165070  89.7839965  25.9394628  77.9174193  90.6015862  25.0389654
  54.6946955  49.8332453  77.2718811  55.4085875  49.2008257  77.3533440
  54.8279572  50.2356339  76.4136553  79.0730294  68.2361032  39.8835355
  79.8374089  67.6696278  39.9887067  79.1931590  68.9243854  40.5378038
  84.2368118  91.3584883  58.2549000  84.0697662  90.6654913  57.6160860
  85.0348083  91.0817725  58.7053013   2.2572939  95.7917274  10.1201612
   2.9874555  96.1040796   9.5858079   1.9462291  96.5715088  10.5799657
  89.0945911  25.7236123  76.0624218  89.0013885  25.1673603  75.2890348
  89.6856308  26.4233232  75.7843733  59.6586370  31.5613079  76.5379286
  60.2526474  31.5600443  77.2885132  59.9741888  32.2752953  75.9839582
  86.5709647  99.1161741  28.8509447  86.9866856  98.5497869  29.5010358
  86.0668667  99.7444548  29.3680364  23.9598656  15.4192597  13.2691556
  24.1691256  16.2910516  13.6044485  24.6800947  14.8666579  13.5726911
  69.3261274  82.5936831  12.4369127  69.4993599  82.2183742  11.5735609
  69.0998014  81.8415560  12.9840070  50.1096058   5.9089906  36.4185220
  50.7202339   5.3953082  36.9471914  49.3017006   5.3956420  36.4192277
  55.6997824  27.0650434  70.3398514  56.2511396  27.8319979  70.4948282
  55.5889940  26.6709304  71.2050867  63.9156771  60.9938383  84.8884583
  64.4220114  60.3543997  85.3894329  63.8697529  61.7619944  85.4577160
  74.4934273  27.8567798  17.7491170  73.9196873  27.2167117  17.3279554
  75.3034592  27.3763425  17.9201395  47.2455120  24.7662973  85.9677410
  48.1784296  24.6225047  85.8089256  46.8096113  24.3598700  85.2187157
  26.3074780   4.1223533  16.4095480  25.4103565   3.8466317  16.5976507
  26.8392658   3.6705262  17.0647508  72.4903107  26.5046555  16.6708452
  71.5697193  26.2941558  16.8271619  72.6399517  26.2609774  15.7573587
  42.1373081   3.4781749   7.9096586  41.9545031   3.2452590   6.9994051
  41.2739754   3.5472113   8.3172399  74.2994309  -0.0071185  21.8601972
  73.9592362   0.8513648  21.6081888  73.5247803  -0.5037873  22.1237451
  42.6572323   2.6782185  20.9663278  41.7212677   2.8169925  21.1110288
  43.0855370   3.2774264  21.5776617  63.2237291  50.2086639  84.9247932
  63.4403658  51.0022783  85.4141521  62.6029158  50.5008078  84.2573547
  79.8110723  81.5982723  63.2084894  79.8161173  82.2801113  62.5367069
  79.5612669  82.0551872  64.0116453  36.0831690  45.3430605  84.0771866
  36.8040657  45.7030249  84.5938683  35.3345084  45.3494310  84.6735859
  61.0376501  21.0423374  76.1395311  61.2406874  20.8803797  77.0608234
  61.3791752  20.2749419  75.6805134  95.2705439  78.1357421   4.6256048
  95.4951533  78.6107482   3.8255006  96.0453471  78.2221950   5.1809770
  82.7585888  34.6962285  78.0348492  82.4894619  34.9646950  77.1563673
  83.5966492  34.2527723  77.9035568  31.0865975  15.5983455   7.2101671
  30.2036619  15.5365807   6.8457014  31.3241720  14.6944196   7.4168474
  72.3901176  35.1813340  72.5400448  72.5925684  34.6343303  71.7810774
  72.0459270  35.9923267  72.1658039  90.7833727  73.8988007  10.3618986
  90.2862319  73.1749834  10.7429105  90.9680899  73.6170472   9.4659502
  69.1356897  58.4814739  85.6043720  68.8347626  59.2785025  86.0407448
  70.0873375  58.4974623  85.7060528  14.4394350  24.0236241   4.7834283
  13.4933424  24.1500527   4.7116262  14.5539951  23.5281617   5.5943758
  24.7916222   0.5194337   2.9117948  25.2333594   1.2914235   3.2655317
  24.0251494   0.4037244   3.4733659  82.8678322  18.5634434  85.5963993
  83.2859993  18.4317470  86.4472961  83.4086037  19.2240155  85.1634502
  54.8928022  48.7785149  86.3809872  54.6326160  47.9572582  86.7982101
  55.8323622  48.6812878  86.2260437  73.6980343  76.5118408  53.3551693
  73.9568138  76.2731123  54.2452621  74.3497849  76.0902834  52.7950478
   2.5863918  52.3789024  80.1505661   3.5326846  52.5003910  80.2280426
   2.3096164  52.0925522  81.0209846   4.8319809  66.0611965  31.0143930
   4.9441330  66.2630428  31.9433290   4.0144769  66.4960159  30.7718069
  68.6641359  79.2735815  82.3472977  69.2755556  80.0095463  82.3198032
  68.9795876  78.6747169  81.6704750  87.7256584  42.6613235  79.4907475
  87.6227665  42.4996710  80.4285717  87.0966721  42.0712090  79.0755653
  77.5575018  54.9842215  77.3982239  78.3093214  54.3919230  77.3845911
  77.9031038  55.8173466  77.0777702 103.0577191  89.6133460  40.3915578
 102.7392634  89.7673835  39.5021230 103.9787348  89.8726286  40.3644544
  73.2421637  50.9553719  87.4976349  72.3923397  51.0624409  87.9249191
  73.6378765  50.2025080  87.9367733  92.1385535  97.6484169  19.6713621
  92.5753935  97.2409214  20.4192525  91.9685276  98.5470642  19.9537641
  37.9944611  10.3141839  17.8716547  37.7985668   9.6493585  17.2114545
  38.4616900  10.9979779  17.3916990  97.0038136  91.5916408  77.4828035
  96.5357121  90.8673896  77.8982049  96.7698487  92.3589529  78.0050355
  15.7928840  90.3639687  19.4541723  16.4250843  90.9537424  19.8649389
  16.2953655  89.5732345  19.2580015  30.8684158  22.3676211  27.7165586
  31.1661577  23.0680138  28.2971078  31.5990162  21.7496592  27.6924879
  97.8491505 100.1019968  25.0030214  97.0460900 100.5632557  24.7610170
  98.5509404 100.6199278  24.6087247  17.3159886  16.5789992  43.8868124
  17.7058554  16.5125901  44.7584898  16.8141127  15.7701022  43.7866479
  78.5412550  51.8412542  83.4241009  78.2355881  51.0441399  83.8570023
  77.9760218  52.5326920  83.7685776   3.7447254  98.9477362   5.6483919
   3.5677330  99.5723261   4.9449808   2.8968183  98.8192476   6.0735780
  26.7192793  21.5035397   5.7313901  25.8714724  21.6277987   5.3047639
  27.2742081  22.1930129   5.3668195  35.0303729  24.4920874  82.4740410
  35.7406505  24.6591377  81.8544865  35.0225433  23.5406423  82.5785542
  30.7006645  10.6573874  22.2248632  31.4531136  10.0855691  22.0729524
  30.6598234  11.2116200  21.4455110  90.5471333  94.0980781  12.4972803
  90.3476246  94.8556770  13.0472547  90.8702763  94.4747414  11.6787797
  34.6502686   6.9126613  21.2551290  35.0009442   6.0316283  21.3856775
  34.1902733   6.8656022  20.4170209  57.2863770  14.4301367  51.8453598
  57.0166826  13.5424161  51.6098833  57.7185678  14.3320405  52.6937819
  20.7828132  96.9848312  24.2772657  20.5645363  96.2349571  24.8306924
  20.2345936  97.6955475  24.6097833  90.1356983  37.5932240  73.0149317
  89.7963333  38.4594464  73.2401323  90.2775288  37.1646810  73.8590097
  27.0078278  23.8652045  29.1549665  27.5752926  24.6307284  29.2454607
  26.5445709  23.8103206  29.9907953  74.0338310  80.0602330  15.9705335
  73.5857137  80.8897628  15.8052904  74.1709908  79.6847118  15.1008112
  86.5063763  56.4599133  57.6979113  86.3371944  56.8642378  56.8469477
  86.1758900  55.5660534  57.6083183  99.0330847  68.9441384  25.0018484
  99.5376976  69.3090881  24.2749292  99.3168553  68.0315794  25.0560743
  55.3672791   8.3683879  26.0055715  54.9177075   9.0441663  25.4981882
  54.6889496   7.7201802  26.1951238  50.9694481  19.8456866  21.4650041
  51.8467331  20.0588710  21.7830545  50.7259274  20.5911643  20.9161932
  97.2547873  97.0948280  37.9248601  96.5257319  97.5857557  37.5457841
  96.8745287  96.6463674  38.6801893  93.4969044  62.6442480  81.6283894
  94.4119644  62.9248857  81.6161537  93.5321808  61.7236185  81.8880653
 101.1293697  57.6042223  81.1559105 101.4812469  58.4619713  80.9178448
 100.2589035  57.5836802  80.7582951  22.7787018  25.0889451   1.4688665
  22.7503586  25.9422738   1.0361272  22.3990297  24.4843346   0.8312685
   1.0821954  81.4609565  18.3936578   1.6616623  80.7197632  18.2173425
   1.6650526  82.2197975  18.4195024  32.2376776  16.2638575  15.1579553
  31.9332218  15.4460914  14.7645074  33.1328631  16.0753924  15.4396516
  12.9483223   1.7098100  17.3224145  12.8821850   2.3048026  16.5755254
  13.2533312   0.8847005  16.9450552  18.3577204  35.8105857  49.2756254
  17.6103354  36.1131961  48.7598115  19.1219425  36.0369307  48.7455732
  42.6941204  19.1737658  11.6244394  43.6371231  19.0112216  11.6008359
  42.2997952  18.3267981  11.4161665  99.9124336  56.9118881  74.7555971
  99.4147396  57.5185490  74.2074203 100.2068901  56.2299824  74.1518307
   7.5617115  68.0807783  45.1707250   8.3504860  67.9845096  44.6370584
   7.0235101  68.7105800  44.6912176  19.5863819  21.0973603   8.1278211
  19.9173355  20.3742749   7.5950414  19.6358872  20.7742125   9.0274602
 102.2974118  99.6236624  10.9817201 101.4294489  99.2211403  10.9526426
 102.6311692  99.4106020  11.8531782  79.6134194  90.8250345  12.3298341
  79.4921454  90.1341380  12.9811365  79.0424832  91.5346540  12.6242906
  86.7203816  67.2282900  22.0925218  87.0766028  66.7734851  21.3293153
  85.8277234  66.8930115  22.1760732 107.6407345  77.1172441  29.0450079
 106.7510947  77.0156373  29.3833238 108.0794867  76.2982382  29.2751295
  16.5458194  78.2737268  50.5636674  16.3334457  79.1924347  50.3990251
  16.1738865  78.0929054  51.4269144  16.0139752  32.4469382  19.4414979
  16.2124157  33.1303031  20.0817091  15.6265211  32.9161746  18.7026292
  89.2588576  87.9060615   8.8445455  89.6244296  87.8938021   7.9599840
  89.1180476  88.8339700   9.0326673  86.4578064  79.3062271  13.5998708
  86.6661414  80.2401413  13.6250383  85.7518919  79.2010273  14.2377168
  21.3174296  34.5617968   9.3594724  21.8843270  35.3242213   9.2429906
  21.9209147  33.8380153   9.5273191  86.5561867  47.6407146  87.3797894
  87.1886253  48.0856276  87.9439735  86.2449932  46.9028521  87.9041481
  40.1314060  78.5911240  21.8741113  40.3634540  78.5349311  20.9471685
  40.3847686  77.7421059  22.2363359  68.6766052  17.2398305  71.6428518
  68.9021301  18.1696427  71.6142654  69.1725540  16.8958139  72.3857641
  30.4937267   0.9668214  11.3719541  30.0359774   0.2273280  10.9721357
  30.9591293   0.5860907  12.1167165  77.2939682   5.3957087  33.0890066
  78.0032444   5.0713212  32.5340826  76.9861126   6.1865956  32.6463396
  69.7884846  54.1500473  82.4486351  70.7407236  54.2443466  82.4726868
  69.4569206  54.9788284  82.7942181  44.7302723  10.3607756  11.5724451
  44.4610691   9.4592769  11.7487031  45.5972290  10.4342229  11.9714719
   9.9418307   4.4127089  20.8243066   9.1568422   4.2726714  21.3538534
  10.3101492   3.5371882  20.7058317   1.2025912  58.1428480  79.5722961
   0.8997424  57.3058748  79.2201757   0.4614623  58.7362289  79.4503641
 105.6933650  75.9829606  32.3723012 106.3236960  75.5767740  31.7773801
 104.8389824  75.7770552  31.9930154 100.7010897  94.0426077  10.1434499
 100.8919486  94.9784340  10.2069360 100.7306822  93.8552393   9.2052347
  90.7836970  90.4937614  40.1837236  90.3014763  91.0571636  40.7889253
  91.2676342  91.1016001  39.6246416  90.1328556  18.0009944   5.8303911
  90.9102444  18.3164031   5.3695089  90.1542060  17.0511586   5.7138139
  92.1975994  55.4116297  76.9403267  91.9116783  55.5668163  76.0401058
  91.4369774  55.6378603  77.4755859  61.0969734   8.4987742  31.5856821
  61.9666290   8.1967551  31.3235742  60.9159851   8.0297810  32.4002534
  64.7467375  35.5986810  77.4640846  65.1905394  35.5622315  76.6167736
  64.4482040  34.7021508  77.6168585  56.3803720  46.3371801  82.1436405
  56.2721825  45.8371305  81.3346386  56.9498014  47.0669222  81.8998146
  21.1748362   0.5226476   6.8206769  20.3263426   0.0887448   6.7311174
  21.6380453   0.0086839   7.4821264  49.5938873  18.8865573  29.3183023
  49.9184895  18.6170394  30.1775056  50.3616715  19.2466695  28.8743860
   2.5839655  98.2515968  22.1738225   3.2271234  98.6567701  21.5920812
   2.6668731  97.3129143  22.0057947  18.9899151 101.1871733   8.5646707
  18.3304302 101.7728390   8.1927854  19.3891613 101.6941847   9.2716199
   0.6705181  89.0659536   4.7098905   1.3344709  88.3776225   4.6698553
   1.1638014  89.8637260   4.9008447  69.9819009   8.0411155   7.7994424
  70.7583737   8.2332522   8.3251840  69.2630146   8.0243451   8.4312231
  84.5014676  94.5115818   5.7733232  84.6335324  95.2063955   5.1283151
  84.2015894  94.9682535   6.5592939 102.2678471  17.4812007  80.7213116
 102.4249554  16.7025864  80.1871681 102.0172119  18.1570959  80.0915623
  32.3011208   2.1623427   8.6867601  31.5363932   2.6289851   8.3496267
  31.9983101   1.7645366   9.5030290  95.9428692  68.0871964  83.3142662
  95.7426262  69.0203285  83.3877277  96.8704033  68.0590296  83.0795097
  95.4343414  82.6941204  87.4944496  95.3327656  82.6749897  88.4460545
  96.1715031  82.1088505  87.3204422  46.5680218  42.5995070   6.7660600
  46.1673641  42.9216296   5.9586317  45.8970356  42.7318389   7.4357492
  51.7503595  34.9053240  88.1388664  52.0946836  34.5177650  87.3342133
  51.4820766  34.1556072  88.6700821  71.8749960 101.1563887  13.5686380
  72.6355990 100.7003893  13.2083780  72.2374924 101.7312969  14.2426569
  89.0358639  55.1262283  71.9561052  88.2452774  54.6547985  72.2186947
  88.7435436  56.0276794  71.8213129  79.2158278  97.8796209   0.4862386
  78.4560212  97.7573837   1.0554296  79.9397143  97.4728216   0.9623987
 107.2812899  98.7298883  17.3893148 106.9908484  99.5296778  16.9509012
 106.8446311  98.0236305  16.9131166  78.3690127  89.1653003  14.4127256
  77.5534113  89.2574157  13.9202386  78.3973797  89.9387516  14.9759275
  50.5084229  18.6195970  43.1347322  50.3835392  18.0609572  43.9019108
  50.8734035  19.4315386  43.4865475  66.7686653  30.2962518  74.1587543
  67.3123026  30.6080866  73.4352589  66.9860649  29.3674994  74.2386866
  49.2438030  25.2725798   4.9231988  49.3780327  26.0217292   5.5037004
  48.2950020  25.2284295   4.8046285  12.1942894  94.7110142   4.0899736
  11.3455192  94.2804302   3.9879591  12.6839916  94.1383041   4.6802503
  94.5461750  95.9132576  71.7200565  94.5657635  96.5138912  72.4650955
  94.9376583  95.1057339  72.0530462  54.8818875  12.8274447  21.1852247
  55.2097893  13.4154565  21.8656332  54.1363239  13.2925135  20.8056623
  29.7959423  22.5171000  14.5990831  29.3003369  23.1226069  14.0477544
  30.5612660  23.0194432  14.8786527  28.3467817  23.4784371   2.3437673
  28.6764288  22.8579480   2.9938108  27.4305439  23.6141545   2.5852663
   8.1482593  79.6040119  16.1220342   8.5611812  79.6790375  16.9823152
   7.2088997  79.6098627  16.3059122  12.6248924  98.4704698  38.6386949
  12.2244827  98.3581938  37.7765447  12.1781627  99.2296757  39.0132123
 107.9601916  93.1210102  22.5043565 107.4463185  93.5922970  21.8485719
 108.4758814  92.4929823  21.9985181  77.4454641  66.2323856  86.9126987
  78.0162811  66.2610006  87.6805401  77.7005243  65.4317045  86.4543438
  66.0512304  87.2507477  73.5128927  65.6708860  86.9493866  74.3379641
  65.4773426  87.9629230  73.2305908   5.2942641  61.6348982  69.9776602
   4.5725234  61.4071989  69.3915987   4.9575313  62.3622322  70.5009460
  79.8167324  19.0880591   5.0887662  79.3092251  19.4069487   4.3424589
  80.7185078  19.3406064   4.8906499  73.1316948  59.6542978  83.1572533
  73.7455559  60.1131392  83.7307262  72.3417902  59.5487356  83.6874771
  50.5309868  11.9644124  33.8388998  51.1521721  11.2608392  34.0268976
  49.9313641  11.9602162  34.5849973  82.4709892  42.7482319  84.8463345
  82.1686363  41.8400383  84.8452282  82.1162701  43.1197357  84.0386200
  87.1297264  28.0521352  20.7307226  86.4998818  28.7620408  20.6059534
  86.7105007  27.4683577  21.3629228  15.3564882  32.7584845  24.3465024
  14.8720312  32.5436122  23.5494024  14.7202158  33.2135112  24.8981744
  25.5470753   3.3624703  12.8703386  26.4394188   3.6028916  13.1196386
  25.5607033   3.3507115  11.9133073  51.3006401   5.8669145   4.6513635
  50.8836174   6.0598142   3.8116437  50.6714058   6.1691529   5.3062994
   6.8714229  92.1212973   1.6831666   6.6816990  93.0479778   1.8298036
   7.6686422  92.1209396   1.1533910  87.6886845  54.6864653  79.1478062
  87.2477055  55.5358028  79.1675806  87.2444057  54.1702032  79.8203516
   3.3397341  40.2475459  29.0176755   2.5896788  39.6529204  29.0094263
   3.2244229  40.7893760  28.2370645  75.4502726  45.6292391  82.3902988
  75.2612305  46.5550327  82.2373295  74.9517107  45.1683187  81.7155933
  87.4387034  98.9657511   7.5377447  87.9392155  98.9390482   8.3532220
  86.7080410  98.3652796   7.6854021  74.4948864  53.2983208  84.9675465
  74.7772884  53.9192104  84.2959976  74.0741110  52.5913239  84.4783211
  45.5435085  36.0090835  41.4425165  45.2509213  35.1069838  41.5722829
  46.4627075  35.9284598  41.1879236  97.8220367  38.0400324  78.6617470
  96.9468975  37.7785039  78.3754492  98.2632446  37.2157168  78.8668537
  83.1638908  47.5886583  79.4482279  83.7786388  48.1851721  79.0210295
  82.3063755  47.8449917  79.1088295   9.2216015  18.4220845  43.1593687
  10.0239611  18.0184657  42.8283865   8.6939955  17.6863868  43.4701807
  76.9137001  44.1509008  66.8250942  76.7978716  45.0566435  67.1122265
  77.5361633  43.7792492  67.4501085  37.8251219  33.7736899  23.9229661
  37.4213886  33.3719165  24.6922571  38.1827164  34.6012027  24.2447931
  26.7757312  91.0627808   9.3022615  26.3383857  90.3545584   8.8296205
  27.6936332  90.7940592   9.3406374  63.6346626   4.8585994  24.8659975
  63.6516762   3.9496762  25.1656610  64.3290615   5.2884347  25.3652936
 105.2461155  96.9576324  15.6978208 105.6914624  96.7692675  14.8717290
 104.3177470  96.9915070  15.4671270  71.9954729  83.4007740  80.0317478
  71.8038702  83.3152676  79.0978241  71.1932755  83.7621689  80.4087162
  98.3216572  59.9991655  76.5915203  98.0283451  59.1262960  76.8528557
  98.1858158  60.0238800  75.6443310  77.9925728  96.4580345  70.9301519
  78.2565498  96.1051369  71.7798615  78.8171911  96.6596603  70.4878998
  79.3971777  52.8513908  86.3272953  79.3362427  53.6624336  85.8225822
  80.1919174  52.9542017  86.8507957  50.4679537  47.4015284  87.7193832
  51.4039040  47.2511721  87.5866318  50.0582457  47.0877028  86.9132328
  76.2381411  51.1152458  70.4701519  75.2810049  51.1118937  70.4594851
  76.4723110  52.0224905  70.6658602  57.4376869  80.6567669  80.9836197
  57.0205975  81.5179348  80.9582138  57.0545435  80.2275467  81.7486095
  54.3917131  84.6430206  73.1832266  54.5668316  85.5002785  72.7950621
  53.4369707  84.5752335  73.1934214  91.7628670   9.9228913   7.6362688
  90.8222294   9.7456462   7.6396829  92.1641541   9.0916449   7.8897172
  97.0083197  95.5900492  10.5037481  97.2363385  95.1423849  11.3185102
  96.4616307  94.9627031  10.0306684  34.6026278  11.1871583  14.4548971
  35.1713371  10.5023438  14.8067838  33.7151241  10.8796889  14.6393663
  70.1260757  45.2823591  85.4522514  70.6928968  45.2008533  86.2192631
  70.4902840  46.0197735  84.9625587  65.8218384   2.0306785  27.8489095
  64.8854923   2.1002061  28.0350477  66.1172867   1.2909848  28.3797533
  34.7909443  88.9498652  33.3603078  34.3108932  88.7198652  32.5647718
  35.1059143  89.8396458  33.2011873  70.5549812  50.6824207  87.8503323
  69.8075008  50.8666468  87.2815037  70.5529070  49.7301912  87.9476929
  63.8218880   0.4196078  37.3280317  63.0771828   0.8217532  36.8809015
  63.6660195   0.5930812  38.2563859  68.8345432  82.8321743  60.6917095
  69.5110130  82.3769665  61.1931086  68.3512831  83.3376122  61.3453436
   2.7197075  21.5854890   9.5076925   2.6339746  22.4035794   9.0181905
   3.6384273  21.3383967   9.4021780  36.5006495   7.1129138  51.1122304
  35.5439425   7.1286971  51.0859090  36.7475128   7.9980475  51.3802511
  22.1418810  14.5203215  29.2188245  21.4568281  15.1712520  29.3712122
  22.8942728  15.0302321  28.9186079  38.1898451  37.4108130   1.4333040
  38.0720806  38.3573443   1.5136606  38.8452244  37.1938617   2.0963651
  50.1238442  15.3429515   1.1003667  50.5278874  15.5207402   1.9496995
  50.2554226  16.1478669   0.5993349  69.3895769  72.2429228  74.1182947
  68.5131121  71.9083357  73.9282894  69.6316862  71.8246937  74.9445486
  35.5288911  49.0530682  73.5568285  35.5461454  48.2660246  73.0123186
  35.6058693  48.7259674  74.4531059  80.5383873  41.1726141  76.9415236
  80.6876278  40.9791231  76.0160446  79.6073771  40.9956074  77.0761156
  41.9538307  14.9296338  24.2483503  41.7230988  15.0687558  23.3298475
  41.8505621  15.7903344  24.6542532  37.4088748  65.3768110  56.0519218
  36.9486793  64.6194983  56.4137745  36.7357047  65.8593464  55.5721092
  99.0769100  54.3701935  82.0168686  99.2781258  54.7515678  81.1622906
  99.7180462  54.7610378  82.6105213  93.0946740 100.0524343  17.5797731
  92.2807797  99.9553932  17.0854169  92.8108462 100.1973595  18.4823686
  90.6892975  89.0266861  12.8389913  91.1366471  89.7456540  13.2853109
  90.5418356  88.3744205  13.5238534  82.4191475  95.0883007  73.5655117
  82.5959873  94.1626453  73.3978367  83.1402016  95.3719234  74.1275358
  55.3084755  28.0731828  13.8467866  54.3991470  28.3086020  13.6625845
  55.8185101  28.5670049  13.2047254  27.3678684  21.0903842  19.9766141
  26.7901564  21.3169915  19.2478258  28.2495546  21.1376960  19.6069795
  50.4695130  18.0716903   7.5293237  51.1942291  18.5659606   7.9123670
  49.6828175  18.5111148   7.8521997  51.9278622  26.2724215  15.0248891
  51.0338688  26.6068417  14.9529153  52.4166870  26.7493016  14.3541605
  52.8212500  45.7337332  82.3927689  53.6278820  46.1346054  82.0689106
  52.1941900  45.8464718  81.6784096  27.3724365   9.7516448   0.9670908
  27.1496678   9.4616801   0.0824815  27.2038269  10.6938512   0.9598714
  27.7612829   2.5158698  23.9261991  28.4255409   2.6674802  23.2538873
  27.7799988   3.3073575  24.4641859  64.7979021  75.6315756  84.5253944
  64.8441648  76.2074375  83.7621975  65.0321865  74.7670984  84.1877079
  33.5097686  77.7819313   3.3586771  33.1929104  77.4053396   2.5376874
  33.8645832  77.0364107   3.8429624  39.1628790   3.1081588   8.8790113
  39.3924380   3.2901484   7.9677373  38.6380530   2.3086793   8.8387186
  63.2728386  23.4252310  55.3481770  63.3568382  23.3353066  56.2974310
  63.0853224  24.3538380  55.2112198  80.9914780  87.9982948  86.0350513
  81.9167137  87.8074074  85.8809757  80.9597015  88.3173370  86.9369507
   0.0984518  68.1637801   3.6380083   0.2009432  68.7745763   2.9081708
  -0.1355847  67.3330630   3.2240469  99.9367714  71.9743490  73.4230423
  99.0810394  72.3067999  73.1520891 100.4714966  72.7591085  73.5432720
  18.5777084  88.6892475  16.2150938  19.2181293  89.3465270  16.4872724
  19.0796844  87.8765024  16.1543352  12.2391033  45.0604445  21.3309175
  12.3011685  45.7334048  22.0087797  11.8269110  44.3161017  21.7694074
  94.2993259  55.7201958  56.9587517  93.5356426  55.2679348  57.3171902
  94.4311714  55.3224182  56.0981560  15.4112999  99.3697609   3.7195474
  15.3268234 100.2820171   3.4422571  14.5115654  99.0822710   3.8746244
 102.6523972  63.8398695  52.8815269 101.8153095  64.2194414  52.6142359
 102.6727581  63.9502001  53.8321304  39.1955757  22.7754075  20.2030736
  39.1474724  22.3142058  21.0404569  38.2835484  22.9597241  19.9784166
   7.3711491   6.8969495   3.2293588   6.4561176   7.1742398   3.2747251
   7.8071928   7.3960692   3.9199907  78.5848427  61.5657282  83.9499950
  79.3940639  61.4351845  83.4556866  77.8892851  61.4780712  83.2982635
  35.1531386  44.3173265  80.0810719  35.6840014  44.9706697  79.6254826
  34.2851520  44.7158527  80.1443958  21.5577841   6.2262780   7.8503877
  22.1933890   6.6884953   7.3039514  21.2438870   5.5097682   7.2987443
  13.9409725  83.6812200  14.7535116  13.4938709  82.8625859  14.5386392
  14.8248951  83.5704388  14.4033033  49.0059567  17.8163678  12.9568941
  49.5452595  18.4386832  13.4448511  49.6261120  17.3500163  12.3964006
  36.9079677  52.6065153  19.5821840  36.4708416  53.3974981  19.2667562
  36.4978782  51.8943319  19.0914136 106.0151824  95.9449066   9.5441133
 105.5080422  95.1652779   9.3177969 105.9321888  96.0169281  10.4949838
  64.7051430  30.8699138   9.5230371  64.7238159  29.9391562   9.7457105
  65.6171799  31.1515815   9.5943243  58.2693100  55.7615954  17.0379812
  58.2770062  56.6688449  16.7329103  59.0635204  55.6796939  17.5659544
  60.4321957  66.2978458  60.4867649  61.0994959  66.3583469  61.1703444
  59.9822283  65.4717493  60.6637478  98.1443119  58.9548826  81.7339706
  97.5749969  58.9828682  82.5029469  97.5549889  59.1019344  80.9941673
   3.0661512   1.8315131  33.4814912   2.1800590   1.5025002  33.6325532
   3.2101178   2.4638469  34.1855222  55.7105732  61.1012077  86.9288540
  55.0353765  61.7757702  86.8560314  55.7534647  60.9053135  87.8648186
  22.7117920  32.1795470  31.7136747  22.9773712  31.2601668  31.6927320
  22.3157644  32.2948367  32.5774461  74.0566921  20.5247075  30.0037653
  73.1164932  20.5621964  30.1794035  74.2133045  21.2377078  29.3846208
 101.5961663  10.9011132   7.7890092 101.4509408  11.5918595   8.4355432
 100.8707587  10.9946448   7.1715433  78.7295580  74.8111677  69.7811842
  77.9297686  74.6475697  70.2809906  79.3985987  74.2870235  70.2215147
  79.2355871  48.1123257  88.0351734  78.9060307  48.9470339  87.7021790
  79.9020720  47.8478432  87.4010754  58.3992767   1.7829329   2.1610719
  57.8554249   1.9491917   1.3911230  58.3021736   2.5698382   2.6973421
  68.1571150  73.6165190  85.2876186  67.9940987  74.1616011  84.5178509
  67.3517275  73.6800337  85.8009911 107.9989108  92.4302782  11.1943609
 108.2158240  91.5326179  11.4461404 107.6371487  92.8213133  11.9896299
   9.0955019  28.3264977  53.3358079   9.8212671  28.3459575  53.9596063
   9.3236303  28.9875895  52.6822454  72.2040510  79.4489574  79.9318600
  73.1020451  79.1272545  79.8521662  72.2375441  80.3408051  79.5858574
  47.1879665  91.2643351  18.1991560  46.9700138  91.7434420  17.3996622
  47.9686157  91.7037262  18.5364038  32.2824955   3.3634622  15.1312048
  32.6671839   2.5449426  15.4446966  32.2924328   3.2829387  14.1774541
  35.4632378   7.8671271   0.8792669  35.8315611   8.5614783   0.3329641
  35.4736757   8.2286746   1.7654974  58.8569641  15.8111293  22.2292882
  59.6202278  15.4938228  22.7119619  59.2162514  16.4281756  21.5917951
 103.2303238  53.9988327  61.5627575 103.4786224  54.4459391  60.7536364
 103.6550522  54.5043612  62.2557831 107.0012569  27.2113252  77.4299526
 106.9627762  26.2560439  77.4767828 106.2897205  27.4508691  76.8361759
  25.2806711  15.6003768  17.8001577  24.4458914  15.2158267  18.0675489
  25.6518316  15.9531552  18.6088735  25.5008117  99.7115482  43.6628229
  26.1858455  99.7714294  44.3286878  24.7686760 100.2091373  44.0269834
  49.5220375  34.3510920  27.4993879  50.3546047  34.5683295  27.9187566
  48.8808727  34.3823058  28.2094366  84.7526749  84.8145594  44.5667058
  84.7938212  85.7293261  44.2878801  85.1872118  84.3303789  43.8645822
  58.1530476  22.6689631  10.3027994  58.4170342  23.5867316  10.3679353
  58.3099365  22.4390323   9.3869669  88.8475323  85.3453541  59.5749378
  89.5809650  85.8773422  59.8836517  88.1397247  85.5323982  60.1915836
  79.9093914  30.5159671  24.6359331  79.1698265  30.7540137  24.0768320
  79.7500420  30.9835154  25.4558355  64.1713047  71.3192129  73.8095617
  63.9955044  70.5959320  74.4113922  63.3171940  71.7285347  73.6710501
  89.6832752  46.3648319  84.8650169  90.2999687  46.7929602  84.2711830
  89.3418407  47.0749712  85.4084873   5.9543173  67.5136389  11.8008501
   6.5539304  68.1265415  12.2263414   5.6341116  67.9862465  11.0325128
  69.3904495  72.6155758  65.2711678  70.2025318  72.5695086  64.7665548
  69.1725445  73.5474586  65.2897406  70.0926781  12.3774917  24.7412092
  69.2591667  12.8386552  24.6473009  70.2514458  12.3594815  25.6849748
  88.5558987  44.7399044  64.6302271  88.8065815  45.1988888  63.8285255
  88.3308029  45.4378510  65.2453947  60.6754780  42.5446129  77.6432848
  59.9641037  43.1819057  77.7067614  61.4519262  43.0225515  77.9347277
  38.7142706  40.8631522  11.6407758  38.8176441  40.4489810  12.4975187
  37.9400158  40.4447562  11.2643415   1.9829154  12.9334123   8.3446580
   1.5551376  12.0772130   8.3319646   2.4406815  12.9600055   9.1848833
   8.5376159   3.4770148  45.1905680   9.2354194   4.0711158  45.4668713
   7.9811327   4.0092032  44.6219349  45.0747872  44.3220431  26.3862402
  44.8677921  45.2475173  26.2563211  44.3223858  43.9731223  26.8641168
  42.2595215  50.9886599  81.0203457  42.9737234  50.3516912  80.9997368
  41.4640713  50.4581547  80.9750175  49.3306446  14.8121459  24.7062665
  50.0598049  14.7321469  25.3212148  49.1738510  15.7542235  24.6419317
  85.9028339  63.7149334  84.8860645  85.2321148  63.6819792  85.5681801
  85.8585262  62.8565025  84.4649220  86.6363049  95.3655910  71.4670944
  87.4365139  94.9383163  71.1615896  86.4318752  96.0062981  70.7859707
  72.2161865  70.6529188  87.1794033  72.6382399  70.1854563  86.4585781
  71.4170837  71.0138607  86.7954922  31.5765738  37.9891324  65.5399227
  30.7864189  38.2032704  65.0439072  32.2744775  37.9765630  64.8849392
  21.3837234  70.2892686  16.0645753  20.4764930  70.5120994  15.8559877
  21.3160602  69.5461334  16.6640836  47.8746605  19.6974570   6.8312246
  46.9658566  19.5013148   7.0588857  48.1280327  18.9959723   6.2312585
  95.8664330  91.4611496   3.2232458  95.8559474  92.4075331   3.3663541
  95.0018843  91.2638058   2.8629190 101.4009190  36.4797163  65.9166479
 101.2522411  36.8161011  65.0329208 102.3374557  36.6079235  66.0673094
  14.4993583  62.2241498  11.5615541  14.8114769  63.1286837  11.5866643
  13.6093322  62.2874309  11.2150270  85.7604599  88.0010509  78.4171200
  85.6792259  88.1185150  77.4706364  85.4945564  87.0942593  78.5696268
   5.4580593  27.4261910  12.4854929   6.3726282  27.1482522  12.5360281
   5.4148865  28.2088620  13.0348474  80.4822826  49.7548008  84.3878460
  80.1013565  48.8842154  84.2729092  81.3395977  49.6987343  83.9658070
  42.4197769  16.4896399   2.8216440  42.1956206  15.9583814   3.5856802
  43.0313301  15.9470994   2.3237592  84.2792607  24.6190507   9.8809988
  84.1088295  24.4288785  10.8035070  84.6260166  25.5112368   9.8804647
  91.4529800  73.4381342  55.3568888  91.7675686  74.1961908  54.8643255
  90.5034828  73.5535860  55.3935814  21.9270468   9.7995717  46.1525136
  22.7032471  10.3307874  46.3301546  22.1299982   8.9445502  46.5319616
  22.1503925  35.5353743   0.8535558  21.6413212  35.0045497   0.2409345
  23.0517101  35.2336890   0.7402116  43.5566521  23.4473235   3.7595636
  43.1986618  23.3537871   4.6423608  42.7899361  23.5866649   3.2037145
  67.9303837  48.9047725  20.3040773  67.7166844  48.0461413  20.6691915
  67.2980404  49.0281398  19.5961553  81.3036156  46.8195057  86.5752888
  81.0955143  45.9596825  86.2097359  81.8796635  46.6316843  87.3163128
  75.4851341  40.9512138  64.6465349  76.1751699  40.9587574  65.3098822
  74.7637606  40.4741573  65.0567389   0.4799485   7.0850617   9.5563776
   0.2656031   7.2515160  10.4742986   1.3719893   6.7385966   9.5777494
   9.8484222  92.2736706  48.7996561  10.3679458  92.9026712  48.2989675
   8.9808933  92.3046793  48.3963377  84.6178436  65.0997734  63.1059551
  84.5513535  64.3779802  62.4807930  85.5504513  65.3144455  63.1256390
  28.8167715  18.0026490   8.8546449  29.2442227  18.8512093   8.9706880
  29.4421530  17.3692901   9.2067606   5.5164568  97.9961170  22.1561319
   5.1522199  98.8311495  21.8623811   5.4172556  97.4134363  21.4032156
  36.3823748  45.3149802  26.9795686  37.0354510  44.6189887  26.9066125
  35.6614590  45.0265891  26.4198000 102.8870066 101.6212667  33.6086446
 102.8922900 100.7366146  33.9741403 102.7779301 101.4906038  32.6667005
  50.7027626  29.4488532  41.0902387  50.3441334  28.6519200  41.4807683
  50.3586674  29.4536693  40.1970369  65.9205341  59.2528915  82.4822521
  66.4200783  59.6957111  83.1682491  65.8881474  59.8846197  81.7638493
  52.4198628   7.1470792  35.1684362  51.8083573   7.8590114  34.9801904
  51.8791962   6.3572986  35.1557428  33.1009102  37.1766765  47.3514825
  33.9123774  37.1472461  46.8446428  33.0120564  38.0944926  47.6082784
  32.1798039   1.0803325   5.6127340  31.8832636   1.8845469   6.0388071
  31.4176130   0.7748134   5.1208383   5.9538404  95.9875359  62.7409059
   5.0353090  96.1315645  62.9684621   6.0099928  96.2187399  61.8137437
  59.4560178 100.4280151  11.8347341  59.7273119 100.1138891  12.6972658
  59.9567302  99.8948587  11.2172681  94.2288693  78.3087005  13.8708288
  94.9788722  77.7686871  13.6216051  93.5969313  77.6880826  14.2337591
  76.5790176  63.9195108  71.0582685  77.4576092  63.5725784  71.2130213
  76.3116884  63.5316420  70.2250051  89.1231918  42.9831505  61.6603088
  89.1922092  43.9353323  61.5909052  89.1879272  42.6718760  60.7574511
  14.8483642  61.5227795  47.5509262  14.8468002  61.7853832  48.4713936
  15.3753455  60.7239580  47.5306511  78.8792801  36.4558220  82.1088982
  78.3831501  37.2500634  82.3070526  78.3508682  35.7460332  82.4738884
 100.1822567  18.1156301  82.5033855  99.3654728  17.6665294  82.2856617
 100.8392143  17.7032065  81.9425297  13.8665946  77.1675491  74.9933052
  13.7681754  76.4414930  74.3773556  13.0214675  77.2191048  75.4397774
  49.3080282  37.7807927  84.0479565  49.6474504  37.5401974  84.9100113
  49.7210741  38.6222744  83.8542271  87.9398155  40.0507069  85.2344227
  87.6461792  40.9472847  85.3961468  88.7761211  39.9857306  85.6955147
  83.6275578  47.8386021  59.1022301  82.9994965  48.4156466  58.6677313
  84.3857670  48.3966970  59.2750788   8.9161865  91.3871159  29.0531904
   8.5455791  92.2108759  29.3698961   8.3820144  91.1612524  28.2916910
  64.7117090  64.4998455  47.6445484  65.4531670  64.9923611  47.9965401
  64.0822983  64.4670343  48.3649635  48.1228256  22.1031529   1.7345220
  48.4153176  21.4471919   2.3672945  47.2502995  22.3552138   2.0368272
  68.5353947  48.6808205  80.5612564  69.0616083  49.3451929  80.1163483
  67.8676748  49.1797400  81.0318470 106.9301566  75.1247491  16.0873491
 107.4142321  75.3385581  15.2897340 106.8845900  75.9509195  16.5685922
  55.1512098  27.7406144  73.6716938  55.3378868  26.9261551  74.1386366
  54.4045925  28.1177688  74.1370440  17.5993443  19.8249156  39.6345693
  17.1058798  19.7684676  40.4528219  17.7623940  18.9139993  39.3898756
  36.7898607   8.3826024  22.7178651  36.2873268   7.7982671  22.1502000
  37.3001576   7.7948577  23.2749826  13.4266329  10.5803067  19.5365602
  13.0852652  10.3151566  20.3906042  13.0753517   9.9318320  18.9263803
  80.3843880  28.8582611  71.9729757  80.0555229  28.1118655  72.4739456
  80.8456612  28.4649658  71.2321806  23.4490005  98.3787121  33.7282449
  23.6736385  97.6296390  33.1762773  24.0402404  99.0742411  33.4403116
  50.1190281   6.2661321  21.4719659  50.7177067   6.9417865  21.1536676
  50.1297569   6.3657672  22.4239046  97.4744861  16.9975573   9.8817903
  97.4827902  17.4025590   9.0145380  97.2941796  17.7209002  10.4822141
 105.6670777  14.6677405  11.2796575 105.8039276  14.2838151  10.4135686
 105.6098096  15.6094319  11.1178762  65.6478596  27.1636397  36.2654859
  66.0139942  27.7726943  35.6242162  64.9325466  26.7286403  35.8014375
  59.7389221  67.5957537  69.2990494  60.6629038  67.8186226  69.1858435
  59.5583153  67.7836847  70.2200794  19.2224677  62.8733444  86.6423702
  18.4891875  62.6075459  86.0875130  19.6748050  62.0555925  86.8495083
  97.8497227  92.4165834  27.9433805  97.7736815  93.3503164  28.1398374
  97.3971661  91.9820942  28.6663229  65.0023111  84.7442044  18.6517030
  64.4153913  84.1704358  19.1441900  65.8242877  84.7236003  19.1417581
  85.9137058  51.0740376  71.9704199  86.1847973  50.8935595  71.0703278
  86.7073441  50.9456062  72.4899101  72.2522831   2.0252425   3.1816274
  71.6114617   2.6781804   2.9001314  72.1283627   1.2924392   2.5784093
  81.0065556   8.6863810  21.5875227  81.3315964   7.8236205  21.3301736
  80.0701237   8.5550124  21.7360670  72.3507881  59.0615654  78.4513187
  71.8139696  59.0659618  79.2438078  72.9652786  59.7851086  78.5742569
  34.2994261  30.9536368   6.4391309  33.3535147  31.0952956   6.4766389
  34.3952656  30.0679023   6.0890752  65.3254509  24.1722638  39.4318372
  65.9567642  24.6581942  39.9624521  65.6315613  24.2853553  38.5319883
  35.4478312  28.7113864   8.8356668  35.7748366  27.9650170   9.3378908
  35.9870720  28.7227113   8.0448896  53.9151383  15.1299865  28.7830907
  53.4097958  15.4142100  28.0214674  53.5127640  15.5870063  29.5216352
  63.7123728  64.4061995  76.7204380  63.9868593  63.5424566  76.4124870
  63.1852531  64.2265463  77.4989605  14.8518181  43.4112937  10.6789381
  15.2023840  43.4356696  11.5692979  14.4882727  42.5304324  10.5886919
  14.7990513  41.9119746  19.4312364  14.3284369  42.5947005  18.9530641
  15.6872416  42.2556693  19.5272619  50.6259060  23.5657651  11.6888982
  51.4767075  23.9448935  11.4683706  50.1625729  24.2671449  12.1467477
  45.8316040  39.3803031  10.7399828  46.2941837  40.2069003  10.6021673
  45.8605671  38.9447219   9.8881227  66.5782738  30.1930625  15.6386453
  67.5197983  30.3507716  15.5686456  66.4428520  29.3531424  15.1999933
  96.7281818  57.9371071  62.7640009  96.4458561  57.0568991  62.5154829
  97.5177860  57.7967691  63.2865477  62.7209473   8.5722072  17.6148874
  62.0223427   8.7560803  18.2428819  62.6404953   9.2636496  16.9578725
  86.1956882  94.9698067  84.3047237  85.8333778  94.1173458  84.0633297
  85.4285431  95.5201054  84.4625092  37.6560688  33.4354503  17.4487478
  38.5432911  33.3822829  17.0934373  37.4676275  34.3732936  17.4830991
  80.7753181  99.0051270  73.3534575  80.7633305  99.8799610  73.7417412
  80.9124565  99.1597652  72.4188375  89.3067646  56.4198787   2.4487192
  89.8884392  55.9955699   1.8179590  88.9855862  55.7042987   2.9973775
  83.8066292  99.4264698  84.3703938  83.3042049 100.2411652  84.3787575
  84.3126297  99.4487762  85.1826096  87.3215580  66.5194988  43.3614588
  87.5781727  67.1436262  42.6826000  87.8460407  65.7395315  43.1803465
   3.6924982  44.7356326   9.8386365   3.4285355  44.5011813  10.7283479
   2.8894472  45.0544936   9.4267255  57.2474957  31.7902476   8.3640939
  56.3482475  31.7736060   8.0365259  57.1887779  32.2495467   9.2018491
  97.1990585  28.1837130  80.8597469  97.0634079  28.9828968  81.3687992
  98.0993176  27.9245257  81.0561943   4.3583282  90.3326035  55.6209326
   4.9634059  91.0703182  55.5441761   4.8328670  89.6871281  56.1447906
  31.6987658  30.5041034   7.1211416  32.2505570  30.1740462   7.8302366
  31.0233069  29.8347384   7.0118791  26.3457823  40.2318103  15.5777437
  25.5980873  39.8368556  16.0262949  26.6395712  40.9260375  16.1676199
  69.3155479  51.5167427  82.0686436  69.6148157  52.3956156  82.3015690
  68.6042166  51.6633463  81.4451504  89.8683453  90.4922104  48.9254475
  90.0101185  90.0701904  49.7728157  89.4015694  91.3009834  49.1357899
  57.8080940   6.2473590  21.1011583  58.0096722   6.2191731  22.0364648
  56.8523026   6.2824733  21.0630781  75.4256916   4.4814879   6.5981752
  75.1680565   5.1797015   7.2001344  74.8831940   4.6219880   5.8221704
  41.4281225  16.3770778  13.9413816  40.5389309  16.0320432  13.8606721
  41.8113232  16.2572390  13.0724508  82.2883415  74.6295977  87.3073578
  81.9613552  74.4814873  86.4200211  83.0314159  74.0321255  87.3916245
  93.7677383  83.0829525  62.1620035  94.3421936  83.6505699  61.6481543
  93.8370895  83.4181023  63.0559254  93.1230736  89.4000053  84.8095798
  92.5311089  90.0512505  84.4331646  92.6093197  88.5926151  84.8296928
  47.1020031  24.9707372  19.4586164  46.1959362  25.0988681  19.1777975
  47.1331310  24.0628678  19.7603399  27.8994552   3.3096259  77.1389961
  28.5285465   3.9322226  76.7745304  27.0594780   3.7669032  77.0993280
  91.3849449  78.5701227  79.4974232  91.9971180  78.8199711  80.1895523
  91.9380283  78.4226608  78.7302303  29.3325798  36.7081588  70.5591297
  28.5754291  37.1874278  70.8956480  28.9560882  35.9570544  70.1005030
  28.0052281   0.5730636  36.4568502  28.7020111   0.2533919  37.0300371
  27.2277785   0.5960137  37.0147783  58.8841105  66.3725853  54.9721050
  58.1061316  66.9302082  54.9783087  58.6712408  65.6713104  54.3563700
  94.3944836  93.7421513  68.6629868  94.8113346  93.5343361  67.8267574
  95.0389576  94.2780590  69.1252375  32.6354838  12.1962125   1.7329675
  32.7042723  11.5636403   2.4480516  31.9924307  12.8354556   2.0396978
  25.5560303   6.4521367   0.2089960  25.8289099   7.3271806  -0.0668162
  25.7329178   6.4314086   1.1494810   0.3714927  56.2340212  70.7579279
   1.0156139  55.6083155  70.4265261   0.0389369  56.6728020  69.9749184
  61.7827884  93.5065473  13.8220865  61.3291637  92.6636709  13.8259107
  62.1807758  93.5604061  12.9532129  85.4272842  77.6563883  64.3864870
  85.6867123  77.1423483  65.1511383  85.9503746  77.2989941  63.6689329
  68.0426264  79.3110132  64.9926949  68.5634470  79.5219946  65.7675934
  67.1347523  79.3874836  65.2862120  82.5250340  80.9379578  59.0913248
  83.2587051  81.4980221  59.3448782  82.1202469  80.6834602  59.9205446
  54.2742253   7.5002677   8.2182580  53.5354519   7.4915606   8.8268358
  54.0955925   6.7793900   7.6143915  63.9414978  66.1963946   8.2489664
  64.6868611  66.4176375   7.6906473  63.3333492  65.7405574   7.6670724
  46.3306046  11.4232070   7.9430753  45.6739712  11.9270760   8.4238893
  47.0408917  11.2940604   8.5716039  57.8884125  96.5876198  75.8710957
  57.2461224  96.0011196  76.2707424  57.4343777  97.4272728  75.7999659
  81.1387253  42.3057849   1.9418508  80.8973503  42.8913981   1.2241918
  81.3436794  41.4744288   1.5139944  42.0823145  38.2591159  22.8377992
  42.0839977  37.5612361  22.1826631  42.2138119  37.8060824  23.6706811
  58.5480690   3.7791211   4.0018827  58.0904675   3.3015305   4.6937925
  58.3244324   4.6969516   4.1561586  94.2467594  81.9258690  72.7017403
  94.2188931  82.7246571  73.2284307  94.8715591  82.1211338  72.0033741
  72.4884796  64.5382643  73.7488461  72.7046394  65.1823044  74.4231796
  73.1598616  63.8620567  73.8394785   1.0119518  82.5026798  86.7542934
   0.5198463  83.2517529  86.4181900   1.3296397  82.0537949  85.9708309
  46.4009762  38.1704718   5.3276807  45.6227303  37.6395614   5.1582700
  46.7247868  37.8580481   6.1725313  37.1602535  21.3726193   1.0603982
  36.9477558  20.7769877   0.3418523  36.6952276  21.0124356   1.8155557
  96.5339565  37.6679904  16.5824396  97.0614243  38.0368525  17.2909242
  95.7663250  37.3013408  17.0212347  87.8167534  31.3249022   5.4970533
  88.2812214  30.4995734   5.3580457  88.4670353  31.9009501   5.8989603
  37.8673411  31.7380244  10.8971578  38.0234385  32.6770408  10.9976560
  37.1003342  31.6823680  10.3272134  20.1645756   3.2608802   7.4294168
  20.3317404   2.3255784   7.3132116  19.4763279   3.4617860   6.7952425
  86.4813709  76.4459848  66.9024897  87.0064640  76.0181904  67.5788689
  85.6177044  76.5522718  67.3012543  67.5406838  20.6369883   2.7998811
  67.2099686  21.5273339   2.6809293  67.4808598  20.4832513   3.7427599
  73.7811232  58.3169889  72.0924139  74.5934677  57.9082298  72.3911476
  73.3267307  57.6243448  71.6128254  90.2072716   1.7432172  11.3791067
  91.0645104   1.4979894  11.7273122  89.6749211   0.9535272  11.4751417
 100.9166145  54.4287920  37.3985934 101.0745811  55.3196907  37.7109671
 100.0534534  54.2029476  37.7452803  37.3810530  11.2384183   5.8990652
  37.8457403  10.4562384   5.6015855  36.5563488  10.9065778   6.2540037
  74.3209505  72.9528904  75.8182192  73.5506439  73.2461405  75.3315306
  74.0043354  72.2232389  76.3507557  58.8374805  71.3960600  74.4169521
  58.5007048  72.1961594  74.8202515  58.2715940  70.7014704  74.7539330
  20.5287552  38.5183341  41.1139280  20.8616972  39.3478495  41.4564020
  19.8842859  38.7732131  40.4536802   7.5207408  84.8029423  77.0038986
   7.3952563  85.3756618  76.2472725   6.6408332  84.6807766  77.3603630
  92.9887104  99.4152451  68.1543636  93.1403255  98.7264824  68.8015509
  92.2086716  99.8721027  68.4690666  91.4903164  96.0988617  78.4945488
  91.6025066  96.0549450  79.4441366  92.3810482  96.1686802  78.1511116
  31.2664795  28.3720786  16.8175775  31.5213299  28.7825543  17.6438886
  30.3207064  28.2461841  16.8943578  52.2175694  35.3755195   4.6561128
  52.6033783  36.0933406   5.1582319  52.9247761  34.7362239   4.5700628
  53.0087280  28.6994082   4.4068605  53.6535168  27.9924876   4.3796426
  53.1651688  29.1341311   5.2451784  28.7579719   1.1623042  65.9650564
  28.0156128   1.3447802  65.3889942  28.5511390   1.6260379  66.7764711
  25.7366657  54.1283900  30.8460504  24.9027348  53.8787658  31.2441427
  25.6607294  55.0717265  30.7025892  41.7439413  21.6950757  11.5015394
  41.1924839  21.4645965  12.2492010  42.3957491  20.9953267  11.4599496
  81.2316227  28.4931046  21.8890173  81.4509583  28.7711388  22.7782995
  82.0739842  28.4520251  21.4362890 100.4750164  91.0235466   8.1890375
 100.4478320  91.0840954   7.2341424 101.3539990  90.6982483   8.3834821
  27.5686026  35.1500708  18.8265306  26.7014218  34.8591716  19.1086656
  27.8859520  34.4449431  18.2623273  84.4714165  76.4517164  74.2842102
  84.2230892  76.9101191  73.4814453  83.6846542  75.9689140  74.5374775
  23.4199476  25.7366759  23.3737737  23.2347965  26.3935382  24.0449602
  23.5532761  24.9250132  23.8633234 102.7944946  30.0251150  79.8247814
 102.2434044  29.8846459  79.0548468 103.6843777  30.0774074  79.4760656
  44.5914555   5.8944852   2.1634370  44.6100426   6.6568381   1.5849000
  45.1391220   6.1450059   2.9074270  44.3057823   4.0385634   9.5733339
  43.8227368   4.6399505  10.1401025  43.6265946   3.5540206   9.1041166
  57.2058296  40.1008326  21.7587453  56.3052654  39.9421794  22.0416814
  57.2189808  39.8326976  20.8399564  49.8233032  90.0448513  87.3807526
  49.8397541  89.8977184  86.4350700  50.7456446  90.1007366  87.6305294
  81.1435795  67.8129005  79.4810200  81.4531994  67.4632454  80.3165436
  81.2683201  68.7589455  79.5563030  16.3612509  52.4652106  42.2097856
  16.9132853  53.2401282  42.1048910  15.8931494  52.3902709  41.3782198
   0.7198850  93.3245291  35.5291254   1.5810768  92.9460873  35.7062036
   0.5639021  93.1418098  34.6025640  76.9670820  56.5578651  80.3851509
  76.3862467  56.3746166  81.1235905  76.7409039  55.8953381  79.7323656
  74.3623734  79.9890566  68.0346775  74.4468880  80.5762863  68.7858438
  75.1188564  80.1931095  67.4848318  -0.0859888  17.0244067  71.6092920
   0.7085029  16.5499251  71.8539906  -0.0231846  17.1227973  70.6592369
  62.1731568  17.5769479   2.6161558  61.3746071  18.0491740   2.8518659
  62.7335358  17.6536137   3.3883745  60.8015013  95.4303265  85.5491638
  60.6324148  95.9835052  84.7865105  61.5785789  94.9247932  85.3108025
  89.7818184  69.8338318  86.3932228  90.2541637  70.6662083  86.4096546
  89.4788361  69.7125673  87.2930717  29.9989883   7.5713580  50.5842400
  30.6639282   8.1359237  50.9783936  29.4149772   7.3472827  51.3087749
 103.1082153  48.0817509  65.2472591 102.9744148  48.8369370  65.8199930
 103.4634304  48.4534407  64.4398546  16.6477482  23.3557074  78.3438969
  16.9261924  22.4440806  78.2564974  17.4090568  23.8661712  78.0680895
  82.6986980  59.0429592  81.0033131  83.2489872  58.3858204  81.4294434
  83.0627060  59.8812342  81.2879562  78.5853720  93.0426025  75.1723576
  77.8512144  92.4595642  75.3655100  78.8731956  93.3572865  76.0293102
  77.7942467  61.5150649  17.3832494  77.5805092  60.5840022  17.3225862
  78.5860825  61.5445430  17.9202348  86.9985580 100.4023647  59.6551371
  86.8382740  99.5622063  60.0848579  86.1287498 100.7883739  59.5518684
  71.1110258  99.5899773  58.4217262  71.5852642  99.4663048  57.5995159
  71.4881563 100.3849983  58.7985039  52.7409554  43.6567695   3.6515314
  52.3130512  43.6462504   2.7953607  52.4421692  42.8538615   4.0784914
  71.4147282  53.7844801  85.3180599  70.5059385  53.9995861  85.5279732
  71.3739395  52.8990793  84.9566174  64.2748642   9.2629296   6.2544042
  63.8663769   8.4013850   6.1701089  63.6326790   9.8695714   5.8858758
  85.6830883  71.4931870  81.5790749  86.0889053  71.5379715  82.4448299
  84.9364376  70.9054899  81.6946507  79.0927410  65.6543207  82.4886131
  79.2327261  66.4770460  82.0198250  79.7368383  65.6694269  83.1965256
  48.7708378  23.5937745  44.0387804  48.9777374  24.5283419  44.0349752
  49.0042210  23.2932193  43.1604654  99.4713497  61.2156582  80.8337212
  98.9754963  60.4813242  81.1958122  99.5338631  61.8414593  81.5553093
  64.1573906  33.9314563  19.3308527  64.5740605  33.7582404  20.1750165
  63.5832024  34.6792704  19.4961244  16.7930690  95.4872955  31.3262159
  16.0812084  94.8524155  31.4062673  17.0721237  95.6491484  32.2274190
  58.2809067  18.5281903  28.9863283  58.8334179  19.2753465  29.2159444
  58.7224102  17.7745301  29.3778593  45.5882645  29.6595866  10.1073820
  44.9464226  30.3303439   9.8742181  46.3266373  29.8200900   9.5197851
  46.5512943  24.4126756  23.0917150  46.0275841  23.8647372  23.6762983
  47.2145462  24.8038203  23.6603433  27.5365345  63.6525489   4.6211225
  28.2470600  63.2692923   5.1354105  27.9272548  63.8258149   3.7646467
  47.0725632   4.5895106  13.1456071  47.0284653   5.4052884  13.6443979
  46.2271309   4.1681725  13.3003313  72.3799610  36.3155753  11.7387468
  72.8384876  35.6226642  11.2635023  71.6214848  35.8787734  12.1262247
  73.8419533  81.1729240  62.1102858  74.2369843  80.9138203  62.9427814
  74.2656469  80.6131363  61.4596224  88.0879975  27.3170907  30.6700212
  88.5729218  26.5722663  31.0254461  87.3435879  26.9231803  30.2151376
  92.8198624  74.5805502  87.6689339  93.4718990  74.9038649  88.2906723
  92.1339893  75.2482271  87.6722908  39.3898726   2.7836854  44.1900713
  38.6752606   3.2255418  43.7314493  39.6245527   2.0519740  43.6193258
  68.6736012   7.1997554   2.1173841  68.6295319   7.4170691   3.0485517
  67.9719448   6.5619046   1.9868356  13.6050598  96.4647640   1.1763174
  14.4282715  96.6882528   1.6106016  13.5065643  95.5234732   1.3195116
  94.0672112  76.3338518  81.1647701  94.7264767  76.9529724  80.8512688
  93.6952877  76.7526436  81.9409943  15.3309433 101.5934242   6.6659814
  15.6825248 100.7069696   6.5833742  14.3911449 101.4934505   6.5142614
   1.1164268 101.2445068  72.9135990   0.6090625 102.0127869  73.1754303
   1.9951995 101.5841198  72.7443123  32.6557255  62.1230323  13.7218744
  32.6536036  61.4216143  14.3732053  31.7296362  62.3104102  13.5686380
 101.7230702  45.7864386  44.2932302 101.1120796  46.4878280  44.0674383
 102.1796227  46.1076075  45.0708086  35.2958568  76.2786531  71.9176817
  34.5907291  75.6440258  72.0452690  35.6824096  76.0409737  71.0748768
  96.0306223  74.8304874  63.5508013  95.3376969  74.2811901  63.1842470
  95.8983620  74.7828800  64.4976234  54.7227001  14.5457292  87.7947807
  53.8888597  14.6985185  87.3502541  54.8273516  13.5942984  87.7871990
  16.6832296  99.1455004  47.8033972  17.2612897  99.8771370  47.5870848
  17.0494834  98.4014521  47.3253965   4.2553989  61.6109473  79.9315310
   4.5754901  60.7089479  79.9188137   4.8677246  62.0902807  79.3733788
  85.5790337  67.1813859   2.8598291  84.9775752  66.6772665   3.4078676
  86.3040265  67.4054564   3.4432775  47.9535103  35.9202957  72.4967098
  48.2379150  36.0485005  71.5917730  48.3048630  36.6760087  72.9675388
 104.2402991  59.1076285  85.4686356 104.1043576  60.0531060  85.4067898
 105.0997313  59.0156180  85.8798981  85.3427990  29.9658932  20.4411775
  85.4703864  30.5670966  21.1750108  85.2780016  30.5346860  19.6740419
  85.6549700  54.8185499   5.3163034  86.0922726  54.9487351   6.1577589
  85.9870776  53.9778827   5.0013143 106.0875805  61.8164696  23.4039861
 106.9629725  61.6445555  23.7509233 106.2138518  62.5293697  22.7778322
  61.8198427  21.5386785  26.8772775  62.4319466  20.9327425  27.2948915
  60.9585556  21.2635030  27.1914369   9.1976539  98.1152622  62.6298714
  10.1385204  98.0178071  62.4832010   8.9195529  98.7607677  61.9800949
  76.4055451  36.9077922   0.2413446  75.5313858  37.0099677  -0.1350134
  76.3550290  37.3510910   1.0881979  90.2608737  36.7249741  22.9832250
  90.5985363  37.6148213  22.8813154  90.9957560  36.1608912  22.7424222
  96.4654644  44.5425381  32.8830511  96.9680317  45.2801509  33.2288629
  96.1685236  44.0695782  33.6604673   3.7523905  94.0905274  76.8949175
   4.5497219  94.5775194  77.1030807   3.6017839  94.2635716  75.9656143
  31.4686775  35.9418035  83.9998627  30.5121708  35.9378600  84.0361023
  31.7195010  36.7813396  84.3852139  99.3144067  98.1904001  82.0657825
 100.1875790  97.9211960  82.3509693  99.4456204  99.0547801  81.6760921
  97.1576794  64.9680294   1.8315202  96.3855036  64.9622346   1.2658865
  97.7172097  65.6532599   1.4659769   3.4960143  93.7450016  61.9787979
   3.0497233  94.1726173  61.2479067   4.3651191  93.5334433  61.6380167
  56.6029024  26.3716865  65.2032375  56.7597103  26.3736439  64.2589712
  57.4576616  26.1769962  65.5875731  63.0869158  58.2798935   3.4256822
  62.4572857  57.6634587   3.0517751  63.0750903  59.0268697   2.8272516
  63.9743185  22.1211052  69.6305132  63.6179590  22.9704309  69.3699646
  64.9190283  22.2647095  69.6864319 103.6245712  94.9274678  67.9714489
 102.8263958  95.0471980  68.4860468 104.3281301  95.2260197  68.5477352
  33.2031003  97.6262919  42.5020027  33.2735435  98.5588653  42.2981024
  32.2809450  97.4174903  42.3528004  76.4220762  10.6230140  63.8642454
  76.2619638   9.7309977  63.5561848  76.9714785  10.5133772  64.6403694
  21.8421197  18.6671364  42.4498320  21.2701130  18.1451666  41.8871689
  21.8477011  18.1997871  43.2851648  35.6873035  28.6967182  77.2010326
  34.7459316  28.8433313  77.2935104  36.0704231  29.5733523  77.2321033
  14.3482296  78.3577139  62.6420307  14.4853822  79.2253978  63.0222225
  14.4624225  77.7538807  63.3759117  33.8847995  16.9094563  67.4815798
  34.3979025  17.5722086  67.9438734  34.3676925  16.0943639  67.6182222
  57.1586450  54.0881394  14.8511201  57.3477396  54.5525415  15.6664735
  57.5254329  53.2138680  14.9828416  83.9640482  61.3113262   4.3590147
  84.6763905  60.6795581   4.4573480  83.1689175  60.7784273   4.3638307
  90.3297528  36.5424313   4.4351179  90.4826792  35.5997683   4.3700677
  89.4746073  36.6176893   4.8585493  61.4597559  30.3653979  71.0807848
  60.8660412  30.5062461  71.8182755  62.2897482  30.7482433  71.3649845
  53.6329528  69.6622147   2.0799047  53.4428426  70.4578687   1.5828878
  53.3885451  69.8778690   2.9798967  52.3722192  43.6558361  10.6941396
  53.2791229  43.5813869  10.9911520  52.2804030  44.5719178  10.4322320
  40.0341320  15.6197166  32.4386644  40.3098774  16.3663566  32.9703832
  39.1748357  15.8711290  32.1000886  37.2151613  28.4632158  73.2368755
  36.8920493  29.3631697  73.2806396  37.6038933  28.3904266  72.3651981
   2.5147668  89.6301467  77.6742411   2.9793326  88.8384587  77.9456043
   2.3368398  90.0954802  78.4915781  13.5730783  95.1697893  50.5826378
  13.7241832  94.7282852  51.4183855  12.6293317  95.3284807  50.5627823
  50.7930994  14.5665383  65.8558989  50.9539604  15.4581690  66.1646891
  49.9239826  14.6044886  65.4566240   9.3714992  77.5169195  26.9702894
   8.7757198  76.7708267  27.0382768  10.2171985  77.1284808  26.7463476
  54.3081808  16.3852072  65.8259344  53.7498999  15.9047842  66.4372826
  53.6951923  16.8266678  65.2380657  33.4257817   6.2623245  87.5048733
  32.7250338   5.8219594  87.9857635  34.1874266   5.6935316  87.6171303
  28.2909703  34.8812437  59.4364452  27.9577971  35.7280087  59.7334576
  29.1826463  34.8401093  59.7820663  53.5911914  55.4394685   9.9479372
  53.1242164  54.7904621  10.4742033  54.5158752  55.2201201  10.0623018
  82.5479420  40.9818949   5.4827100  82.8659543  40.8104648   4.5963079
  81.9884356  41.7531676   5.3914529   9.9977962  80.9085955  21.5120584
  10.3103058  80.1317586  21.9758398  10.1689521  81.6323341  22.1146757
  11.1674968  79.7262062   4.2404348  11.8742744  80.3679336   4.3102914
  10.7398788  79.9304475   3.4087736  28.4387589   3.8746113  70.8988953
  29.0729403   3.6989713  71.5940237  27.6616716   4.1927341  71.3584232
  57.1357401  55.0692884  33.7446386  56.5477952  54.9609803  34.4921762
  56.6311820  54.7528897  32.9952699 100.0621064  99.2123399  65.2907419
 100.9518131  98.8860590  65.1558542 100.0801881  99.6031452  66.1643410
  40.0464002  99.8903499  85.3357601  39.3273059 100.1056289  85.9297180
  39.7844068 100.2674765  84.4958973  42.3868895  10.8310640  70.2360487
  41.5968132  11.3435626  70.0647116  42.2500086  10.0129855  69.7583008
  28.3201496  93.2360507  43.8915873  27.7044622  93.7411601  43.3605289
  28.4871332  92.4457420  43.3780098   5.2331106  83.9057560  78.3306599
   4.4961111  83.9532692  77.7217197   4.8942701  84.2752404  79.1460752
  68.3026441  29.3006958  24.8889619  68.7723454  28.4890522  24.6969968
  68.8159855  29.9826755  24.4558126  36.8761969  27.3915172  63.5417366
  37.3411894  26.8481207  64.1779232  36.5029883  28.1030893  64.0619373
 106.2839349  92.9704029  79.7620773 106.3522204  92.8574891  78.8140154
 106.5732725  92.1330334  80.1244640  67.2162517  73.1316818   5.7403356
  67.7639636  73.9055218   5.8723051  66.6078933  73.1399859   6.4792997
  29.7335196  34.9141264  39.1180515  28.9157867  34.4471979  38.9462328
  29.5740652  35.8020902  38.7981653  87.8975543  58.8699110   2.6782018
  88.4716805  58.1207271   2.5190431  87.2841366  58.8619394   1.9434339
  48.8587999   8.7130749  46.3000584  47.9633093   9.0511966  46.2986279
  49.2816067   9.1516876  45.5617571   2.5224320  90.9831304  31.3341856
   2.7043096  90.0533170  31.1978030   1.6265885  91.1008114  31.0181999
  23.4675288  21.8849993  82.5791931  23.7292528  22.1867633  83.4490585
  23.8685584  21.0199380  82.4950695   6.0335866  66.3970239  50.3122330
   6.3835422  66.6942579  51.1521244   5.5900184  67.1650798  49.9522781
  47.1635246   4.6031916  28.7800670  47.5261211   5.1684755  28.0980039
  46.3097286   4.9868399  28.9802647  91.8318804  40.9413738  11.2577039
  92.1952685  41.8032493  11.4610559  92.4872836  40.5323733  10.6925565
  25.1439802  96.0378236  58.3764315  24.6901456  96.8345792  58.1017542
  26.0034601  96.0957707  57.9590988  15.3067438  82.3870880  68.3845329
  15.8586732  81.6318423  68.5875416  14.7255889  82.0790190  67.6891279
  24.5262432  51.6965961  87.8879929  25.1954842  51.9316816  87.2452736
  24.5184660  50.7394266  87.8864956   7.9784624  77.1855814  80.6305504
   8.5002510  77.5861032  81.3259220   7.1187679  77.0446093  81.0271358
  85.7630929  67.8479256  13.0380613  86.2610777  67.8859211  12.2214872
  86.4236125  67.9330517  13.7255937  14.3706504  84.1997463  76.6269636
  13.8624708  83.4785456  76.2556744  14.9353258  84.4887836  75.9101391
 103.7835177  86.7897762   8.5724622 103.2796200  87.4140729   9.0945512
 103.2322939  86.0080708   8.5360605  17.4287772  29.3361783  79.6615553
  16.7663646  28.7217426  79.9776411  17.2271597  30.1573992  80.1100922
  76.0290392  51.5366682  19.3415433  75.8924278  52.1936421  18.6589319
  76.8941840  51.1726095  19.1538698  94.1371211  36.9857599  17.6434404
  93.5453757  36.7385317  16.9328481  93.5723456  37.0516695  18.4134561
   4.5859853  67.0623876  25.7803518   5.3409282  66.6665579  26.2157995
   4.7143118  66.8655480  24.8524457  64.2803200  36.8556370  18.0596525
  64.4811758  37.7036978  18.4554845  65.1070555  36.5714563  17.6698095
  47.8932524  45.4375124  81.9342232  48.3109522  44.5797443  81.8568039
  46.9552994  45.2522182  81.8879032  52.4219581  56.8502523   7.8055841
  51.9091614  56.2096919   7.3126775  52.9094418  56.3278146   8.4424860
  30.9831667  14.0106714  83.0809593  30.4677367  13.6700451  82.3498440
  31.7691112  14.3727303  82.6717758  72.6346159   9.1416377  70.2994156
  72.3807383   8.2477224  70.5289650  71.9032288   9.6823877  70.5975628
   7.2796671  77.3419131   4.2277986   7.9739324  77.4900807   4.8698885
   6.7149631  76.6838802   4.6331865  92.8830989  99.0045816  33.7733316
  93.3758124  98.8643361  34.5819068  93.3623536  98.5062841  33.1113291
  71.5958031  74.1235937  10.9168130  70.6960209  74.1202368  11.2433321
  72.1087631  74.4997181  11.6320974  54.4076967  18.8140202  82.3661995
  54.0383816  19.2975605  83.1051350  54.3862867  17.8983915  82.6444054
  14.8863307 101.7577583  73.7349653  14.1420070 101.2334620  74.0304804
  15.2335779 102.1528190  74.5347023  35.3179169   1.4858243  62.3265123
  35.4710388   2.3254308  61.8931007  34.9515676   1.7198041  63.1793165
  20.7441735  19.9070549  64.4014454  20.3221536  20.7393622  64.1883850
  21.2679052  19.6990871  63.6277008  50.8681536  33.3444452  53.5128403
  51.4976311  34.0249276  53.7514448  51.3563871  32.7588081  52.9341459
 103.1575235  85.5239791  71.0886669 104.0760024  85.6613547  71.3205194
 102.8226622  84.9422390  71.7710733  82.0840415  42.5630601   8.5629636
  81.6091021  41.8042804   8.9019567  82.8915509  42.1980895   8.2010824
  83.0266245  15.6284727  13.3536035  83.9117917  15.3342427  13.1387979
  83.1488427  16.2538804  14.0678579  71.9204410  14.0145768   5.6114751
  71.5393980  14.5822371   6.2814027  71.7039784  14.4428457   4.7832471
  37.6630537  99.4042975  76.2778091  37.9456607  99.4193030  77.1922159
  38.0564538  98.6090580  75.9185553  93.4169205  86.9282068   0.5020792
  93.6527117  87.3422207   1.3322813  93.7610825  86.0377778   0.5722314
  39.4485998   4.5224312  53.8260508  38.8632321   4.7237194  53.0959415
  38.8802314   4.1262534  54.4865274  35.6186191  94.7767223  80.7572079
  34.6727506  94.9176032  80.7158184  35.7135908  93.8447446  80.9537506
  78.6411007  73.4166540  10.1868421  77.7837046  72.9916014  10.2077753
  78.4439858  74.3494142  10.1011831  74.0445908  48.8352133   8.8218481
  73.6159333  48.0890636   8.4026224  74.0852149  48.5985343   9.7484285
  43.2114021  93.4001399  65.4720497  44.0336029  93.8691718  65.6142664
  43.1465522  93.3133972  64.5209980  34.2036319  29.0500307  72.8199148
  33.8921928  28.7290788  73.6662149  33.7712836  28.4881282  72.1768188
  38.6527324  25.1489925  76.3429213  39.4656634  25.5272889  76.6779900
  38.1377172  25.9033108  76.0565805  77.5404080  63.3993913   5.3253061
  77.9709013  63.1591119   6.1457807  78.1132754  64.0620388   4.9393636
   3.7385670  85.4518528  87.4399376   4.1378728  86.1987192  87.8859997
   4.0267507  84.6902842  87.9431152  53.8311180  50.1844554   2.8909570
  53.6156901  49.9775134   3.8003522  53.1765910  50.8328621   2.6313478
  27.2626066  24.0861392  76.6634321  27.9975843  23.4731317  76.6471863
  26.6740632  23.7726808  75.9767008  86.5741118  53.1140473   7.6126939
  85.8473071  52.4916619   7.6376421  86.3826712  53.7341706   8.3162767
  69.4671710  16.6305055   0.3240282  69.4255432  16.4690722   1.2665922
  68.8586005  15.9961404  -0.0547236  60.5949926  23.4566593  81.9351292
  60.7678890  23.4317875  80.9940052  60.0907183  24.2598438  82.0648670
  11.6668884  68.5695757  21.7031938  11.6306106  68.3467521  22.6333982
  11.0693828  69.3117048  21.6112024  26.9935703  41.8652201  65.6936264
  27.4687052  42.4045372  66.3257790  26.1866999  42.3510695  65.5229139
  80.0634058  67.4463810  13.2461530  79.1193017  67.3025025  13.3109743
  80.2103432  68.2783653  13.6960870  91.4252242  65.6780089   4.2624551
  90.5465325  65.3290166   4.1129858  91.9243487  64.9339558   4.5993406
  44.6503448  35.2122211  82.3623466  44.9388742  36.0758948  82.6573849
  45.3831005  34.6317124  82.5680256  30.0875370  81.3883931  81.2560558
  30.1860324  80.7024056  80.5957890  30.9298984  81.8429834  81.2566471
  20.0050060  84.2034472  12.9244405  19.7595874  84.1323151  13.8469011
  19.6421520  83.4161056  12.5186521  86.4453383  92.2071297  82.6491737
  86.5285178  91.9924087  81.7200851  85.5023380  92.1995468  82.8132629
  20.0912094  44.2807484  80.9068871  20.2817297  43.4609318  81.3627720
  20.9288335  44.7435522  80.8862019  71.8923577  92.0345415  11.4902193
  71.5209921  92.0303739  12.3724348  71.5728076  92.8479303  11.0996801
  51.6662788  24.2744946  52.3405600  52.3082972  24.9756384  52.2290277
  50.8909130  24.5829010  51.8716049  62.7343114  47.1330388   4.2479974
  61.9258841  47.3273884   4.7222406  63.3109911  47.8711493   4.4451314
  14.3754244   3.8537306  80.4834652  13.5528278   4.1335568  80.0818920
  14.3940568   4.3023580  81.3288212  18.9498607  65.4595603   7.7916414
  19.8237316  65.1164533   7.6049406  18.3546154  64.7646238   7.5106126
 105.3252085  89.4913687   0.6074411 105.6121930  89.5032515   1.5205270
 104.3990811  89.2533244   0.6505281   9.3575478   5.8914906  14.2137319
  10.0754500   6.0333068  14.8307783   8.5652256   6.0398108  14.7299272
  51.5451765  37.8744245  81.5106773  51.2226391  38.0532956  82.3939705
  51.9544840  37.0115685  81.5753269   7.0046512  89.5521743  69.2574358
   6.1940090  89.4999046  68.7511206   7.6584760  89.8631806  68.6313248
  65.6984671  80.8173050  18.7865812  65.3288063  81.4315785  18.1523496
  64.9738868  80.2299036  19.0014631  57.5698233  29.4126034  69.0283251
  58.0308056  30.1328850  69.4583511  57.3842430  29.7388005  68.1477642
  68.0852556   0.6813104  61.4058065  68.9763165   0.3876085  61.5955067
  68.1053495   1.6251132  61.5641212  32.6689386  20.8224559  78.3603621
  33.0515528  21.6997480  78.3743429  33.4223843  20.2322793  78.3760023
  83.6422070  58.1723125  23.2813436  83.7905463  58.3758928  22.3578817
  84.4021758  57.6491995  23.5363561  94.1610201  27.7319945   3.3098394
  93.7719496  26.8576373   3.2908994  94.8551329  27.6995958   2.6515180
  79.8179730  61.2079693   2.5990659  80.1000746  62.1183981   2.6872331
  79.1784008  61.2232782   1.8870718  30.9915725  90.5493123  60.5940628
  30.1836769  91.0626669  60.5923462  31.4629737  90.8471901  61.3720608
  81.0428437  88.2923402  14.1126520  80.1079901  88.4484710  14.2464429
  81.1017903  87.3615827  13.8971406 107.0841885  19.4924092  49.2461109
 106.5478420  20.0863266  49.7712994 107.9600143  19.5612764  49.6261358
  51.7358875  23.9494658  56.4968729  52.4401093  23.3399105  56.7176580
  52.1847820  24.7118425  56.1314869  88.8132095   9.3782234  76.8106556
  89.3871021   9.9020892  77.3696184  87.9279041   9.6301591  77.0733356
   2.2583945  11.7377317  83.3621597   1.9504150  12.3582029  82.7015495
   1.5282901  11.6596341  83.9762306  67.7310371  17.9917228  55.9383678
  67.2823095  17.2836554  56.4004469  67.0760059  18.6863995  55.8706045
  65.0375231  56.8932940  23.3635789  65.9820207  56.9860561  23.2388765
  64.7571238  57.7408893  23.7088186  55.8102179  26.1119914  54.0728807
  55.7080126  25.6469321  54.9032450  56.6550779  26.5554214  54.1491270
  48.9441156   3.5439414  45.7563972  49.3051195   4.3772441  46.0589075
  48.6099529   3.1255510  46.5498161 107.5465544  23.5098661   3.5275823
 107.8212126  23.4934343   2.6107770 108.2521113  23.0648149   3.9969903
  82.3695946  29.8241520  56.6144466  81.4332199  29.8310280  56.4159822
  82.4833012  29.0813684  57.2073841  15.1076842  32.4578864  34.5365888
  15.1921606  33.1765181  33.9099580  14.2222977  32.1217257  34.3975717
  29.4482223  89.1928381  82.8409672  29.7412483  88.9441342  83.7176132
  29.2886154  90.1347882  82.9000282  27.7566043  80.6225187  48.3168316
  27.5762025  79.8241264  48.8130713  28.7035648  80.7413132  48.3902168
 107.4643143  68.9492930  26.7177087 107.8255518  69.5319702  26.0496980
 106.5310868  69.1609062  26.7408258  38.9452386  45.8384562  65.0470161
  38.7921500  45.9106874  64.1049051  38.4968257  46.5967512  65.4213715
  81.1332599  91.0219175  78.0578852  81.6850368  90.2662296  77.8561306
  80.2894203  90.8166165  77.6553726  37.3995447  21.5582514  82.2941875
  37.8770447  20.8996868  82.7986813  38.0369902  22.2574306  82.1491241
  93.7403067  82.0817698   4.8289091  93.1822022  82.3930944   4.1162855
  94.6314534  82.2719969   4.5357973   5.5590479  58.0772699   4.3351537
   5.8792297  58.4268869   3.5035974   6.1056129  57.3085369   4.4980985
  57.7120972  34.0745091  84.7457027  57.1642590  34.4853306  84.0768719
  57.1845818  33.3459496  85.0730515  74.0002283 101.2419237   3.7010366
  74.4764122 102.0645441   3.8140661  74.2586311 100.9329618   2.8326971
 101.3973959  68.0252935  31.3620645 102.0470961  67.3226096  31.3431722
 101.8004807  68.7098981  31.8959791  83.9478072  65.9144892  34.8246366
  83.6071452  66.2930383  35.6351263  83.3514889  66.2280275  34.1446859
  38.6591556  57.5301774   5.4436666  39.1384020  56.7130197   5.5808050
  37.9668387  57.5156148   6.1045152  59.1712379   8.5373878  43.7753296
  59.9259806   8.6827505  43.2048368  58.9804220   7.6035857  43.6868143
  62.1775723  33.1157517  84.5431614  61.6204834  33.8805056  84.6881962
  61.8268824  32.7109671  83.7498188  26.8193332  77.1866996  87.1605492
  26.2743131  76.4095599  87.2840118  27.6790658  76.9319779  87.4955273
  24.1850845  85.6267054  63.4224129  23.4137765  85.0767166  63.5596323
  23.9983646  86.4276082  63.9122295  39.5659089  11.7897689  76.7002964
  40.2605772  11.9756389  76.0685396  39.0033245  12.5636852  76.6722775
   8.5482876  55.6047456  14.9697000   7.8710500  56.2737997  14.8699934
   8.1273166  54.7935463  14.6851617  76.8973120  50.5929457  15.8307249
  76.6535433  51.5145930  15.9166032  76.3120230  50.2524339  15.1541788
  35.5310011  31.4119506  71.2376928  36.4149427  31.1070275  71.0329962
  35.1790023  30.7465196  71.8289042  33.0821601 101.0972767  71.7566395
  32.8398935 100.7863244  72.6289082  33.8978950 100.6381197  71.5566874
  73.4037161  36.1684823  85.9680843  72.6363659  36.6451120  86.2846756
  73.0918169  35.6993771  85.1941967  43.9158869  24.1041899  61.4162493
  43.6875629  23.6754990  62.2410679  43.0770588  24.3907499  61.0550308
 102.3503431  67.6812250  66.6244411 101.4507135  67.3711688  66.5206861
 102.8736480  66.8820245  66.6849422  59.5486403  13.1082928  65.3718472
  58.8265800  13.2459724  65.9849596  59.2218494  12.4473178  64.7614765
  23.4004021  27.3106241  56.8735838  22.7102041  27.4567294  57.5205040
  22.9350352  27.2291589  56.0410976  15.3890506  90.8831853  38.9221573
  14.8163644  90.2671153  39.3790150  15.7652275  90.3734917  38.2045698
  96.6049918  39.2601158  22.5606805  95.9759053  39.6618833  21.9614584
  96.6494902  38.3451332  22.2830755  26.9314575  14.5718724  15.8936101
  26.2873602  14.2684609  15.2538377  26.4327049  15.1318414  16.4885122
  90.1528986  93.9384140   0.4111845  90.5732640  94.6121515   0.9455949
  90.3502282  94.1905369  -0.4908865  53.9054441   2.1552245  86.6931820
  54.4833755   2.4338146  85.9828186  54.0513992   1.2119274  86.7647266
  44.9652815  11.7346203  69.2222023  45.0255060  10.9209120  68.7217188
  44.1600990  11.6434038  69.7317028 102.2783574  89.1049923  35.5453378
 102.8057965  89.6444501  36.1344320 101.5421446  89.6660460  35.3015405
  57.2205782   1.8834491  60.3888988  57.0895815   2.7770135  60.0716972
  56.6110468   1.7977388  61.1219406  29.4538188  22.4603796  75.2990580
  30.0645399  23.1630015  75.5217075  29.9820280  21.8302608  74.8089790
   6.0515452   9.5413691   4.9722845   5.0962544   9.5771510   5.0210172
   6.2884760   8.7661988   5.4814035  99.9822768  79.5178331  14.0617162
 100.0514086  78.5633577  14.0824586  99.7358855  79.7595872  14.9545080
  95.9967717  58.9349593   2.0419580  95.1147088  58.6429591   2.2720319
  96.1701306  59.6648474   2.6364690  38.3320236  25.9094954  84.9434185
  38.6712503  26.3526011  85.7211208  38.7076902  26.3943148  84.2085266
  83.3536013  29.0451349  12.2309763  83.8693007  28.6156691  12.9135019
  84.0051516  29.4342579  11.6476232  58.7429341  74.0886201   1.7872602
  58.7357124  73.1347169   1.7082101  58.2869371  74.2642058   2.6103479
  17.5986663  91.0533697  74.5340204  16.9366209  91.3042826  73.8898373
  17.9977457  91.8810589  74.8021603  16.1470453  98.5977329  63.5087156
  16.2888614  97.8749568  64.1200352  15.8479635  98.1752411  62.7035522
  80.0002678  81.6636855  80.8747387  80.1076521  81.5902264  79.9264193
  79.1892805  82.1597714  80.9862328  57.1355295  18.6026931  87.2511482
  56.9286680  18.0721033  88.0205059  58.0595350  18.8288069  87.3575401
  31.6089702  32.3489499  84.1916084  31.2465215  33.0581999  84.7224808
  32.4815059  32.6559544  83.9453125  14.1656105  67.9271872  74.3760252
  13.6034814  68.2513291  73.6723423  14.3675844  68.7036187  74.8981333
  22.8947783  25.6672907  79.0262842  22.6044822  24.9941325  79.6417618
  23.7268829  25.9764600  79.3844032  42.6935148  18.6875987  50.8893347
  42.8834772  18.7537670  51.8251562  42.8834486  19.5599413  50.5441141
   3.5161916  72.3130239   0.9962160   2.6104824  72.5993861   1.1142046
   3.7293808  72.5577225   0.0957185  33.3106232  25.2312016  71.1298418
  33.8391209  25.9568954  71.4619398  33.8084149  24.8934913  70.3852701
  94.1225203  40.2138497   2.4431879  94.4849833  39.5066179   1.9096452
  94.2143973  39.9050952   3.3445627  37.6394979  96.7881424  46.4606094
  37.1192352  97.4101312  45.9519911  37.9078666  96.1244506  45.8252192
  10.7360975  85.9826440  84.2567062  10.7948677  86.1356825  83.3136559
  10.3907577  86.8019564  84.6112537  98.2380208  64.5442058   4.5616037
  99.0093955  65.0356091   4.2792303  97.5840815  64.7146250   3.8837034
  63.1422814  24.5881380   2.5039941  62.7610119  24.1529669   1.7414362
  62.6462563  24.2461647   3.2478029 105.1606735  87.0068748  82.4427605
 104.7501024  87.6636214  83.0052090 105.9843977  86.7961926  82.8824520
  22.0314495  90.7907028  68.2736301  21.5634576  90.0330610  67.9226398
  22.2132055  90.5590863  69.1844273  90.2022656  62.7806808   5.8215505
  89.4223841  62.2774161   6.0555250  89.9739560  63.2056738   4.9948198
  29.0615273  20.5560565  70.2426815  28.5986662  20.6692004  71.0728550
  28.9092588  19.6410799  70.0063276  61.7938805  17.3329973  45.4555178
  62.4340963  16.7452812  45.0543404  61.3208008  16.7820621  46.0791349
   5.8214132  72.6689822  85.5576897   6.1588375  73.5440809  85.3664303
   5.2926818  72.4435765  84.7922707  13.0981628  61.7164113  15.2233011
  12.9450599  62.5688733  14.8157484  13.1623928  61.1073221  14.4876939
  92.7249154 101.1091865  11.3092882  92.3757704 100.3298248  10.8769399
  91.9494017 101.6026701  11.5762693  18.4612072   9.6543777  76.8008947
  19.3706703   9.9528444  76.7957497  18.1842494   9.7144175  75.8866072
  99.7517355  42.6696922  15.5086786 100.3235014  42.2345818  16.1411268
  99.1066321  42.0036210  15.2711374  45.8325386  23.1681156  81.1834621
  46.3998890  23.3445430  80.4329777  45.3559875  23.9867568  81.3211250
  89.7117957  63.4551479  18.2143861  89.7137936  63.4426404  17.2572691
  90.6253298  63.3053233  18.4577829   2.8832761  65.6432898  77.0621061
   3.7812678  65.8417613  77.3275375   2.9080836  65.6555206  76.1053038
  50.6328201   8.7485093  49.0470123  50.0941229   9.1627890  48.3729124
  51.0142660   9.4802910  49.5320177  92.9223641  79.4408263  16.9987279
  93.1601246  78.6766042  17.5237638  93.7602385  79.8073090  16.7160780
  61.1794376  18.0843949  77.8147697  61.5734768  18.3232903  76.9757843
  60.2626753  17.9046488  77.6062775  47.6575232  14.1658556  85.1817036
  47.3559475  15.0289381  84.8981953  47.5293779  13.6043203  84.4171906
  53.5167360  21.7028189  55.7789278  54.4478226  21.4857101  55.7322550
  53.1065607  20.9204650  56.1475849  69.9774027   6.3022912  73.6676741
  69.9904871   7.1842748  74.0393829  70.8700466   5.9783745  73.7880516
  85.0179490  49.6072829  19.3335897  84.4193705  49.8094161  20.0526697
  84.7111615  48.7657991  18.9959318  56.5236473   7.2557926  79.3961096
  56.7419624   7.9426026  78.7661362  55.9004116   6.6956878  78.9334059
  54.2450619   3.7956473  68.4351635  55.0421858   3.3955094  68.7826061
  54.4509315   4.7286674  68.3775187  81.4403343  27.9659796  76.2010384
  81.2647343  27.6310277  77.0803547  82.3918343  27.9140306  76.1105442
  40.2976990   4.3068054  79.2285633  39.9221349   4.0186700  78.3966017
  39.7509336   5.0459337  79.4949627  33.1397080  24.8292804  63.0149460
  32.2628021  25.0584888  63.3227301  33.5653186  25.6716681  62.8553486
  52.7935497  87.1078271  74.5575380  53.6767761  87.4721558  74.6159363
  52.8868953  86.2040121  74.8585987  71.3222933   4.7828937  57.5717831
  72.1539021   4.9970937  57.1489668  71.0380793   3.9743951  57.1454239
   1.1033670  69.6261598  36.6824514   0.9289161  70.5266417  36.9561845
   0.6124441  69.0877522  37.3032075  13.6576311  44.0591104  80.6764603
  13.5233251  43.4662063  79.9370909  12.8963367  43.9167840  81.2389565
  95.6749821  25.0976253  82.1831512  94.8630619  25.4050183  81.7799950
  96.0974979  25.8929920  82.5073528  56.2915325  28.9996362  30.5041313
  56.2386465  29.6058583  29.7652602  55.5516577  28.4052229  30.3796768
  53.6647606  29.9591351  67.8161001  54.2593336  30.7075453  67.7651453
  54.0002966  29.3419695  67.1659040  48.0190420  22.6371121  53.1959534
  48.0157614  23.5934615  53.1557131  48.8849163  22.4147558  53.5380793
  33.2710433  10.6981754  76.4598227  33.6782002  10.6711555  77.3256874
  33.8250613  11.2918794  75.9530592 106.3993271 101.2098483  83.6344051
 106.2294277 102.1083378  83.3514214 106.3478144 101.2457769  84.5895481
 104.9832018  50.5564983   2.5764829 104.5843323  50.9130508   1.7827589
 104.4816931  49.7622473   2.7605611 103.0705317  42.2499670  18.3294565
 102.1862706  42.5613452  18.5227281 102.9456004  41.5694715  17.6679880
   3.1203214 100.5600376  68.7091732   3.7406508 100.8566352  69.3751001
   3.5825149  99.8618642  68.2453156  58.1112671  43.3953238  85.0944710
  57.9449558  44.3361235  85.1533794  57.6027727  43.1092644  84.3356323
   6.9215337  38.0203082   0.3050214   7.8192894  37.9728927  -0.0236338
   6.9636337  38.6472036   1.0271436  18.0763332  60.1427080  22.0417196
  17.6205341  59.3329908  21.8118555  17.4305336  60.8326174  21.8893701
  85.1065405  49.9923088  48.2035142  84.4923838  49.9791535  48.9375860
  84.7126873  50.5947247  47.5724775  75.6775093  26.5213370  68.8338327
  76.0620642  26.4323211  69.7058535  76.1599970  27.2437525  68.4318924
  28.4523773   1.2088393  50.3449869  28.9322972   1.0110968  49.5407438
  27.5739741   0.8609006  50.1914263  75.5747371  97.9564960  74.1110754
  75.9567385  97.5128946  73.3537626  76.0322555  97.5820944  74.8638916
   8.3116857  71.1159236  72.8239346   8.0279962  70.2722127  72.4719286
   8.8565866  71.4926893  72.1330214  18.6172954  87.6795573  46.9877481
  19.5340673  87.4900419  46.7881346  18.6043111  88.6154682  47.1880817
   8.3364908 100.1259079  68.9127636   9.0597240 100.7504783  68.8572979
   7.8666774 100.2293725  68.0852365  67.5627518  12.1465504  67.9817867
  66.6577864  12.3176837  68.2425070  67.8675413  11.4802539  68.5977268
  71.7522629  36.1288454   2.9170591  71.0604032  36.5175666   2.3818380
  71.7225274  36.6181363   3.7392122  95.2128537  66.6582281  81.0394001
  94.7362765  66.4258344  80.2424717  94.8328622  67.4938519  81.3106441
   4.6753017  96.1227632  82.1820736   5.5468360  96.2776888  82.5462914
   4.0923349  96.1379970  82.9411221  70.7156277   2.4702846  56.2974072
  71.2572908   1.7197958  56.5415382  70.6104898   2.3914592  55.3492689
  20.5275051  88.5968120  67.4940729  21.2125246  87.9287333  67.4685431
  19.7088329  88.1009180  67.4842405  33.5542464  52.4910688  63.6203909
  34.1074014  51.9854403  64.2158651  33.1410789  51.8334913  63.0608225
  39.3350021  99.8654570  72.2078609  39.5396129  99.9709100  71.2787533
  38.5032217 100.3247917  72.3235703  32.6284385   6.2657261  83.4508419
  32.1874046   6.9299972  83.9804363  33.4796095   6.1492044  83.8729382
  74.8554429  67.5748695  44.6904451  75.1066025  68.2122995  45.3589040
  75.1510795  66.7336537  45.0385648  75.4582357  15.3711426  59.5541811
  75.4079294  14.4809866  59.9024963  74.5890808  15.7396722  59.7122717
   6.2610141  89.7726304  75.2640867   6.2524883  89.9050266  74.3161249
   5.5043451  90.2654655  75.5815697  52.9838371  17.9208839  39.8276496
  53.8646555  17.9823864  40.1972485  53.1261063  17.7859306  38.8907504
  80.5845356   3.8213921  68.6247015  80.9886551   3.0824298  68.1698895
  80.9490204   3.7866339  69.5091105  67.3806572   4.5189607  56.1160851
  67.5001526   3.6758831  56.5533161  68.0844259   5.0690514  56.4600849
  80.4456615  14.6580279  74.2942381  80.5047989  15.3767979  73.6648703
  80.1596832  15.0744927  75.1072598  32.1140194  17.6494420  85.9729004
  32.9292798  17.2150660  86.2237072  31.4519930  17.2673750  86.5490818
 103.1892022  81.9726027  16.8497640 102.3004969  82.3266210  16.8829996
 103.3955725  81.7576755  17.7594072  83.8467407   0.6934349  65.6504822
  84.4174862   0.5851663  66.4112425  84.3730354   0.3893868  64.9110174
  98.9034661  94.6419538  14.5535261  97.9728039  94.6615709  14.3305570
  99.3521079  94.6298565  13.7080652  78.4015473  48.1604926  15.9448129
  79.2121228  48.6589362  15.8410913  77.7141007  48.7566608  15.6477815
  58.4373172  81.9475473  40.7032568  58.9115008  82.1214689  41.5163499
  58.5259970  82.7549757  40.1968652  50.1840448  37.7314043  75.2329302
  50.0802374  36.8690896  75.6352568  50.9419394  38.1127906  75.6760693
  61.3235855  27.9156590  82.2929478  60.9745741  28.7603760  82.0085716
  60.6934166  27.2737336  81.9657612  43.3219051   7.8482884  84.8119640
  42.5406122   8.2720155  85.1673126  43.1156826   6.9137013  84.8278046
  72.8794631  76.1525167  18.2722265  73.0312212  75.2106036  18.1947595
  73.5315903  76.4487661  18.9072019 105.1566752  97.2768701  11.8153841
 105.2927836  98.2035269  12.0128995 104.4063242  97.0249428  12.3536569
  52.9328775  30.2143359  83.4810448  53.6282301  29.6267009  83.1854057
  53.3660173  31.0605073  83.5933590  90.2472790  92.8436388  34.8802072
  91.2005337  92.8306021  34.7943670  89.9404772  93.2687677  34.0793497
  88.9006519  41.4954662  59.2787790  88.8979435  40.7141113  58.7258768
  88.0085659  41.5494251  59.6215534  43.5791159  38.1367564  60.7347059
  43.0630541  38.9429212  60.7369900  43.4862423  37.7904034  61.6222000
  59.0501976  32.4057293  82.7015686  58.9628601  33.3297205  82.9357529
  58.9924908  31.9406223  83.5361862 107.8118285  80.0820698   2.0952112
 107.3132571  80.8886541   1.9645292 107.4977263  79.4925941   1.4095766
  81.0411509  93.3860220  15.5476171  80.8901890  94.2552675  15.9189016
  81.9940384  93.3062662  15.5043012  15.9791672  24.2349386  64.4699907
  16.4589608  24.3370366  63.6480379  15.5260181  25.0697660  64.5880938
  61.1538935  36.4036965  68.5746431  61.4565563  36.1590624  67.7001238
  60.5209684  35.7245064  68.8077402  95.9049225  43.4634638  69.1620064
  95.2113056  43.7969255  68.5928583  96.4498997  44.2279387  69.3485737
  77.4924755  32.0670414  75.4845953  76.6815472  32.5490069  75.6468916
  77.7633286  32.3420453  74.6086740  78.0577755  50.4814720  86.8133640
  77.7973080  50.6004286  87.7267361  78.6142874  51.2365723  86.6227150
  96.9981917  68.8409187  22.1525747  97.1816119  68.7743021  23.0896741
  97.5925215  68.2098104  21.7467386  75.8777531  51.9047271  11.5335638
  75.5385860  52.4579917  10.8299333  76.5848788  52.4190827  11.9229776
  84.3433770  53.7342860   2.5698072  83.5003098  53.3276759   2.3694784
  84.7664937  53.1235076   3.1732637  68.6082697  29.9709606  78.4501266
  68.7647390  30.5839014  77.7317572  67.7680874  30.2436042  78.8189030
  67.3131418  40.9066391  86.7293644  67.4227333  41.5988922  86.0774422
  68.0778694  40.9907436  87.2988892  67.7746630  34.3182302  78.2632971
  67.7263594  35.2211189  77.9491472  66.9911480  34.2099571  78.8023806
  24.7715831  40.5964041  57.6175499  24.4214797  41.3618946  57.1618271
  24.8497152  40.8757114  58.5297537  12.8903858  74.8194994   5.5088312
  12.7025596  74.7891940   6.4469320  12.0665065  75.0972904   5.1084692
 104.7691639  54.3264387  40.0643999 105.6423911  54.3816589  40.4525453
 104.4270237  55.2188836  40.1164991  57.4086094  33.8125467  77.6395321
  57.7536917  33.3597445  78.4090281  57.7852345  33.3420873  76.8958569
  40.0180379 101.6334631  74.8806429  39.4079963 100.8974008  74.9285173
  40.8826534 101.2347579  74.9791813  83.1962641  50.0736131   8.5344392
  83.6679324  49.6782555   9.2675478  82.7137335  50.8021767   8.9250642
  12.5356857  65.9744467  22.2027189  12.2581093  65.3352119  21.5465433
  12.2046558  66.8113710  21.8768198 103.0375823 101.2244953  13.6934167
 103.5348471 101.7737211  14.2994768 102.1917113 101.0984768  14.1233617
  67.5220203  12.8273273  80.1192856  67.4046135  11.8855119  80.2435112
  67.6779652  13.1675208  81.0002995 104.8109818  49.0097332  52.8554344
 105.7538319  49.0645647  53.0111933 104.7119045  48.2845831  52.2385311
  86.5330370  90.2312983   9.5703298  86.7214449  89.6773471  10.3278715
  87.3787459  90.3369583   9.1346246 102.8039455  14.1667926  73.6855698
 103.1984329  14.7384274  73.0269003 102.0545387  13.7706113  73.2409763
  46.9662809  27.4313092  87.0349216  47.0968628  26.6499043  87.5721264
  47.0507002  27.1193886  86.1339188  10.2912895  78.0939497  15.0285036
   9.7978965  77.2926940  14.8530752   9.6691314  78.6643638  15.4799158
  45.2415419  30.7159686  87.7160645  45.4316139  30.1965070  86.9348717
  44.5962429  31.3599443  87.4243164  85.4435500  69.2422594   1.0001642
  85.3233107  68.6433484   1.7371065  86.3466605  69.0968551   0.7182485
  94.6841248  88.0173077   2.5246889  94.7847804  87.2415723   3.0763608
  94.3023833  88.6759604   3.1049425  85.5701073  83.1327452  51.0304147
  85.3617009  82.2299589  50.7900507  85.8824547  83.5309090  50.2179319
  92.0603379  81.0340418   9.6400911  92.0123824  81.4227523   8.7666875
  91.1687478  80.7348694   9.8183900 103.6760235  31.8044305  66.6636992
 103.3480453  31.5765309  67.5335979 103.0113983  31.4694452  66.0618019
   2.7465097  91.1405624   4.5411569   3.2725708  90.8873977   3.7826044
   3.3687584  91.1606325   5.2682287   1.6392891  60.8561499   0.2788526
   2.0947305  60.5273963   1.0539228   1.4478246  61.7713489   0.4837591
  18.8130466  48.0136339   8.2179052  19.6641628  48.4470896   8.1549913
  18.5131447  47.9420726   7.3117239  30.4719901  47.3636627  79.4103336
  29.9168420  47.8118229  78.7722158  29.9605799  46.6002083  79.6783400
  76.3802719  25.8338094  71.2902355  77.1741819  25.3403521  71.0842276
  76.5665913  26.2459874  72.1338177  21.3188720  40.8081293  75.2898693
  20.7192326  40.0628757  75.2543449  22.1763182  40.4356432  75.0842619
  85.7599267  84.8633160  10.8627492  85.3077849  85.0138987  10.0326139
  85.1537665  84.3246950  11.3713724  49.1456366  35.9892535  76.9692326
  48.6919212  35.2008414  76.6712666  48.4827662  36.4766264  77.4584150
  46.9708538   2.2314434  83.4854794  46.6226053   1.3514802  83.3418941
  46.7031717   2.4523512  84.3775463  86.8927002  51.8040609  83.3507633
  86.8520451  51.0085249  83.8815117  87.5728893  52.3344183  83.7658501
  65.7077559  82.0306195   3.1218225  65.2931412  81.8728484   3.9700204
  65.7941206  81.1607016   2.7319414   6.5443556  91.7806639  13.9975149
   6.5776340  91.4325632  13.1064683   7.4586670  91.9549622  14.2208654
  48.4451485   0.3971370  66.8179607  47.8369761  -0.0018266  66.1957216
  48.6487246   1.2522849  66.4391327 105.8428915  28.2941951  17.7205545
 105.6310709  27.9036130  16.8727285 106.1354025  29.1808165  17.5094301
  17.3363964  77.5212015  13.0036050  17.0546047  76.7046846  13.4160692
  16.5214912  77.9792704  12.7978403  17.7859012  86.3227071   6.2479478
  17.4895374  85.7737650   6.9739419  18.6585037  85.9904899   6.0371763
  62.4798632  24.2751837  69.3078804  62.6499462  24.8105264  68.5328245
  62.5456715  24.8872423  70.0408792  65.9451445  33.3277227  -0.0386828
  66.0168251  34.1136815   0.5029470  65.3308948  32.7661826   0.4341871
  49.5763874   4.6665466  70.7015705  50.4092503   4.8472995  70.2657938
  49.7150135   4.9432269  71.6073656  89.1696700  90.6576194   8.6208707
  89.5914181  91.4579691   8.9335996  89.2389019  90.7072176   7.6674730
  30.7345954  89.2069859  78.1181479  30.2430145  89.6835262  77.4492025
  30.1073305  89.0773327  78.8294554  40.6102180  38.1748772  79.9838877
  40.4955959  37.2667003  79.7040558  41.0142851  38.1097031  80.8491707
  96.5265854  62.0919432  35.4094488  97.1926459  61.8271316  34.7750455
  97.0250853  62.4368621  36.1502344  95.9238633  66.5136863   3.9796239
  95.8341225  65.6634511   4.4100648  95.0236662  66.8065692   3.8378603
  88.9786053  41.8618870  70.0036097  89.9221230  41.9491625  70.1391840
  88.8713169  41.8723345  69.0525007  43.2802629  32.4253535  67.6982546
  43.3812857  31.4735436  67.6889801  43.6637306  32.7149868  66.8704271
  80.1267910  12.5209701  64.7863770  79.4533730  11.8637884  64.9620247
  80.0502777  12.6976228  63.8487339  74.5475101  18.4381080  62.2468090
  74.0658188  18.7951088  61.5006495  74.2385530  17.5352275  62.3215294
  60.7461357  33.6583304  75.4074621  61.6905880  33.7658215  75.2948427
  60.4412746  34.5155907  75.7047796  64.9094296  23.0697250  79.4004154
  64.7829390  23.3742952  78.5018206  65.6872416  23.5374093  79.7045755
  10.6500816  25.1896524  40.2548075  10.2929819  25.6361938  41.0224771
  11.0670698  24.4035125  40.6074238 101.2722834  72.4137677  18.3479864
 101.1279448  73.2422699  17.8908426 100.9434041  71.7470588  17.7450258
  76.3251638  18.1965184  45.4680729  75.7831335  18.2156324  44.6793604
  76.5276861  19.1157675  45.6418467   6.3010160  76.1404885  12.5351888
   6.4865009  75.5716146  11.7880518   6.1642591  75.5383290  13.2665807
  43.3644438  23.6436367  70.3089666  42.8558207  23.3768511  69.5432234
  44.2484379  23.3211184  70.1335621  57.0263004  18.5227132  67.7812243
  57.1357107  17.5738466  67.8437805  57.1638346  18.8390517  68.6741114
   9.8606777  57.0104551  69.0254831  10.6672955  56.8292904  68.5430098
   9.9223274  56.4639759  69.8089314  55.3398228  36.6481376  74.9975014
  56.2634087  36.4930248  74.7995949  54.9225426  35.7951355  74.8771143
  82.8770828  14.7745073  57.1353292  82.5856304  15.6857407  57.1045971
  83.8326836  14.8288941  57.1454477  85.1035555  94.4627108  13.1874448
  84.5821389  94.3112053  12.3991472  84.6750124  93.9368977  13.8627988
  83.7136555  35.2009153  64.8565960  84.4425011  34.6528506  65.1475334
  84.0260220  36.0978436  64.9756861  79.6967602  27.1411777  55.7983351
  79.3821383  26.5428877  56.4760447  79.2746878  26.8364358  54.9950790
  89.5884991  52.0522976  50.4361868  88.8626862  51.5249252  50.1025677
  90.0316906  52.3737574  49.6510220  68.1566390  88.2963289   7.4243433
  68.3645543  88.0272831   8.3191186  68.4682330  87.5743045   6.8786127
 105.3454876  26.8763995  61.0151577 104.4566059  27.2295570  60.9777546
 105.5268288  26.5888739  60.1203537 106.3240059  53.1461792   8.0340559
 107.0081242  53.0225579   7.3760778 106.5004023  54.0114899   8.4033090
  48.2055283   3.9192016  35.8932764  47.3227692   3.9127881  35.5232317
  48.3226013   3.0382211  36.2487966  27.2674870  37.8877187  76.0075331
  28.1443310  37.7646422  76.3711643  27.1950769  37.2198963  75.3256226
 102.6714142  88.6577143   0.5265123 102.8817852  88.7718262  -0.4002875
 102.3311146  87.7650775   0.5867273  57.2372818   8.6486131  60.0098085
  57.8413153   8.2880110  59.3606997  56.8530560   9.4131398  59.5807362
  34.8067117  12.8338969  58.4073973  34.7892666  13.5293412  59.0648794
  34.0496469  12.2869897  58.6170959 102.9349431  96.2587894  13.0761129
 102.1816643  96.0603203  12.5198633 102.5516423  96.5611805  13.8994390
  75.6176615  12.7427375  87.9326534  76.4226770  13.1593966  88.2401848
  75.9047794  11.9036949  87.5723648  38.7883091  32.5864911  84.2496204
  38.6789870  32.4417186  85.1894665  37.8960323  32.5950146  83.9032078
  85.2263641  33.4685588  77.4126196  85.4992390  33.7658453  76.5446424
  85.2614307  32.5134158  77.3606396  59.4562626  27.4144936  68.3533335
  60.0447655  27.2322798  69.0859270  58.8197327  28.0361438  68.7063360
  63.5484982  20.8122635  54.7056007  63.2371283  20.5092072  53.8527012
  63.3400822  21.7464089  54.7185612 105.3533419  83.7146009  16.7394811
 105.7463559  83.6318315  17.6083452 104.6288022  83.0891003  16.7437631
  12.1994913  24.9746871  49.7749615  12.1334147  24.2492533  49.1539812
  11.8827140  25.7358599  49.2886496  72.9464444  73.8873424   7.6498491
  73.2567700  73.0999435   8.0969888  71.9990691  73.8827599   7.7865488
   8.8107864  56.7704464  30.6690198   7.8600637  56.6599317  30.6566698
   9.1525547  55.9424777  30.3315431  95.7113369  75.0825919   9.0139467
  95.3296383  74.3240847   8.5721284  95.0511082  75.7697333   8.9235670
  30.5278683  27.5847411  83.8545990  31.3654137  27.8231072  83.4571838
  30.4590940  28.1488109  84.6248722  50.1843071  32.0589161  64.4740868
  50.9363985  32.4446225  64.9233341  50.2611303  31.1196232  64.6415997
  24.7838116  11.0619831  28.4226298  25.5389285  11.5276825  28.7820148
  24.0511966  11.3292813  28.9776587  43.9398003  57.5715256  82.5263882
  44.1234922  56.6917658  82.1969700  43.8098669  57.4526882  83.4672546
  83.3534487  75.9484567   3.7217599  82.9386958  76.3912786   4.4621069
  82.6340397  75.4999246   3.2773477  44.1992378  55.3728104  54.6181393
  43.4486008  54.7854233  54.5300865  44.3325424  55.7247019  53.7380028
  44.2190647  40.8525324  69.7036600  44.6584845  40.0042439  69.7632027
  44.4507790  41.2999487  70.5175161 105.1198157  53.5165994   2.0011598
 104.3114098  53.9394273   2.2908670 105.4441794  53.0619249   2.7785188
 107.1811390  20.3921151  83.9363289 107.6959610  21.1261582  84.2715454
 107.1400452  19.7749925  84.6668816  27.0799343  67.4215127   7.6585180
  27.7296440  67.3530616   8.3581049  26.2412063  67.4826063   8.1157190
  48.9630318  15.3002739  52.9987621  48.6107874  14.6215975  53.5745716
  48.4664822  15.2061081  52.1858644  62.0115217  73.4353913  11.5635091
  61.3391455  73.6360635  12.2145635  62.7536329  73.9886416  11.8072588
 100.8317757  52.9735756  77.9679441 101.4653492  53.2955742  77.3267508
 100.6668949  52.0673704  77.7074862  73.0966282  46.8993664  87.3773670
  73.4325123  46.7984104  86.4867401  73.5259771  47.6887178  87.7072239
  16.3826076  98.7801804   1.3565332  16.7077724  97.8827156   1.4276201
  16.1657135  99.0282358   2.2552282  47.1817970  17.9350805  71.3052797
  47.0583296  18.3889234  72.1389532  46.9730663  18.5924137  70.6415176
  58.8727188  24.0278292  87.1217442  58.7828922  23.2512903  87.6741505
  59.6100760  23.8276100  86.5451622  70.0762701  13.3335400  57.7876902
  70.3072262  14.2539585  57.6623011  69.1434717  13.2898736  57.5774145
  56.3513613  41.5818071  68.1764936  56.9386339  41.8847513  68.8689995
  56.8823195  40.9750462  67.6605892   1.5699474  33.6099972  14.6769887
   1.5421716  32.9924370  13.9461786   1.1375324  33.1495823  15.3962022
  89.1231736  87.1417655  28.0820638  89.6349390  86.4718093  27.6287633
  89.4401558  87.1152557  28.9848691  75.3097582  33.5277152  76.6355038
  74.3867874  33.5481882  76.8883753  75.6317902  34.4072008  76.8330717
  56.1935886  36.1957170   3.6197073  55.7850882  36.1946179   4.4853574
  55.7465645  35.4963042   3.1430322  81.3475227  29.2747140  46.0685635
  80.7764053  28.7593627  46.6381836  82.0521450  29.5738840  46.6432238
  81.6883572  92.0494045   7.6238042  81.1576899  92.1718325   8.4109766
  82.5061043  91.6679205   7.9431612  90.6599196  87.0465626  14.9613458
  91.2339409  86.2859453  14.8708421  90.0536831  86.8070496  15.6623060
  71.8183851  13.1240344  82.2119713  72.4983263  13.6995971  82.5621700
  71.0306168  13.6674643  82.1936893  97.6419067  65.8245420  59.3101025
  97.1117401  66.6187954  59.2443562  97.0133591  65.1086426  59.2170954
  71.8139362  52.7046108  79.5019341  71.3210201  51.8897533  79.4056320
  72.6408720  52.4382448  79.9037504  85.8164557  95.5065931  28.2205278
  86.0935458  95.9718050  27.4312002  86.2854870  95.9420647  28.9322931
  76.1772680  29.9175191  80.3924084  75.9938574  29.9093843  79.4529772
  77.1169233  30.0901103  80.4515076  58.9673861 100.3745951  17.0469266
  58.2973393 100.8298649  17.5568277  59.6342619 101.0404362  16.8791276
  57.7181530  49.3223524  78.4083605  57.9764938  49.6984291  79.2498207
  58.0976391  49.9113035  77.7561712  62.9188538  26.5162802  76.2439919
  63.4859610  26.7964530  75.5255699  62.0366287  26.7555952  75.9600258
  31.0906927  85.9301455  50.7170439  31.1893074  85.6893820  51.6382074
  31.5020792  85.2118463  50.2363777  96.6773566  94.0254463  13.0371934
  96.3661870  93.6606039  13.8656217  95.9666594  93.8558592  12.4188215
  99.8493823  51.9806296   4.5056612  99.2245015  51.4932556   5.0425226
  99.3101700  52.5983117   4.0117532 107.8944787  71.7825784  23.0581266
 107.1707066  71.7419161  23.6832124 108.0174597  70.8765735  22.7748186
  97.7081013  37.9414821  42.2192192  98.4902382  37.3903871  42.2472429
  97.9343319  38.6477947  41.6140938   1.2551443  74.1118039  32.2828657
   2.2103016  74.0553845  32.2561342   1.0753099  75.0251235  32.5058919
  62.9571629  13.8374650  78.3957481  63.2782555  14.3946064  79.1047764
  63.5417318  14.0240014  77.6610947  43.3989429  15.1546121  72.7333593
  43.9734697  15.1967013  71.9689131  43.9870310  14.9669182  73.4649086
  76.4926156  45.7207157  18.6988145  76.1359938  45.7846494  19.5847971
  76.3186987  46.5771286  18.3082468  65.8640528  51.8529797  85.4505920
  65.6559944  52.7109241  85.0806332  65.6967211  51.9494534  86.3881016
  48.2273865  28.4420967  80.9842014  48.4993267  27.5991154  80.6213474
  49.0448380  28.9244556  81.1080456  11.3361144  32.3433232  79.9236345
  10.4910183  32.1266127  79.5298338  11.1412299  33.0565643  80.5315304
  79.3383368 100.8483471  14.1051084  79.7369774 100.8565535  13.2349092
  79.5393475  99.9793400  14.4524557  89.7166252  24.4086790  46.7413425
  89.0575600  24.5329809  46.0584021  89.3390846  24.8236370  47.5169086
  78.8674402  35.1488686  68.5340023  78.8915205  35.9585786  68.0240774
  78.9516258  34.4528294  67.8823328   3.6319820  79.8864592  14.4161588
   4.0773002  80.5965342  13.9538557   2.7265827  80.1856841  14.4995290
  90.9991264  19.6884263  60.1868629  91.1210632  19.8721838  61.1183119
  90.0560188  19.7738957  60.0473261  20.0683546  20.3413255   3.0386907
  20.5688906  19.9675853   3.7639600  19.5956516  19.5973641   2.6654512
  39.3210673  36.1733317  84.5170498  38.8904953  35.4209948  84.1110516
  39.3103433  36.8496776  83.8397884  72.5851870  26.4918494  73.8089085
  72.7489233  25.6547308  74.2432499  71.6671801  26.6849136  73.9992285
  48.3481789  15.7848889  14.7105104  48.0265618  15.2809340  13.9629728
  48.4280491  16.6795499  14.3796999  99.6143731  48.2866038   3.3684999
  99.7666844  49.1804995   3.0619318  99.1087206  47.8757827   2.6672346
  55.1745462  14.9774742  77.0206738  54.2397022  14.9261236  76.8215132
  55.6022549  14.9768329  76.1643457 103.9573582  84.4666852   5.2957708
 103.1269845  84.0048088   5.4114515 104.6126708  83.8791837   5.6721288
  62.3554516  20.4736686  79.1600895  62.7402782  19.8948610  78.5019684
  62.1919870  19.9053001  79.9127293  55.5488443   7.7605265  81.7618656
  54.8792744   8.3679312  81.4472771  55.9776068   7.4439335  80.9667778
  45.0127498  80.0733263  74.6692371  45.5037490  79.5623714  74.0257502
  44.9338333  80.9421737  74.2753983  77.4209698  53.3228756  33.5090620
  78.1471880  53.8866575  33.7754995  77.1184309  52.9210578  34.3234617
  83.8303757  62.4803782  80.5208778  83.2522202  62.0706320  79.8773909
  84.6932888  62.4727631  80.1067066  39.8110342   8.0340773   1.0648233
  39.7888899   7.4322612   0.3208047  40.3789187   7.6038415   1.7040617
  11.7545569  43.2671928  82.2778988  11.7052412  42.4432802  82.7626228
  11.1003518  43.8290262  82.6933384   9.0506538   2.0248987  49.8311138
   8.3093818   2.5073561  49.4650650   8.7978728   1.8489552  50.7374144
  76.0417318  45.2999449  86.3333416  76.4872408  46.1446667  86.2685108
  75.2081871  45.4335260  85.8821297  81.4566239 100.0428308   8.1346208
  82.3383721 100.1997770   7.7967912  80.9200629 100.7240118   7.7292425
  22.9215375  87.8202087  72.5586081  23.2914058  88.6844868  72.3784590
  21.9781295  87.9348452  72.4442768  79.2249632  26.0375404  53.4429169
  79.1230917  25.2050734  53.9042759  79.9990273  25.9137797  52.8936052
  76.4124775   1.9565873  73.1464720  75.5107260   2.2132769  73.3393145
  76.5924835   1.2392703  73.7541628  93.0634411  49.7596725   3.0566198
  93.2025107  48.8625441   2.7532178  93.8572939  50.2265233   2.7956945
  91.4902687  34.1973877  58.6215115  91.1757088  33.3542919  58.9478207
  90.7791424  34.5204926  58.0682230  52.1963970  91.9915421  73.4391928
  51.9768421  91.5638156  74.2668915  51.3512603  92.2503538  73.0717802
  39.5538378   4.3305737   1.3987047  39.8176766   4.0821177   0.5127603
  39.0849495   3.5656840   1.7323476  71.0753489  12.3904645  52.6955223
  72.0055819  12.1866465  52.7922583  70.8966112  13.0277395  53.3870173
  43.4198753  93.2204033  55.7077694  43.5742609  92.4779505  55.1236820
  44.1862766  93.2376129  56.2809753  26.9762651  99.8393027  73.8371897
  26.7159359  99.3372958  73.0648899  27.8952495  99.6090821  73.9739227
  71.0015297  16.3903654  83.4110641  70.5203056  15.6371963  83.0684471
  71.1560535  16.9441640  82.6457787  92.1857548  20.8417130  87.3169231
  92.0002460  21.6616702  86.8592262  91.6578197  20.8876157  88.1140423
   6.7862837  48.7810545  17.8185350   6.8322412  48.3248015  18.6587411
   7.4852316  48.3894171  17.2947771  86.3307190  34.8194718  79.7231817
  85.6803894  34.7575855  80.4228020  85.8382130  34.6414709  78.9219427
  52.1964312  23.3680058  63.8770580  51.8577337  24.2010856  63.5491991
  52.8267336  23.6153388  64.5536518  92.3803957  78.6931290   3.8259965
  92.3761805  79.3207373   3.1032831  93.2974013  78.6451997   4.0962488
  51.9986010   7.3658538  58.0166149  52.4924660   7.3394281  58.8361502
  52.5991344   7.0068341  57.3634005  46.2407923  48.0138636  68.6339521
  46.2468815  47.1090126  68.3217907  47.1659231  48.2419634  68.7252378
  42.7840797  55.5954380   5.8991128  43.5712043  55.0811295   6.0784227
  42.9172985  56.4125760   6.3794977  70.7225513  24.1574931  53.2644939
  71.1864901  24.9933696  53.2165003  70.4341316  24.0955830  54.1751051
  99.5191535  60.8929105  40.8780366  98.8606413  61.3374258  41.4118940
 100.2109869  60.6589372  41.4967901  70.8546400   5.7514983  80.8761215
  69.9706697   5.6658053  81.2331772  71.2481260   6.4643925  81.3792896
  68.9323568  23.8799000  70.2937984  69.1165304  24.1428423  71.1955595
  68.4886456  24.6360874  69.9096918  54.3458986  46.4069176  73.1902456
  54.2709398  45.4597902  73.0737495  54.0383387  46.7751932  72.3619890
  65.1422834  36.4697146  71.2748432  64.4114304  36.7998028  70.7522249
  65.8211851  36.2619066  70.6328630  74.8957443  16.5274155  56.1776257
  74.8181915  17.2200644  56.8337154  75.6699085  16.7660475  55.6677675
  77.5907620  80.0682439  12.2174818  76.9394740  80.7071699  11.9279558
  78.2989939  80.1414598  11.5777284  91.3529682  26.5201163  78.8742161
  91.0508919  26.9179153  78.0576754  91.8878841  27.1979427  79.2873144
  36.3060943  46.6462122  15.9969217  36.0930053  46.3317038  15.1183301
  35.5714790  46.3585676  16.5389902  85.6079578  48.7273502  68.2795286
  85.9634399  48.0143642  68.8101053  84.6756744  48.7450266  68.4958076
  93.0885895  71.8182959  12.6790220  93.3931025  72.5974549  13.1442243
  92.2074231  72.0456399  12.3822195  85.3325280  19.2467107  36.6283876
  85.4727705  19.4988669  35.7157022  84.7972353  18.4547461  36.5785200
  16.1104186  22.0249510  50.2454138  15.4195579  21.6010427  50.7545710
  15.7418426  22.1104193  49.3661690  88.3352375  18.5390604  73.9265442
  88.9260864  17.8397381  74.2059708  88.4065437  19.2016780  74.6136284
  94.5991611  52.9815149  74.5060635  94.1614628  53.7913036  74.2436028
  95.0460625  52.6832104  73.7138939  44.8838806  38.3185911  73.5072470
  44.0467310  38.6133409  73.8657665  45.4932404  39.0294528  73.7062263
   9.1848739  41.8257046  75.4590321   8.4332450  42.3939848  75.2906370
   9.0180000  41.4588404  76.3272429  56.0927343  39.9114060  65.1298380
  56.3134718  40.5081606  64.4147253  55.4914999  40.4112816  65.6819868
  15.6136549  25.5374575  75.5179787  16.5606809  25.6762290  75.5072594
  15.3861010  25.5100918  76.4473343  32.0372105  19.0989310  30.0205404
  31.1642027  19.4890887  29.9773103  31.8945503  18.2349402  30.4070646
  90.7823753  32.3851752  83.5687160  90.0663567  32.2401357  82.9502392
  90.7871056  33.3315825  83.7119770  99.8110580   7.0703566  75.1725101
  99.3115711   6.4659792  75.7215786  99.9229336   6.6044319  74.3438816
  35.2155828  19.8438811  77.5147629  36.0942411  20.2035761  77.6364660
  34.9242783  20.2018332  76.6761684  85.1898479  18.1200683  74.5186186
  85.2626133  17.6401472  75.3436089  86.0948277  18.3104098  74.2716265
  93.2816037  65.3526594  11.4719755  92.8051384  64.7282614  12.0190984
  94.2040404  65.1392485  11.6127092  14.9114410  78.3766211  12.5828821
  14.5020096  77.8048243  11.9335348  14.2041008  78.5948957  13.1897241
  62.7668428  13.4956884  56.3561392  63.3204222  13.9741266  55.7389879
  63.0822325  12.5930786  56.3107920  98.1736477  89.1989650   9.0849382
  98.7795790  88.4706296   9.2213422  98.5505875  89.9213900   9.5871812
  31.9872856  31.8904216  29.0016061  31.1103439  32.2738749  28.9885026
  32.5727463  32.6252181  28.8184625  36.5250436  98.9679382  51.9056988
  37.2994796  98.6124007  51.4697266  36.3149396  99.7605843  51.4119387
  87.0798969  28.3712673  60.7026958  87.9176331  28.5747194  61.1186838
  86.4390182  28.8907361  61.1881351  97.1397686  62.3748112  74.5072651
  96.6845798  61.5863800  74.2116022  97.0491314  62.3606205  75.4600573
  41.0675287   5.5829579  21.5118772  41.7116738   6.2746770  21.3607866
  40.6011915   5.5040080  20.6796915  57.7592278  29.7745585  38.8571119
  58.1363344  28.8959098  38.9018059  58.4815979  30.3574157  39.0909648
  36.1709587  91.3216943  65.4308462  35.3084508  91.2642808  65.8419561
  36.7886678  91.2263484  66.1558151 106.6727932  80.8743895   5.7380659
 106.1371144  80.9986104   4.9545843 107.4117430  80.3432764   5.4412443
  80.7553959  21.0037351  67.0413160  80.4561996  21.2072802  66.1551571
  80.6935310  21.8350005  67.5118542  84.3447455  89.8984279  12.9297048
  84.4331177  89.3542160  12.1472436  84.2275532  90.7863439  12.5919229
  76.2858963  35.3243947  66.8362761  76.9051075  34.8420429  67.3841381
  75.5287790  35.4716086  67.4031401  71.4588928  40.8053589  66.0054541
  71.2001324  41.0295296  66.8993330  71.1702108  39.8997402  65.8925247
  31.4705801  11.6758687  19.7241193  31.4500475  12.3842103  19.0806467
  30.7012320  11.1442811  19.5197851  81.1198235  32.3297930  87.7061558
  81.4732742  32.3812366  88.5942173  81.4804363  33.0960870  87.2600842
  69.8109102  33.4366655  71.5909529  70.6491852  33.7939739  71.8839598
  69.2586088  34.2057753  71.4507103 103.9078625  49.9463774  13.5228807
 103.1956299  50.5641206  13.3575040 104.5222720  50.0909951  12.8032857
 100.6807995  52.2479105  62.0682383 100.8484459  53.1340075  61.7473745
  99.7279263  52.1966505  62.1433163  59.7934723  27.5495195  61.0849285
  60.3134060  28.2300687  61.5124226  60.2628613  27.3650932  60.2713585
  48.4524202  32.2143364  54.1990948  48.9277029  31.5776157  54.7328806
  49.1373777  32.7481294  53.7964392 105.7743033  71.6152586   4.2609483
 105.4839238  72.5121178   4.0949518 106.5813263  71.5270604   3.7538415
  15.7168476  91.2529816   5.7520181  15.8753959  91.5693153   4.8626215
  15.7598678  92.0387520   6.2969381  70.5786800  45.7574797  76.9901705
  70.8055735  44.8478985  76.7967510  70.3436279  45.7535839  77.9180574
  97.3720551  36.6839075  71.5934992  96.4249420  36.6311884  71.7216635
  97.4750805  36.9980264  70.6951952  65.5431469  99.1331400  25.9554750
  65.4883846  99.2820753  25.0115186  66.1454209  99.8074545  26.2697965
   2.6288398  49.6759748  66.0505867   1.9187816  50.2809715  65.8360481
   2.2079929  48.9840078  66.5607786   5.4807750  95.1174082   6.3802511
   5.5044691  95.8311809   7.0175916   4.9094669  94.4602598   6.7777330
  36.2599039   3.1852776   3.3833200  35.8545351   3.9831883   3.0438310
  36.0544729   2.5158984   2.7306539 104.2852783  29.5646095  46.2195063
 103.9745617  30.4534006  46.0470438 103.7740898  29.0130448  45.6273127
   6.8513719  75.9172906   1.4075834   6.4694254  76.7422594   1.1079580
   7.7283231  76.1548222   1.7088586  73.7391186   0.7962138  18.1857950
  74.5014095   0.4031665  17.7607709  73.9850521   0.8584220  19.1087705
  10.0409404  74.7110189  39.8866254   9.4504444  75.0622453  40.5531007
   9.9952594  75.3429617  39.1691381   1.4597217  97.8139271  11.4841348
   2.0408003  98.0405439  12.2102434   1.2521354  98.6528839  11.0726911
  75.1291084  38.7445307  76.3402891  75.7050276  38.2970929  75.7203293
  74.2889500  38.2939029  76.2548447  85.2880192  35.1462793  86.4985466
  85.5892277  35.2803230  87.3971844  84.6824646  35.8700848  86.3384247
  93.2334805  55.1768923  73.3859444  93.4838104  56.0336399  73.0401945
  92.3310280  55.2929354  73.6831713  50.9830379  14.9142301  84.0624619
  50.3318310  15.6153905  84.0393066  50.5795479  14.1964006  83.5744572
  88.6625671  39.7930479  57.1830654  89.1403294  39.1501403  56.6589928
  87.8952694  39.3186092  57.5030518  87.1878242  46.7789507  70.8216667
  86.8244553  46.8954182  71.6995239  87.6395893  45.9359074  70.8593512
  52.8839970  11.5090377  30.4373151  53.6647034  12.0320422  30.6194955
  53.0931568  10.6395633  30.7786352 100.2342987  43.5609102  53.8581038
 100.2430725  43.3427668  54.7900724 100.7034683  44.3933916  53.8025475
  87.5096989  37.2659373  54.9002361  87.4037170  36.6102290  54.2110014
  88.1631088  36.8899584  55.4900837  81.1409092  40.8530426  61.1788034
  81.2525940  40.3671360  60.3617048  81.9334698  40.6629705  61.6807508
  83.5645103  34.8463726  60.9019566  83.5325050  35.7655430  61.1671591
  82.6505375  34.6113610  60.7417345  87.6069355  16.4703107  83.3212185
  87.5523663  17.2364092  82.7499580  87.0484734  15.8170354  82.8998089
   4.0395625  41.2090206  55.3621960   4.6263488  41.4884281  54.6594477
   4.2734702  40.2943659  55.5200815  79.9461842  28.7324357  50.0162840
  80.5846596  28.1543159  49.5987272  80.1203156  29.5943880  49.6381998
   8.6880104  84.5274676   2.2615224   8.3451931  84.9062241   3.0709917
   9.0850059  85.2665223   1.8006212  27.2412539  19.7590501   2.8488142
  27.0868445  19.2638738   3.6532861  26.8586636  20.6195886   3.0200750
 102.2258099  79.8009409   7.3305208 101.5198000  79.8425759   7.9755384
 102.5296362  78.8939418   7.3661882 100.4236507  25.5029941  81.4238071
 100.8114338  25.2113795  80.5986977 101.0040760  25.1512170  82.0987797
  35.8565021   0.7382927  65.7707262  35.8024240   0.2286976  66.5791941
  36.7047930   0.5024309  65.3952265   8.6671432  30.4265523  78.9934492
   8.3431228  30.8875942  79.7671986   8.7845596  29.5224380  79.2850399
  21.9360145  45.9021187  63.4595394  21.9020541  44.9462175  63.4231281
  21.5638431  46.1226559  64.3134022  46.7292595  33.6074090  73.0830812
  47.1110821  34.4850278  73.0679989  46.2520170  33.5395980  72.2561121
  20.6160347  90.5974163   5.0411684  20.6973163  90.6495799   4.0888483
  19.7289554  90.2692403   5.1882154   1.9673816  81.5168179   6.6516477
   1.5439741  80.8136834   6.1591417   2.5396291  81.9445027   6.0145837
  96.3426169  74.3269314   4.9326402  95.5381640  74.8444666   4.8973733
  96.5093668  74.0811218   4.0226919  77.0468092  10.6630683  87.0262432
  76.8357611   9.7694802  87.2967720  77.2179556  10.5948365  86.0869408
   2.5862447  95.2648224  13.0850202   2.3896352  95.1240314  12.1588689
   3.2546226  94.6110166  13.2900602  68.0367279  14.4612026  55.4513454
  68.3566141  15.2649236  55.0415468  67.3209667  14.7495997  56.0176945
  61.8408728  64.7551250  81.7921352  61.8060970  64.2729998  82.6183224
  61.0193157  65.2456474  81.7663097  89.7447300  75.4860592  87.7148533
  89.4093037  75.7091808  88.5831547  90.2739048  76.2421894  87.4609470
  66.9654973  94.9015535  18.2607538  66.2589487  95.4668917  18.5728723
  67.3044308  95.3479971  17.4848348  83.6196709  22.5172782  76.0949469
  83.8376331  23.4367037  75.9420347  83.3693886  22.1839476  75.2332687
  81.5434933  64.8310709  80.3973579  81.6936302  65.3630447  81.1788273
  82.1696472  65.1661539  79.7555780  54.1447878  18.1783772  61.9595051
  54.5781946  18.6525929  61.2499189  54.1915417  17.2591174  61.6968107
  85.3954697  39.3822598  86.4764690  84.6969795  39.3483186  85.8228683
  86.2030697  39.3079877  85.9680367  35.4817772   1.7541463   8.8767511
  36.0587931   1.2540633   8.2995206  34.7190666   1.9575078   8.3353216
   4.7486870  87.5767650  45.2007181   5.0383035  87.8950108  46.0557443
   5.3640834  87.9658426  44.5793134  64.2012119  24.8795152  73.7795734
  63.5471725  25.4394841  73.3613634  63.7557364  24.0411782  73.9019394
 104.1180237  63.5825933   0.8512002 103.1811484  63.5503067   1.0447294
 104.3141945  64.5161189   0.7719690  32.5553981  86.9360460   5.3066904
  32.7736179  87.4299015   4.5162946  31.8225662  86.3782276   5.0458795
  45.0375549  87.0024146  18.0603105  45.8271400  87.3757614  17.6686365
  45.3112976  86.7273702  18.9353162  65.5556774  70.7265186  77.5544786
  65.7298040  70.0266600  78.1838512  64.8204708  70.4029989  77.0338631
  84.9647427  30.2497149  81.0755062  85.3242874  29.3636966  81.0315800
  85.5727959  30.7272291  81.6398621  92.7703722  78.5169591   6.7885000
  93.3877190  78.4413351   6.0609132  91.9551571  78.8101376   6.3814336
 106.7778492  46.8703127  66.8912935 106.7170811  47.4657011  66.1442709
 106.7356014  45.9957314  66.5045738  73.0534840  54.7635794  87.4304962
  73.7645817  54.1275549  87.5082493  72.4513674  54.3733883  86.7969036
  70.0738525  38.9500165  83.4638309  70.8434105  38.3812237  83.4419537
  70.3313637  39.6798253  84.0271187  69.9590016  14.2471177  28.5071355
  70.0731182  13.5292012  27.8843957  69.1017342  14.0876729  28.9020044
  20.2197830  90.7872142  16.1543542  19.3584148  91.1304249  15.9166891
  20.6881611  90.7186116  15.3224069  79.8899126   9.4333559  79.9821043
  80.1768780   8.5796601  80.3062725  79.7986889   9.3123507  79.0369749
  70.2417994  26.8856525  76.7244816  70.9678602  27.4706960  76.9407940
  70.1958656  26.9042277  75.7685614  43.3738701  80.5877818  23.0699140
  43.0356304  81.2081732  22.4242097  42.6621429  80.4882707  23.7021905
   6.2301914  66.1581387   6.5381509   5.7087747  66.9538344   6.4321977
   6.8012563  66.3434996   7.2836477  17.3677302  12.3201281  25.4196149
  16.4509344  12.5951249  25.4098684  17.3309040  11.3636357  25.4183847
  96.2528610  36.9950604  48.4543657  96.2935925  36.0451746  48.3435059
  96.4327335  37.1356416  49.3839407  62.6852608  33.9651752  66.4771080
  63.2089949  34.6449590  66.0530472  61.9164419  33.8695717  65.9149551
  89.9199772  81.1575317  80.6667137  90.4601765  81.6047192  81.3181973
  89.5540905  81.8634033  80.1336861  96.8620777  57.9065275  84.5009899
  96.9044495  57.3660803  85.2898884  95.9884167  57.7433872  84.1455460
  44.5768929  29.2706687  24.9614793  43.9655876  28.5405881  24.8638898
  45.3861237  28.9615495  24.5542604  29.8359863  93.1941248  55.6214714
  29.1268007  92.5594170  55.5193329  29.4042484  93.9862413  55.9414482
  80.9483624  27.6867986  69.5862770  81.7298222  28.2305193  69.4866943
  80.6317425  27.5564957  68.6924076  97.1763039  49.3224239  65.5633354
  96.5383625  49.9709702  65.8610678  97.7080822  49.1367197  66.3372612
  44.1933823  19.1712529   4.9847394  44.7139454  18.3782393   4.8567754
  43.3463240  18.9683587   4.5878011  49.0923929  40.5693007  79.3659115
  49.6944571  40.2196789  78.7090158  49.6613312  40.9708595  80.0226402
  98.2788714  93.9333261   0.9994680  99.1888197  94.1447081   1.2081319
  98.1458386  93.0592789   1.3663084  73.3963823  37.4878502  80.4150200
  73.3106279  38.4387112  80.4838657  72.6643133  37.2209692  79.8590708
  61.4804173  31.5420151  78.5888052  61.4318657  31.4877033  79.5432281
  62.1637821  30.9165955  78.3477688  17.1747629  92.9496086  61.8410158
  17.7684871  92.7036870  62.5504112  16.6012947  93.6115558  62.2272730
  85.3278454  87.9352178   4.3962461  84.5894106  87.8059162   3.8010770
  85.6470736  88.8147320   4.1943056  55.3414869  15.6534648  69.7176170
  55.7751894  16.2664580  69.1240072  56.0583973  15.2258372  70.1860285
  94.7120150  72.6572336   0.8467752  93.8314255  72.3746718   1.0936529
  95.2096852  71.8439425   0.7624418  48.4559727  15.6928158  78.2555294
  48.8497829  15.1137447  77.6029778  48.7489986  15.3408229  79.0960455
 104.4169998  78.7349606  79.8685932 103.9674664  77.9398298  80.1548004
 105.3447914  78.4995079  79.8706818  47.4200487  34.2451596  66.9495678
  47.4832821  34.0619850  66.0121870  48.2064581  33.8487911  67.3246479
  82.7287102  30.9539628  85.8751583  83.6245441  31.2909865  85.8868885
  82.3105431  31.3587642  86.6350937  71.8285513  36.1859941  51.4143038
  71.8441010  37.0342493  50.9710693  71.2853909  36.3305306  52.1891022
  23.6407367  51.0099708  29.3504316  23.7081806  51.1195958  28.4019166
  23.1706421  50.1838241  29.4632226   4.3070404  71.8585099  13.1001550
   4.8321811  71.5897001  12.3463613   4.8926727  72.4146189  13.6139757
  65.7529163  12.7605045  85.2854538  65.9130716  11.8480468  85.5262852
  65.0363779  13.0368006  85.8568192  30.9198666   2.7747161   1.9683439
  31.8225527   2.4647529   1.8954832  30.8865595   3.5493094   1.4069921
  55.5440704  98.9319052   6.7723924  55.5156223  98.7321581   5.8367044
  55.5282680  98.0759825   7.2006113  88.9515305  28.4902859  63.9814615
  89.3661690  28.1791830  63.1767750  88.3500481  29.1760445  63.6913157
 101.9575175  71.7512359   1.6150838 102.1288784  71.0032214   2.1872121
 102.7192744  72.3195137   1.7291814  86.6853809  23.6887336  64.1155291
  87.3886776  23.4031296  64.6986532  86.7319584  24.6446133  64.1343641
  78.2037306   6.1401749  71.5920877  77.4861145   6.7736185  71.5958691
  77.7778769   5.2967250  71.4388752  80.3309917   9.5711827  55.1106453
  79.7481489  10.0643206  54.5332861  79.9087811   9.6119148  55.9687328
  52.6873589  32.0411777  74.1102362  52.7178574  32.9941392  74.0255785
  52.9829741  31.7156076  73.2600307  95.2187347  48.5292053  68.0826759
  94.5727348  49.1515541  68.4167337  94.8404884  47.6693916  68.2667398
 101.2209424  69.6025182  13.7948114 100.7404860  69.6919490  14.6178514
 102.0573481  69.2113019  14.0470201 104.7345551  72.2182669   1.1860925
 105.3643759  72.7559055   0.7059843 105.2463587  71.4729394   1.5003759
  46.2067127   5.3507668  15.9204275  46.1590576   5.6697995  16.8216402
  45.4666615   4.7490365  15.8399183  38.5852051   6.9516713  29.8997003
  38.2908058   7.7524096  29.4656736  37.9932881   6.2724692  29.5763475
  99.6563911  79.8120832  75.3921413  99.7664738  78.8624191  75.3447485
  98.7085438  79.9421263  75.4223013  56.1696148   4.2805344  19.9855405
  55.8801270   4.6134717  20.8350069  56.9182491   3.7203271  20.1903421
  71.5638638  25.5631709  68.6767101  72.4494028  25.3998256  68.3520985
  70.9905434  25.1998496  68.0017805  80.8191681  30.2757525  74.6813822
  81.2156963  29.5504808  75.1640606  80.2370548  29.8532772  74.0498066
  63.4337226  97.9485280  84.9729824  63.4379856  97.6734761  84.0561676
  62.5076000  97.9626960  85.2144909 100.0634106  80.3438486   1.2789136
 100.0613507  80.4705275   2.2276956 100.7398280  79.6838702   1.1268693
  83.4754848  15.2408147  70.7429981  83.1922245  16.1312592  70.5353880
  83.0398464  14.6926022  70.0903797  68.8282347  19.9451876  57.7151918
  68.1813765  20.5166674  58.1289721  68.3098888  19.2469776  57.3151207
  51.0063640  74.5168270  28.3435995  50.6385509  75.3653468  28.5904962
  50.5460540  73.8860310  28.8971788 104.9549103  50.3313494  67.7410603
 104.6378231  49.9793625  68.5728025 104.2120075  50.8223391  67.3899841
  76.4107800  31.3523316  85.7689285  76.7356968  30.9914732  84.9440384
  76.7516994  30.7608747  86.4398861  77.2775412  57.0508146  83.4196568
  78.0822372  57.3675966  83.0093479  76.5752554  57.4019623  82.8721905
 100.5831528  24.8811746  78.8249397 100.9571743  24.4319510  78.0669594
  99.9657917  24.2509365  79.1962814  50.9095574   8.7362201  20.9230119
  50.7378388   9.1359050  20.0703699  51.8153668   8.9740521  21.1209566
  78.3607960  30.4460001  71.2795877  79.1147089  29.8641443  71.3759708
  78.0054426  30.2365041  70.4158354   4.9625762   9.7444141  64.5770407
   4.9298652  10.3250551  63.8167667   5.5608161   9.0436566  64.3176603
  63.9023860  73.4082498   0.7252389  63.9211162  73.9678682   1.5015775
  63.1800660  72.8008713   0.8851797  75.4144859  27.5998170   7.6285821
  74.9166489  28.3404548   7.2823984  76.2595081  27.9744727   7.8771860
  93.7812042   0.4767656  84.7695732  93.6572647   0.7096526  83.8494492
  93.5170937  -0.4417930  84.8218155  80.0634098  21.8577647  74.8162365
  79.1129732  21.7974782  74.7199821  80.3406620  22.4309087  74.1014814
  72.0682955  24.9762011  65.9312010  72.8131104  24.7196054  66.4749336
  72.4625826  25.4066801  65.1726103  70.5876628  99.5774972  87.6097393
  70.3204433  99.7993981  88.5016918  70.1878730  98.7234540  87.4454021
  57.1660614   5.6243760   1.0927660  56.4869881   5.0277383   1.4076025
  57.9403496   5.3996188   1.6087038  29.8621647  85.9263886  12.7233964
  29.0340988  85.7488169  12.2772962  30.4945938  85.3516997  12.2921258
  82.2416782  47.9702234  74.5918369  82.3908997  47.2301626  75.1802921
  83.1150436  48.2094097  74.2815828  78.3809471  33.3306384  57.5568438
  79.2627430  33.0891132  57.2734165  77.8098726  33.0186653  56.8548632
  77.8140736  17.0353801   2.6826746  77.5011540  16.4088303   3.3351690
  77.0781994  17.6336057   2.5528509  68.1113100  76.1954308  56.3436890
  68.8240433  75.5566931  56.3278294  67.5825071  75.9454823  57.1014023
  89.5371819  76.0700560  71.7038822  89.9944305  76.4189959  70.9387732
  88.6296844  76.3523769  71.5899372  65.0323486   1.3980348   6.5535337
  64.5197773   2.1855456   6.3709718  64.4153309   0.8045537   6.9816667
   1.0992519  90.3529586  34.1096479   0.2064554  90.6297578  33.9034063
   1.0445682  90.0140895  35.0031835  98.6644936  32.4160600  51.8875551
  99.3642712  32.8608656  51.4093351  97.9078293  32.9955316  51.7987156
  86.7168713  27.9519582  80.3532410  87.6295567  28.0310440  80.6307125
  86.7678356  27.6989961  79.4314814  71.0594368  18.6159856  17.9220659
  70.5173493  18.8602979  18.6721784  71.8747234  19.1015965  18.0474550
  83.3760166  59.0629339  63.8833809  83.7636566  58.2222033  63.6401987
  82.4319553  58.9062214  63.8630772  88.7142849  15.0968444  71.0751295
  88.3220100  14.8396981  71.9095325  88.0540276  15.6527460  70.6612873
  60.0895119  82.7899837  87.6019287  60.2291727  83.4866619  88.2433128
  59.1461468  82.7990913  87.4400139  75.0586748  89.0182877  82.7985764
  74.5113230  89.6349335  82.3123837  75.6165409  88.6165428  82.1325302
  15.6024353  70.1806535   1.4754850  15.7097236  71.1072077   1.2605077
  14.7074787  69.9742950   1.2058813  80.0256729  55.6374359  74.9912214
  79.7884560  54.7145510  74.9003887  80.3579235  55.7124090  75.8857679
  96.0543823  37.3879099  75.8273649  96.9628620  37.6116967  75.6253338
  95.9275723  36.5240693  75.4350281  27.2994415  82.7878083   0.9166318
  27.3014442  83.7404741   1.0096818  26.3962833  82.5309051   1.1024648
  39.7335005   0.7156379  22.2777349  39.7974110   1.3715608  21.5835363
  38.7953377   0.5442674  22.3597032   0.8780273  55.0100136  60.3797197
   0.8344157  55.9200144  60.0860834   1.7141994  54.6891594  60.0419378
  71.6359138  44.5979404  87.7547836  71.8870687  44.1427183  88.5584831
  72.2666931  45.3137875  87.6778698   5.3981773  86.2781681  13.3293516
   5.9819357  86.9792689  13.6190397   5.1053659  85.8603324  14.1392309
   8.2724277  99.5764841   3.7137682   8.8866226  99.9870314   4.3224222
   8.2340900  98.6616720   3.9928514  33.5364238  91.4818252  10.0202161
  34.4442455  91.4642776   9.7172720  33.2844059  90.5600323  10.0751668
  76.7708302  64.4591522  54.9929905  75.8708096  64.1355181  55.0311375
  76.9914436  64.4442558  54.0616798  69.0095091  61.4671278  74.2909002
  68.3032179  61.4729691  74.9369240  68.9111948  62.2952557  73.8210392
  19.8013488  87.2637738  36.2526781  20.7398407  87.2290934  36.0675603
  19.4024364  86.7245544  35.5697805 106.3518238  30.2704954  88.0880547
 106.6430759  30.8661532  87.3976994 105.3964996  30.2854609  88.0300140
  81.6651249  24.2423606  65.5126667  81.9168854  25.0693250  65.1015997
  81.6685772  23.6078382  64.7960091  39.9499417  32.0295054   3.2625848
  39.8343992  32.1729380   2.3232729  39.9036408  31.0791690   3.3672315
  25.4534427  93.3418001  12.1109182  24.8781482  94.0504135  11.8225748
  25.4861252  92.7416576  11.3659460  83.7627792  36.7078447  73.0951071
  83.9198303  36.5201783  72.1697140  83.6185932  37.6535988  73.1265831
  66.7742920   8.4919412   5.7669813  67.1547508   8.8031537   4.9456197
  65.9807587   9.0158040   5.8770258 100.4713821  68.2980442  77.2718573
 100.6333256  68.1397200  78.2018805  99.5358944  68.4944677  77.2216797
   2.2517053  94.6584286  24.1381246   1.5269272  94.1740002  23.7428171
   2.9312889  94.6649803  23.4640581 103.2748699  64.1021872  78.6564684
 103.0686760  63.3161068  78.1507111 104.1959763  63.9985561  78.8953066
  60.5673409  85.6727982  69.9513817  60.0153732  86.4338493  69.7714901
  60.2956724  85.0216293  69.3045330  55.6050197  95.3892244  18.0276758
  56.4687244  95.6990827  17.7552015  55.6176368  94.4504084  17.8414232
  17.6768351  30.8868319  33.6441690  16.8869019  31.1646563  34.1079027
  18.2981348  30.6686122  34.3388731  79.9339390  74.6082211  84.3335342
  80.4784012  75.3416586  84.6196365  79.5707703  74.8924351  83.4947491
  30.6417179   1.2066562  22.5893575  30.2162266   0.3648383  22.7522451
  30.9965372   1.4642865  23.4402162  81.3561630  70.5661774  71.7503595
  80.7460117  71.2272215  71.4233065  82.2175598  70.8761024  71.4707470
  55.9354107  91.8791737  11.7781526  56.5537731  92.5995506  11.9003088
  55.1064102  92.2146572  12.1193677  16.6892767  18.4893185   8.8088209
  16.1196041  17.8717954   9.2674715  17.2992230  18.7961633   9.4796735
  66.8239880   9.2220265  33.2088930  66.3282299  10.0058610  32.9721242
  67.5836086   9.5544392  33.6871320  61.8799202  99.7801842   9.0317995
  62.1478264 100.0928272   9.8959238  62.1985332 100.4490436   8.4257108
   2.2707446  30.4687572  63.4339285   2.9886039  31.0924506  63.3247614
   1.5079578  30.9146929  63.0657959  89.9801350  33.8666940  62.6939774
  90.8692074  34.2204475  62.6689720  89.4941616  34.4790387  63.2463312
  98.6910248  83.5287952  49.3520498  97.9162979  83.9694309  49.7011423
  99.0631676  83.0673885  50.1036072  86.3833714  42.0236921  75.7921362
  85.5012035  42.3577547  75.9546423  86.6460419  41.6269922  76.6227198
  82.0252800  70.3552341  65.7287931  82.5481319  71.1422586  65.8818960
  82.0772552  70.2132750  64.7836065  75.8737421  48.2469416  54.8640633
  76.1333609  47.8173304  55.6790876  75.1290464  47.7342463  54.5497370
   7.3632320  48.7289000  84.7686672   7.6218589  48.2556057  85.5594540
   7.9382499  49.4938755  84.7485447   7.8224738  48.5374832  67.9967833
   7.4982055  49.4362068  67.9386282   8.3522208  48.5251093  68.7939358
  60.8553696   7.5232846  10.3774244  61.0892964   6.6928965   9.9627382
  60.2556133   7.9395778   9.7583753  26.9068702  60.3906775  58.4548187
  26.6559013  60.0552320  57.5941706  26.4112743  61.2041998  58.5486412
  19.5597641  84.4479002  15.6444150  19.8951141  83.8246526  16.2888795
  20.0441353  85.2551879  15.8173448  97.0146179  64.8636913  87.5645161
  97.8450012  65.1139164  87.9695892  96.4257240  65.5939627  87.7546406
  67.4634934   1.7292029  12.7306730  67.9322720   1.0226161  13.1747514
  66.6721440   1.8573768  13.2537061  64.4722930 100.0167412  67.4571276
  64.6856395  99.1115726  67.2304487  63.7854759 100.2632696  66.8376637
  61.3011551   4.1907889   3.1867487  60.5384731   3.7630946   3.5761434
  61.1560631   5.1245362   3.3393842  92.9585648  41.6820908  76.1584234
  92.1334934  41.2119770  76.0381269  93.1739044  41.5553904  77.0824432
  63.1523323   4.4736583  11.5970880  62.3173332   4.6611411  12.0258695
  63.6462021   3.9702088  12.2442800   0.8214323 100.2744020  14.2939836
   1.1491052  99.3759693  14.2530424   1.6078798 100.8183636  14.2511159
  12.4476051  32.4313552  27.4584657  11.7964268  32.3624427  26.7602903
  12.4057341  31.5879256  27.9091436  90.8023548   8.8218850  87.7888298
  90.3188896   8.4190643  88.5100937  90.2275658   9.5203447  87.4757767
  27.3908281  49.7784049  11.8084985  27.1580124  50.1135642  10.9426481
  27.5768566  48.8506228  11.6641218  59.1123009  38.7370021   6.0607225
  59.2721272  39.0986068   6.9324667  58.2644844  39.0989787   5.8030206
   2.0795051  90.0590171   7.3187906   1.8708364  89.3837871   7.9643613
   2.9255191  89.7928537   6.9587308  25.4243136   0.0421483  10.9245283
  25.1666832   0.0829512  10.0035554  25.3073168   0.9362037  11.2458021
   9.2784301  95.9980501   3.2949049   9.8724930  96.6632570   2.9473192
   9.8201172  95.4813160   3.8913805  90.6877422  46.1792803  78.0779123
  90.0405502  45.7681704  78.6509418  91.4806080  45.6567144  78.1983948
  68.2304287  65.9569836  57.1512365  69.0172434  65.5503130  57.5142384
  68.2756662  65.7710838  56.2133503  37.4494831  80.8357681  40.8431703
  36.5561287  80.6962670  40.5290205  37.4830333  80.3756322  41.6818506
  45.9016037   3.9593465  41.0957986  46.1295509   4.7742230  40.6483060
  45.2021504   4.2059667  41.7009241  94.1563320  71.7629671  77.1185827
  93.4728909  71.4238977  76.5405083  94.3417263  71.0411978  77.7193403
  88.6467266  81.5387344  55.8444500  88.4750175  81.2385178  54.9519110
  87.7960587  81.8398571  56.1636782  52.2873211  36.8571860  19.5437223
  52.8633595  36.2380797  19.0952665  51.4316940  36.7277533  19.1346056
  96.2067223  58.4495068  49.8357296  96.2501812  59.3636799  50.1161385
  96.0759640  58.4954500  48.8886166  14.0022803   7.0589549   1.5517313
  14.6712208   6.6946275   0.9720594  13.3843088   6.3403565   1.6857320
   3.4818061  44.4850540  56.6316652   3.3672794  43.5804605  56.3404274
   3.6030944  44.4182062  57.5787926  97.7119168  85.5605544  19.8382074
  97.0543393  86.0613359  20.3209573  98.0836256  84.9642528  20.4881937
  11.1069568  69.8475790  70.3606367  10.5327876  69.2541790  69.8764467
  10.5665382  70.6194925  70.5289507   7.2308238  57.0480633  75.5283833
   6.3723930  56.8793821  75.9168053   7.0376094  57.3363733  74.6363258
  66.3123369  70.1051760  71.9127798  66.2587738  70.7109690  71.1736059
  65.8312607  70.5418730  72.6156950  47.9855442   0.0064427   3.9204866
  47.2903919   0.6149918   3.6701471  48.7872315   0.5276400   3.8771135
 106.1670168  85.3641356   9.0671140 105.3887852  85.8379044   8.7736398
 106.3593062  84.7546567   8.3545190  94.2446041  57.9068327  83.3567810
  93.5306740  58.4701586  83.0581284  93.8593769  57.0313644  83.3939934
  88.7260723  60.3262329  83.5794449  88.8103867  61.1855221  83.1662273
  88.1842899  59.8210716  82.9732132  76.5130615  62.7884340  78.6297226
  76.1379385  63.5257912  78.1482410  76.9208527  63.1869984  79.3985415
   0.8711608 100.3925037  86.3393307   0.8663257  99.9411011  85.4952717
  -0.0520627 100.5651855  86.5238857 100.5590685  99.8628582  14.5757276
  99.7115859  99.9306072  14.1359216 100.3575333  99.9824871  15.5037862
  86.2102127  63.4845400  77.4159908  86.2663841  62.6235962  77.0014381
  86.7667675  64.0466642  76.8770123  80.0529766  49.5621204  76.0911512
  80.6729031  48.8680744  75.8670425  79.3961000  49.1295576  76.6367102
  61.8651009  33.9259726   4.4632703  61.2841892  34.2672641   5.1431829
  62.5334454  33.4364898   4.9428064  86.9375992  50.2538729  37.4259639
  87.3160839  49.7382927  38.1381130  87.6484394  50.8288383  37.1425080
   2.3046954  56.6689491  53.4980154   2.7091964  55.9216452  53.9386415
   2.1003802  56.3473940  52.6199007 102.9898167  33.1765556  76.9508982
 103.6701870  33.6400604  76.4625406 102.7000046  33.8045406  77.6126194
  19.5977402  66.8708140  10.0901872  19.0578365  66.1953933   9.6796495
  20.4880572  66.5212924  10.0528127  85.4269409  88.4928703  47.1718264
  86.0317898  89.2340088  47.1385145  85.8882236  87.8301811  47.6859188
 100.0878620  66.3648701  69.2702770  99.1444969  66.5196848  69.3185520
 100.3734398  66.8629932  68.5044098  95.3222847  79.9019766  67.8772020
  96.2519836  79.8966360  67.6494837  95.2668858  79.3689394  68.6703157
  40.7664156  27.3257262   9.6667558  40.7465172  28.1721980  10.1132089
  40.6801224  26.6820008  10.3698904  54.2583370  33.9664084   5.7141859
  54.6397019  33.3259875   5.1136285  54.6738625  33.7819297   6.5565187
  99.2750645  88.0486774  81.2073231  98.8795853  88.8029099  80.7703400
  99.9248600  88.4281826  81.7989159   1.2936195  54.2391062  63.7090349
   1.8766673  54.2680740  64.4676161   1.6054710  54.9429989  63.1402445
  74.7503424  49.3913841  79.6262598  75.5793142  48.9765882  79.8649645
  74.2324638  48.6859417  79.2384672  10.1206581  95.9752907  13.7698633
   9.5928089  96.6915335  13.4168798  10.8821003  95.9313311  13.1914979
  88.5807228  55.3243351  75.9633303  87.7988243  55.1778793  75.4309607
  88.5441208  54.6433973  76.6350555  82.0415974  20.5576856  19.4936067
  81.4209843  20.9799773  18.8996870  81.9927025  19.6282822  19.2698747
  11.4337333  38.0449796  79.0545273  11.6402133  37.1199584  78.9206123
  11.2526591  38.3795595  78.1761742 101.4665087  87.0926131   3.8353902
 100.8637055  87.4478473   3.1821901 102.0340594  86.5012564   3.3410055
  83.9120102  70.9051132  49.7072506  83.0041599  71.0092354  49.4223070
  83.8458538  70.6235361  50.6197023  80.8252907  61.6472769  72.4869537
  81.4031601  61.1784458  71.8848753  81.4187908  62.0757771  73.1036997
  13.2677738  87.6538528  33.6230070  12.5360004  87.2655500  33.1434709
  12.8613273  88.0745591  34.3806631 100.9438419  17.9970491  76.9342661
 100.8053780  17.0549440  76.8368053 100.9422112  18.1427693  77.8803110
 106.4017200  39.7142482  68.2459354 107.2361469  40.0759602  68.5444736
 106.6169357  38.8308334  67.9467869  90.3957375  78.2913293  22.6815492
  90.6960257  78.5758342  23.5447485  89.6224268  77.7565946  22.8612119
  83.0255795  37.5646305  60.7186508  82.1014309  37.5000286  60.4778242
  83.4697533  37.7981138  59.9035263  51.1785499  85.7462872   4.2761976
  50.3138725  85.3387441   4.3259889  51.4455311  85.6309618   3.3642465
  78.0804157  39.2748737  75.0894308  78.0312634  38.3847141  74.7409534
  79.0141153  39.4216132  75.2407837  35.4337303  70.8719684  30.1594430
  34.5287410  70.8268119  30.4679472  35.4228393  70.4163815  29.3176824
   6.9418319  21.5003467  66.5903330   6.2889560  21.6360974  65.9036303
   7.7580245  21.3403392  66.1165667  18.7293037  33.0236316  72.7363777
  18.3132632  32.3356581  72.2169209  19.6574863  32.9668927  72.5094700
  58.1836033  16.2779004   3.4433157  57.5673580  15.8946568   4.0674860
  57.6735306  16.3897664   2.6411039   8.8229640  69.2011023  80.9484100
   8.4820064  69.9743557  81.3979053   8.7452110  69.4112873  80.0178146
  96.2593174  33.0361819  69.5441961  97.1982098  32.9483438  69.7084856
  96.0243893  32.2408915  69.0661240  39.7157947  10.5387156  50.0419712
  40.5465976  10.9630530  49.8276424  39.9408046   9.8992293  50.7177401
  79.6189404  87.9833603  80.7869053  80.1138210  88.6993790  81.1852169
  79.9151278  87.2003174  81.2509632 101.3241673  33.7881303  53.7244368
 102.2440624  33.9898562  53.5531807 100.9271336  34.6349764  53.9280367
  99.9228764  42.7700996  60.7013321  99.9974537  42.5092649  61.6192865
 100.2109623  42.0010233  60.2096415 104.0895804  95.9760536   6.7676336
 104.1369351  95.2213968   7.3545629 104.8535307  95.8848823   6.1981565
  95.0093555  34.3167186  67.0703173  94.4238949  35.0432801  66.8568325
  94.4289875  33.6299968  67.3986721  73.9311218  30.7827759  67.7781248
  74.5229340  30.6562805  67.0365143  73.9179993  29.9345422  68.2214737
  97.6387215  77.4460745  54.3158579  97.5743008  76.9111681  53.5246849
  98.4575748  77.1685600  54.7265768  44.6309471   3.5553939  13.6789781
  44.3709374   3.0606467  14.4560510  44.5306873   2.9360444  12.9560739
  55.7672978   0.9926230  11.0182554  56.2932396   1.0833032  11.8128568
  55.1529408   0.2860124  11.2170106  46.3273040  98.0636372  13.6303407
  47.0162288  98.3024706  13.0101949  45.8721630  98.8860668  13.8111478
  52.2797060  63.5873318  84.8112106  51.7205334  62.9187155  85.2068138
  52.1712923  64.3539238  85.3740692  48.0368233   8.5653264  17.5260431
  47.6625538   8.8684756  18.3532411  47.2810459   8.2861192  17.0092470
  33.9004413  93.0389656  14.0481741  33.6454193  92.4857773  14.7865469
  33.6475078  93.9233650  14.3129236  19.8812278  29.2796588  78.5761261
  20.4317649  28.5962558  78.9583683  19.0373595  29.1820550  79.0172434
  81.0529613  32.2785211  58.5042477  80.8627319  31.5146136  57.9597378
  81.3295078  32.9524112  57.8832626  75.6659031  19.9773318   6.2864000
  75.5735779  20.8092410   5.8220369  75.2702236  20.1362044   7.1433908
  94.5065022  73.4495211  81.0781765  94.5009899  74.4053936  81.1282730
  93.9028168  73.2435942  80.3644657 101.0377884  69.9015331  85.6068134
 100.9584999  69.9583054  86.5590286 101.9289112  69.5847940  85.4591370
  27.7567188  54.8072214  12.0307428  28.2195083  53.9851148  12.1926004
  27.6218311  55.1815651  12.9013139  33.2283672  70.1762676  77.8106403
  33.3856185  70.9847116  78.2984161  33.8616069  70.2023125  77.0933104
  40.3093330  73.7295236   6.3277990  39.7501079  73.3438219   5.6534559
  40.4212944  74.6399321   6.0542089  53.1832687  74.8560752   5.1219446
  53.5948269  74.2659820   4.4905645  53.4125988  75.7331742   4.8148042
  19.6093448  41.8393278  82.3733997  19.7263892  41.3027477  81.5894222
  19.6388515  41.2144756  83.0979061  80.5989742  37.4035883  59.6370411
  80.5718708  36.7371511  58.9504862  79.6869278  37.5037551  59.9097395
   1.9729407  57.2901440  72.7035093   2.2027190  58.1582069  72.3720074
   1.6454967  56.8199062  71.9367743 105.3926381  60.2272560  20.1973611
 106.2589129  60.0276406  19.8424608 104.7827061  59.9263258  19.5238191
  81.9933701  69.1873789  74.1499472  82.8419304  68.7481642  74.2071009
  81.9135094  69.4352007  73.2288408  44.7518341  90.4771508  24.1491968
  45.0250236  91.3260044  23.8012678  45.5545799  90.0933660  24.5021040
  56.9111443   5.3052337   8.9969141  56.6056156   5.4503877   9.8923570
  56.3919163   4.5645720   8.6837846  39.2736960  22.4409444  17.0739442
  39.4651890  22.7263600  17.9673082  39.7181320  21.5971858  16.9916231
   5.6050952  33.9143682  65.6589746   6.4211448  33.8947630  66.1588860
   5.6003268  34.7759366  65.2419472   5.1457198  47.6713133  66.6236019
   5.8187183  47.7946758  67.2930002   4.6892055  48.5117579  66.5851974
  69.8747921  77.9473209  80.2301884  69.5868301  77.8416967  79.3234587
  70.6973505  78.4325171  80.1652813  17.2243587  79.1875471   8.4789259
  16.4204876  79.5498146   8.8514596  17.4002926  79.7332801   7.7124673
 101.7732334  66.1413527  71.7521429 101.1931801  66.3793707  71.0288811
 102.4854565  65.6543493  71.3376570  44.7030163  37.7334983  21.4704496
  44.5998669  37.2988135  20.6239015  45.6315899  37.9623610  21.5106088
  25.3105251  65.6895722  13.3963186  26.1673347  65.9712566  13.7168676
  24.7212879  65.8231117  14.1387445  31.5959247  51.1627626  84.4548607
  31.5656074  51.1554909  85.4115582  32.5287040  51.2094593  84.2451477
   6.2948028  68.3485235  34.0543348   6.7184011  68.8396789  33.3503801
   6.4301769  68.8847484  34.8355943  38.9019386  94.4006027  17.6966745
  39.4491092  95.1858486  17.7115804  38.2631580  94.5669140  17.0034677
  91.6098595  34.6069789  73.2640219  91.1612129  34.2062378  74.0085697
  92.4703217  34.1879177  73.2490540  75.3358746  34.5101595  61.4982605
  75.8549070  35.1735997  61.0436392  75.8564043  34.2859364  62.2696257
 100.0755692  62.2683287  63.7699890 100.1140594  62.4778748  64.7031784
  99.2757034  62.6942158  63.4616709  96.8066978  73.0579376  78.6035013
  97.4894810  72.3944855  78.7028885  95.9894276  72.5866556  78.7653399
  91.0196781  41.9683790  44.1022253  91.1798000  42.8025436  43.6609030
  91.8399429  41.4846849  44.0050697   8.2667343  87.3967232   0.7867223
   8.3477680  88.2895245   1.1222440   7.5443212  87.4409141   0.1603014
  10.9983428  58.3754492  46.7506361  10.7043155  57.5132942  46.4565754
  10.3252299  58.6600828  47.3688030  86.0817909  21.3090205  61.9669247
  85.7914066  22.1271634  61.5637398  85.8851814  21.4175630  62.8974056
  70.6648350  11.9826753   9.1317636  71.5368557  11.9415576   9.5243627
  70.7923031  11.6792399   8.2329256  36.0766459  22.8789861   6.0437471
  35.4809523  23.1359107   5.3399259  36.5710640  22.1432835   5.6824667
  80.1561356  92.5175095  80.4158592  79.8958063  92.2762108  79.5269108
  80.7590008  93.2516003  80.2979469  23.8974754  72.5592030   8.3705503
  23.7303154  73.4168137   8.7614423  23.1041423  72.3647059   7.8715211
  62.8085041  24.4193751  12.3380929  62.7401543  24.4247634  11.3833601
  61.9012451  24.4251830  12.6432020   8.7035258  54.8355055  77.9150534
   8.3332332  55.2271700  78.7060785   9.3436034  55.4771709  77.6071453
 105.7202244  43.3341694  60.0344753 104.7696209  43.4462643  60.0393772
 106.0651875  44.2059183  60.2275610  89.6810150  71.5827942  81.0217857
  90.2138233  72.2539520  81.4482880  90.2591515  71.2025166  80.3604412
  58.7707043  48.7892253  12.5510580  58.9134026  48.0038077  12.0228654
  59.6038056  49.2589385  12.5117284 106.8165874  91.1168289  64.7919130
 107.1537495  90.2752876  65.0990963 105.8784103  91.0814762  64.9784756
  54.6060276  47.5736434   2.8000146  53.9593125  47.2267920   3.4145719
  54.6343231  48.5120971   2.9864008  91.0341835  45.4330254  71.7321777
  91.0569572  45.1031017  72.6304340  91.9520378  45.4539728  71.4613724
  74.0511894  68.2221460  66.5696430  74.6054792  68.4109068  67.3268509
  73.1946278  68.0177784  66.9448423  71.5121078  75.4024124  77.6899815
  72.0163822  75.1160240  78.4515047  70.6098318  75.1563025  77.8938484
   1.0082992  30.3674579  68.3481359   1.0786994  31.2905431  68.5914230
   0.3013690  30.0283027  68.8971806  51.6022396   4.2806775   1.2559968
  52.5032425   4.4761426   1.5133554  51.0822201   4.9772698   1.6567022
  59.6540451  41.9819075  21.5436822  59.0079117  41.4618785  21.0658628
  59.9208260  41.4216525  22.2724897  99.3897820  64.5342636  60.9917974
  98.8656616  65.0650215  60.3919363  98.8374519  64.4330025  61.7669773
  93.9359188  22.1530485  74.6707916  94.5808601  22.3233724  75.3572798
  93.9474869  22.9427719  74.1300201  71.8047420  65.5162014   4.1270525
  71.0037033  64.9940492   4.1708261  72.2303764  65.3731634   4.9724084
  10.7172767  84.2217411  13.1073934  10.8834926  85.0468744  13.5631925
   9.7665779  84.1160215  13.1424791  87.4277592  72.9439306  44.5757580
  87.0712948  72.0665407  44.4366646  87.5544167  73.2935953  43.6937571
 100.9514141  58.0551195  67.6418543 101.7046356  58.5010004  67.2544527
 100.2014828  58.3685303  67.1362782  87.4243069  87.0066357  83.9126873
  87.5587082  87.5207138  83.1165218  87.2253990  86.1248875  83.5977364
   4.4713195  64.0884495  51.3577652   3.6423763  64.5347452  51.1848211
   5.1301559  64.6301222  50.9233093   8.7479957  74.6862841  71.6864252
   8.9809116  75.5374622  71.3156509   7.9646095  74.8588133  72.2087097
  64.7079468  62.3810148  67.3902941  65.5769634  62.6300192  67.7050018
  64.8362637  62.1856403  66.4620686  76.3706779  70.5579805  83.7252712
  76.3632250  70.0536776  84.5388126  77.1745634  71.0755205  83.7716484
  67.4074936  18.5572106  14.5950872  67.3801518  18.2120377  15.4874593
  68.0536366  18.0114657  14.1468793  21.7742999  93.0774498  70.5638885
  21.8692859  94.0295029  70.5353022  20.8380016  92.9261875  70.4346800
  45.4749298   1.2547309   3.0674154  44.6244526   1.3721806   3.4906560
  45.3379440   0.5363852   2.4497968 100.9598446   3.9656380  80.9694386
 100.6851768   3.5514191  81.7874908 100.9401703   3.2585528  80.3245544
  93.4425259  95.2249718  86.2494564  93.4645748  94.2795849  86.1011410
  93.4901333  95.6061268  85.3727150  64.1864347  56.3631773  79.5248699
  64.6511412  57.1980858  79.4682550  63.6248732  56.4533567  80.2947712
 106.6865826  65.2301550  77.3059607 106.3233471  66.1055994  77.4396992
 106.5798855  64.7947979  78.1517220  56.3861744  88.2045402  11.8890173
  55.7222644  87.5171627  11.9434911  56.2315361  88.6202015  11.0407621
  15.1433261  32.5634074  57.8648376  15.3178008  32.8032994  56.9547606
  14.1885074  32.5570345  57.9320192  91.8223000  34.4103432  69.1500378
  92.5222683  34.8999262  69.5819998  91.0879421  34.4515133  69.7626114
   1.7029842  71.3779354  58.2848120   1.0861667  70.8515120  58.7933779
   1.1633952  72.0608807  57.8864861  21.5834315  64.4218206  85.8405304
  22.3348888  63.8363934  85.9344578  20.8732017  63.9757967  86.3018894
  80.6584835  16.3854892  24.6219617  80.6594563  15.8022363  23.8629800
  79.8339367  16.8667514  24.5531255 102.3087597  42.8227711  74.4698000
 102.2267723  43.7162590  74.8032522 102.9335022  42.4028444  75.0610638
  86.0431862  78.7410116  79.2680311  85.1580620  78.4858561  79.0078688
  86.1740589  78.3194971  80.1173973 103.9163971  76.0550070  61.8465805
 103.1392384  75.9637260  62.3978710 104.6508503  76.0114527  62.4588823
  42.7220138  81.0507870  65.5977917  43.2303031  80.9062099  64.7996807
  43.2266315  81.6991138  66.0889769  97.5633717  56.0483360  65.4056835
  97.0105457  55.2805710  65.2602196  98.3163643  55.7126141  65.8920240
  46.3909912   9.9356229  49.2184717  46.9525623   9.2087657  49.4878179
  47.0007706  10.6346423  48.9823133  76.1784172  33.8749034   2.8613264
  75.9192181  34.7661597   2.6274473  76.0226727  33.3639438   2.0670396
  12.8438083  13.9814132  53.0034304  12.9153053  14.6920245  53.6407375
  12.6938240  14.4233840  52.1677256  89.3103600  48.2951069  86.6492462
  89.2699718  47.8659058  87.5038719  89.7389603  49.1333294  86.8222046
  53.0674076  10.2735812  11.6583997  53.7320233   9.6046025  11.8226892
  52.7750874  10.5399472  12.5300771  92.8019619  77.1847582  77.0913267
  91.8719673  77.0801401  76.8903637  93.1547356  76.2954044  77.0625782
  80.1372624  28.2937199   7.4735910  79.7103405  29.1504104   7.4668676
  79.4154072  27.6661021   7.4382383  54.3467522  70.5401230  80.5869961
  54.7140598  69.8006392  80.1027584  54.9175739  71.2767696  80.3684807
  54.9940109   3.4061868  15.8799631  55.6045151   4.1362054  15.9828073
  55.4862785   2.6392228  16.1726457  82.5727177  12.2788739  83.6556911
  83.1534290  12.1251059  84.4009113  82.0289516  13.0193245  83.9245605
  10.3403934  80.3494644  66.3082647  10.6307014  79.5142221  66.6747665
   9.6596988  80.1111889  65.6788874 105.1206875  29.2623591  73.0135298
 104.7287655  29.5160818  72.1779108 105.8922863  29.8227453  73.0961514
  94.5036316  61.0107136  76.9847822  94.6942806  61.8028164  77.4872351
  94.4941521  61.3019323  76.0730076  68.1845474  37.0180988  78.0897808
  68.2855749  37.8993702  78.4494829  67.6734257  37.1429229  77.2901535
  87.1041966  46.1054046  17.0525533  86.2694073  46.5602786  17.1641237
  87.4387264  45.9969622  17.9428178  94.4611645  39.3222260  77.9332066
  93.7358475  39.5007300  78.5317707  95.2402496  39.6120048  78.4078407
 102.2901154  11.1364210  71.1152744 101.7437744  11.8428373  71.4598322
 101.8620205  10.3345251  71.4151478  21.3667480  96.0642876  16.8984014
  21.8601219  95.3127493  16.5697557  21.1430160  96.5654196  16.1141569
   1.2033733  48.0954170  67.6285028   1.2526878  47.5760508  68.4310389
   0.3883346  47.8155756  67.2118092 106.5884590  61.5261078  34.8054361
 106.9406414  62.3571777  35.1240563 105.6492043  61.6845226  34.7108841
  81.9635963  79.1165686  67.9785585  82.0056438  79.7940826  68.6534166
  82.7750778  78.6204720  68.0863380 105.3059292  34.2186427  67.1259880
 104.7103882  33.5773301  66.7383289 105.8344746  34.5295882  66.3910103
  41.2455074  99.5148624   0.2909071  40.5823604  99.4158138  -0.3922099
  41.2756721  98.6603321   0.7211381  10.3325351  32.4882841  87.8979492
  10.1814635  33.3747625  87.5699902  10.1103576  31.9191813  87.1610737
 107.9745293  74.8334885  37.5317287 107.0512390  75.0712585  37.6167774
 108.2662487  75.2852964  36.7398953  33.0206187  40.0420094  78.2498074
  33.9223273  39.7308588  78.1701756  32.8759750  40.5619764  77.4592733
  61.8407393  93.0776310  11.0508704  61.1531639  92.4118042  11.0387146
  61.7100906  93.5716438  10.2414763  64.4101191  66.2146235  82.9132462
  65.0243807  66.9033813  82.6592159  64.1805983  65.7829523  82.0903111
  97.4612331  60.6652641  62.1775723  96.9844913  59.8562908  62.3633528
  96.7831421  61.2882376  61.9161749  82.9598808  74.3626833  63.3627224
  83.0319309  74.8536396  62.5441837  82.4622345  73.5791254  63.1290245
   6.0912975  52.9987192  49.8470736   6.8875201  52.8121853  49.3496180
   6.1872466  53.9113665  50.1192951  71.0239792   1.1084563  17.9139215
  71.9235420   1.4304072  17.9718668  70.7150173   1.4131791  17.0607454
  98.5188770  52.3934364  74.0960169  98.3663273  52.1489859  73.1832170
  98.0335808  51.7422581  74.6026659  87.0226479  85.3608799  76.1896563
  86.5317822  84.5604992  76.0034609  86.4334583  86.0691071  75.9298229
  81.1118889  40.0900459  58.5838985  80.5994892  39.2816019  58.5938787
  81.9315720  39.8487854  58.1524611  86.7253780  75.9190464  46.9175959
  86.2740326  75.7590961  46.0887766  86.0243893  75.9593821  47.5681543
  50.8249370   3.3168643  74.9274540  50.7632629   2.4930709  75.4109716
  51.6884319   3.2886546  74.5153809  28.0801288  93.7161983  29.1834241
  28.7188427  93.2280363  28.6638338  27.2472278  93.2757105  29.0146619
   9.2769607  52.3644114  79.9701929  10.1586612  52.3878288  80.3420639
   9.3158801  52.9623604  79.2237473  81.7481041  36.1699295  67.4410915
  82.3830986  36.0503364  66.7348957  81.4221573  37.0619559  67.3215866
  80.8167935  20.3892047  25.9337026  81.6166401  19.9787099  26.2622911
  80.9272480  21.3196380  26.1294729  11.5210040  70.6629324  44.4107723
  11.6168960  70.5389118  45.3550482  10.6767066  71.1028576  44.3115044
   1.1463531  88.6674404  61.4182901   1.5777763  89.0123844  60.6365538
   0.8378680  87.7994061  61.1582994  79.3034554  76.8741083  60.7185316
  78.3543491  76.9078350  60.5989790  79.4341898  76.2333870  61.4175415
  75.0780249  85.9443569  61.3902235  75.0233555  85.1917076  61.9790888
  75.8870268  86.3886642  61.6438818  59.8578739  39.4109733  -0.0981253
  58.9985752  39.0852744  -0.3660220  60.0429154  38.9525039   0.7215101
   2.9897483  55.0784302  65.8883524   3.4789355  55.2648449  65.0869942
   3.6523994  54.7730684  66.5079308  40.1216555  13.6088092  25.9391862
  40.7089949  13.3916098  26.6631300  40.7001782  13.9413316  25.2529127
  88.9539146  55.3475952  57.5529528  89.0133667  55.5372667  56.6166210
  88.5281467  56.1189651  57.9270315  86.3961029   1.0996253  10.0545484
  87.0280552   0.5625922  10.5325300  86.9134808   1.5288932   9.3731672
  99.5589828  62.0068741  86.2945271  98.9880657  62.2368813  87.0275879
  99.0374088  62.1990919  85.5152702  78.5887241  67.2183323  78.6814976
  78.6520624  67.1417618  77.7294731  79.4965649  67.1988535  78.9842796
  73.2684803  91.0045433  41.5648460  73.1558132  90.2622795  42.1586323
  73.3983088  90.6054783  40.7045364  79.2893553  72.1777678  77.0941496
  79.5339537  71.4817047  76.4843178  78.9532518  71.7160368  77.8623104
  69.6393919  70.6154919  39.4635797  70.2110958  69.8532343  39.3722224
  69.6293592  71.0130835  38.5929179  50.3503418  12.4890334   3.0155927
  49.7342110  12.8573233   2.3823530  50.8068085  13.2494027   3.3757383
  80.2312565  76.1960554  66.6797113  80.1254559  77.1393490  66.8031406
  81.0948467  76.1024904  66.2775946  26.1316856  26.6381884  58.4299898
  25.4008754  26.8523955  57.8501081  26.9041045  26.9759917  57.9766703
  66.5316200  33.1465251  13.0368024  65.8809281  32.5542361  13.4136850
  66.4350033  33.9574439  13.5361082  96.9974232  84.3921089  69.2304277
  97.2859383  85.2942181  69.0919352  96.0543060  84.4622993  69.3781948
 105.3833866  70.8703470  80.8861446 105.0509453  70.0992632  81.3456631
 104.6057415  71.4023304  80.7173347  11.4109882  99.4096947  49.3699074
  11.2338527  98.4869385  49.1872215  12.2855552  99.5612049  49.0115833
  95.1955986  85.5144501  66.1405706  96.0698128  85.5459309  65.7519913
  94.8442841  86.3954544  66.0115910   3.0545982  85.2659893  65.4388952
   2.6828845  84.5232868  64.9630260   3.5234721  85.7674026  64.7718382
  90.9631920  70.3061056  83.9097309  90.0197601  70.4485989  83.8331604
  91.0500336  69.6370125  84.5887089  78.0444813   5.5398423   2.4371797
  78.2821369   4.6976334   2.8250295  78.3720207   5.4908950   1.5390855
  22.1584495  71.8014431  70.2767992  22.8550418  71.2325144  70.6043863
  21.3551219  71.4318085  70.6432199  11.1136611  81.7412281  71.2052155
  11.6035255  82.5372219  71.4117670  11.1130126  81.7017841  70.2488279
   8.6280243  82.4028839   4.8371774   8.0317489  83.0384792   5.2330476
   9.5017711  82.7504076   5.0161344  90.4279804  91.8395519  69.7210360
  90.9507656  91.1325073  70.0991964  89.5853329  91.4328098  69.5192051
   4.9653474   5.9491103  67.6785660   5.7532159   6.2998717  67.2632885
   5.1656572   5.9537261  68.6145639  71.1919308  24.0819079   8.9148981
  71.9883537  24.5645434   8.6935216  70.7754898  24.6074159   9.5980150
   8.2727321  65.8755255  48.1982279   8.6432059  65.1202869  48.6549473
   7.3309215  65.8134317  48.3575392   8.3961185  87.3163509  80.1739788
   7.6951488  86.7501163  80.4968548   7.9884799  88.1783962  80.0907040
  53.5938597  67.9786921  68.2852793  53.3148527  68.5445213  67.5653982
  53.4708452  67.0896292  67.9526186   0.4342158  63.3105278  70.8478403
   0.1628097  62.8126812  70.0766659   1.3851150  63.2051897  70.8784771
  48.0631630  95.6920923   1.9636709  47.1131984  95.5763019   1.9835931
  48.1960575  96.6172613   2.1701509  36.7349712   3.4490245  65.2430201
  36.6552822   3.6405509  66.1774731  36.3803474   2.5649684  65.1486349
  95.9529114  63.1980133  82.4546242  96.4976597  62.7094030  83.0716705
  95.7404709  64.0104723  82.9139805  76.6931629  64.8843479  73.9055634
  75.9855270  64.3298674  73.5768747  77.1185493  65.2221298  73.1174135
  30.2699741  75.8297539  59.2586994  31.0494693  75.3120184  59.0573025
  29.5370944  75.2588511  59.0280771  68.1268597  27.0940787  11.4755899
  67.2375775  27.3719985  11.6950780  68.3856011  27.6670987  10.7538301
  77.3937225  54.4343233  87.6939678  76.7354584  53.7721157  87.4832535
  78.0667448  53.9570904  88.1792736  76.0150003  57.8765297  86.8133545
  75.4024315  57.5297260  86.1647224  76.2511015  58.7425041  86.4808178
 102.6826859  88.2701683  71.7892504 102.6544094  87.8664207  72.6566696
 103.1608200  87.6418686  71.2480879  87.1755600  18.7626082  30.2926332
  87.2136974  17.8064639  30.3162843  88.0743694  19.0336043  30.1056940
   5.7454673  87.8048362  20.3891355   5.5227844  86.9736589  20.8084089
   6.7023889  87.8271831  20.3948671  76.3418865  61.1702442  74.8951912
  77.0472193  61.0536051  74.2586899  76.4558983  60.4488468  75.5139160
  98.8889027  95.9355164  50.7160044  99.1553020  96.8456078  50.5856037
  98.2382202  95.9745121  51.4169550  97.6053333  96.1233521  67.1818161
  97.8943348  96.9579220  67.5508738  98.4101963  95.6157017  67.0783186
  17.0802100  81.2085819  75.6684589  17.8134998  80.6440258  75.9129667
  16.3898547  80.6020164  75.4006577  92.5680256  69.3085051  70.1048088
  92.3713303  68.4889317  70.5585098  91.7640591  69.5180225  69.6294355
 100.4702091  40.7223368  72.7795029 101.3947392  40.5824804  72.9842281
 100.0963688  41.0734224  73.5877228  14.5645984  69.3614101  52.5921917
  13.7835963  69.3035698  52.0418119  15.2584251  69.6406889  51.9948292
  56.0757629  95.5234350   5.6497270  55.7251350  96.2030758   5.0740701
  57.0182220  95.6895508   5.6700593  94.9228573  40.0785930   7.2067338
  94.7231674  39.7968299   6.3140089  95.8632946  39.9272067   7.3009664
  85.8590603  61.1292648  83.4175396  86.0406494  60.6103992  82.6339340
  85.9660625  60.5135679  84.1425896   5.1416246  77.5946869  17.9578287
   5.3293268  78.4936584  17.6879198   5.9786407  77.1386303  17.8703481
  77.6410389  28.7913656  65.7723093  77.1787596  29.6261382  65.8476830
  77.0678329  28.2481313  65.2314186  31.0875018  34.9851537  59.3685675
  31.8582423  35.4838777  59.0975046  31.2044604  34.1252279  58.9647388
  95.5427456  78.1544590  56.8979549  95.8518314  77.7690506  56.0781050
  96.0374928  78.9696789  56.9808817  89.7195721  10.4660661  38.9318067
  90.5617905  10.9207684  38.9199239  89.1649342  11.0039622  39.4968587
   3.7669166  47.6320648  71.6666126   3.4577544  48.5379314  71.6739702
   3.8111861  47.3865795  72.5907373  98.2715225  68.9748240  79.7512293
  98.6375046  69.3850899  78.9676714  97.6871681  69.6382093  80.1182270
  75.6731415  74.2725229  62.4083805  75.7452631  73.3937407  62.0358610
  76.2125206  74.2427015  63.1985807  90.8967781   4.8702151   6.6052324
  91.4999485   5.6111962   6.6633112  90.8746243   4.5093877   7.4915487
 103.7567425  93.7078857  73.0098343 103.2446480  92.9047585  72.9150772
 104.2970085  93.7419987  72.2204113  90.7619476  30.0659949  37.3783571
  90.3754044  30.7676799  37.9022390  90.3609181  29.2655379  37.7169687
   7.0727523  63.6637974  80.1243973   6.7069991  64.1804886  80.8423710
   7.3508151  64.3137169  79.4790268  82.4730301  34.5210648  74.3781710
  83.1942940  34.8908448  73.8689709  82.1468163  35.2548003  74.8991776
  77.2793770   8.1309087   2.8271848  77.6029587   7.2376782   2.7103120
  76.4081955   8.0220754   3.2085496  30.6726535  69.8989296  78.7289953
  30.6714900  70.4500723  77.9463863  31.5939315  69.6772671  78.8644648
  -0.1296536  77.7980566  52.7537107  -0.4280392  77.0406485  52.2501898
   0.6285651  78.1242657  52.2690153  82.1901608  66.0357332  74.2604494
  81.7058468  66.6077137  73.6650467  81.8476009  66.2485170  75.1285553
  16.2345298  62.0488167  79.9130917  16.0475715  62.9508591  79.6531057
  17.0242484  62.1131325  80.4501724  26.4923620  61.1212928  24.3511182
  26.5784598  60.8543116  23.4359437  25.5905199  60.8983714  24.5818121
  79.2542934  63.9094067  72.1790361  79.6745157  64.4455624  72.8514767
  79.8228693  63.1442022  72.0928955  29.5063480  85.7852936  80.9383202
  29.1141685  84.9158669  81.0191059  30.1309474  85.8344841  81.6619778
 107.4388409  64.1962576  32.2972584 108.3805847  64.1065741  32.1513152
 107.1210098  63.2963228  32.3702979  59.8162079  46.0081012  14.0485364
  60.4603863  46.6133315  13.6811906  59.9336720  46.0792357  14.9958402
 100.5733681  95.0975132  85.1629162  99.6526146  95.3159523  85.0189304
 100.8987331  95.7947731  85.7322979  75.8382893  75.4621410  73.5837698
  75.5267811  75.8295727  74.4109249  75.1156855  74.9138927  73.2780027
 102.7130985  54.7520018  76.2033033 102.9501820  55.0361967  75.3205490
 102.6113605  55.5653858  76.6975546   2.1165546  45.1920414  82.5089741
   1.7210754  45.6767464  81.7844868   3.0194457  45.5079508  82.5439072
  45.3028393  86.4723110  65.6711483  45.0055504  85.7723045  65.0899124
  44.9485111  87.2724247  65.2832031  94.8701859  66.4145136  72.0002508
  94.8682022  65.9314919  72.8266382  95.3556728  65.8530760  71.3958311
  96.0531330  46.9718361  43.3059502  96.9385433  47.1290922  42.9779959
  96.0525990  47.3504019  44.1851091  93.9316940  66.8882132  65.1911354
  93.4179497  67.1696901  65.9481525  94.8151875  67.2114801  65.3676701
  56.1678505  35.8709533  10.7199842  55.7031441  35.7503039  11.5480787
  56.7588711  36.6062743  10.8819372 107.1327782  84.6301842  85.7925701
 107.7729130  85.3363037  85.8812237 106.2839985  85.0720882  85.8156300
  97.4658203  87.2420025  53.3777475  98.3740425  86.9618797  53.2642126
  97.4841022  88.1852627  53.2160234  29.6189769  84.4350815  67.3427296
  28.7058051  84.6422768  67.1441936  30.1037296  85.2197647  67.0867634
  80.7902050  62.6840210  54.6856880  81.2262249  61.8640327  54.9175119
  81.3396931  63.0616188  53.9988708   5.0331100  56.2315369  85.0184727
   5.7960399  56.2717772  84.4418049   5.2525981  56.8123770  85.7469463
  84.2312336  49.1132879  72.9900503  84.9018860  48.4418821  73.1152534
  84.6963596  49.8430777  72.5810337  88.0738544  72.7167702  74.5720387
  88.4963799  72.4176359  73.7669182  87.7050972  71.9224262  74.9583960
   4.1595634  73.2034492  80.7787991   4.0599044  73.7810946  80.0220871
   3.7127670  73.6617994  81.4904976  70.4125881  51.3047886  84.5659351
  70.0195932  51.4219332  83.7010288  69.6664762  51.1901045  85.1544952
  11.5492519  44.9491024  77.6050138  12.3648723  45.4165602  77.4248123
  11.4887603  44.2955971  76.9082355  68.9187670  80.4330063  67.4170828
  68.7529135  80.8104801  68.2809353  69.8583078  80.2500629  67.4120092
  47.1486569  16.3281447  10.7086641  47.3523998  15.7984263   9.9378664
  47.9958534  16.4745099  11.1294443   2.0940097  52.0895147  53.8609838
   1.5482028  51.4867640  53.3559895   1.4891132  52.7698612  54.1567135
  84.3619728  85.6361961  78.7451839  83.7667274  85.6360531  77.9955721
  84.2894459  84.7537136  79.1087818  55.4446785  96.1646618  29.4414026
  55.3697483  96.4070238  30.3643686  55.1212303  96.9297995  28.9658243
  34.5558445  91.0460676  21.5850526  34.3682758  90.1079215  21.5546114
  33.8073246  91.4251627  22.0457346  87.8322124  47.7550173  66.8502045
  88.6204815  47.7908659  67.3920393  87.3312664  48.5299778  67.1045923
  11.6310199  61.6741133  65.2359200  12.1504863  61.7182875  64.4331503
  11.7429813  62.5339842  65.6412745  80.8147335  31.9941211  65.2210474
  80.9382153  32.8509188  64.8125362  80.0141716  31.6521597  64.8230553
  29.8885520  58.7572956  69.3668318  29.0138133  58.8071585  69.7522926
  30.3843768  59.4470358  69.8080206  62.8612375  76.9816017  63.0826902
  63.6146832  77.5525570  62.9324913  62.7866268  76.9291782  64.0355349
  86.7968369  91.6304874  38.3374500  86.7713547  92.4665737  38.8027883
  86.6390800  90.9738922  39.0158534  92.3993778  36.8485880  65.2369165
  91.9828129  36.0801911  65.6271267  91.7092228  37.5115800  65.2181578
   4.2551120  67.2566509  62.7394819   4.1953071  67.0670557  61.8031549
   3.3493312  67.4019623  63.0127573  88.3026791  33.1976581  77.3891878
  88.6352253  32.9400182  78.2489920  87.4751282  33.6411405  77.5755072
  31.1692039  83.2540049   2.4814302  32.0759193  83.0648841   2.7229482
  31.2218372  83.5640539   1.5773660  91.4081383  68.3045959  32.2768497
  91.3561535  68.0729389  31.3495612  90.5212021  68.5837841  32.5040650
  18.5730155  71.4921808  62.1484423  17.9377158  70.7847834  62.2589684
  19.2451461  71.1231232  61.5754986  88.1752872  77.5993252  60.0104189
  88.0120373  76.7977667  59.5133400  89.0707874  77.8462029  59.7794294
  15.2460654  31.7500925  84.0560627  16.1247810  32.1289635  84.0328121
  15.1259692  31.4793658  84.9662876 103.6521912  71.8243027  67.5364017
 103.6881065  72.5702333  66.9376326 104.5186710  71.8012285  67.9425144
  62.1725845  13.9722115  26.1074335  61.6632366  14.4861800  26.7340356
  63.0283833  14.4004447  26.0859376  81.8988506  81.6657199   2.8415853
  82.3003952  80.9506978   2.3478967  82.1039955  82.4514450   2.3348505
  44.3550205  21.6783006   9.4282133  44.0938091  22.3563821  10.0512773
  45.3063297  21.7640311   9.3657762  10.3071586 100.6462444   5.6309110
   9.9217025 101.4918055   5.8604414  10.9380333 100.8501114   4.9404985
  60.9672451   1.5082986  31.1404974  60.2847576   2.0781571  30.7859594
  61.4478493   1.2028987  30.3710920  58.2008934  11.0348565  33.1337148
  58.0660820  10.1532609  32.7860719  57.9739475  11.6159016  32.4076826
 106.1618519  26.5678120  63.5969877 105.9779167  26.6570115  62.6618719
 105.8315754  27.3783851  63.9844418  33.1274788  89.5989717  24.7687131
  32.4884407  88.9136566  24.9641687  33.9742843  89.2020716  24.9727422
  86.8063927  34.8779971   7.3260576  86.1851978  34.3704707   6.8037874
  86.3502598  35.0377757   8.1522829  99.4436455  95.4642391  76.3499355
  98.4933281  95.4694366  76.2354612  99.5863914  95.9047985  77.1876478
   2.1554073  49.0135717  48.4302425   2.8466304  48.5660172  47.9422522
   1.9481261  49.7833586  47.9004383 102.0452595  74.7072649  66.6730642
 102.2405910  74.8450041  67.5999403 102.8641224  74.3786383  66.3019848
  74.8465252  44.0638739  17.0319921  75.6664848  44.1778762  17.5125200
  74.2830563  44.7697741  17.3489076  51.1353970  25.8268697   2.6781351
  50.7214928  25.1873643   2.0985204  50.4891968  25.9785134   3.3678133
 100.5715179  90.3074169  59.5811462 100.0803280  90.9852982  60.0453138
  99.9013996  89.7873306  59.1376591  82.0272541  93.8986111  67.5221825
  81.9581890  94.5073128  68.2576656  82.5038719  94.3870354  66.8509865
  14.2132457  65.5691344   3.5315115  13.6033710  65.0519854   4.0576631
  14.6946033  66.0948092   4.1704160 102.5846863  85.7828712  51.4386749
 103.0405235  86.6213703  51.5118790 102.8814793  85.2817917  52.1983194
  15.4519733 101.2380028  82.4277401  15.0338634 100.8434582  81.6623974
  16.1992248 101.7184830  82.0713711  98.8284683  96.8325901  70.9205961
  97.9539871  97.2152996  70.9916925  99.3930721  97.4332905  71.4070272
  40.7777357   7.7410228   4.2629320  41.4621926   8.0783469   3.6850435
  41.0822535   7.9544885   5.1449377  89.4848251  36.3158423  20.2218610
  88.7260533  36.8504912  19.9880582  89.4045162  36.1863238  21.1668569
  41.4449597   8.1251819   7.3632032  40.9065008   7.3343617   7.3931676
  40.9029818   8.7996251   7.7726251  94.2827225  72.4491310  43.0737543
  95.1471329  72.7761936  43.3228731  94.3894768  72.1550560  42.1691227
  46.7282295  19.5985085  15.1077348  46.0552597  18.9682776  14.8505384
  46.9453144  20.0608403  14.2981988  77.4487019  49.4330985  11.3046152
  76.7811966  50.1158721  11.3716585  77.1825028  48.9114100  10.5475027
  26.2870208  20.8349936  40.8309841  26.7353241  21.6025012  41.1861992
  26.8498890  20.0978988  41.0678339 102.0560074  81.8932819  50.2793407
 102.1995735  82.2625637  49.4079924 102.9355621  81.7112446  50.6102180
  26.8897486  33.8829810   1.8701440  26.8498135  33.3432586   2.6596624
  26.7351723  34.7748000   2.1816045  84.3910599  85.7849979  86.6343403
  83.7129879  85.1502228  86.8656445  84.0741920  86.1905670  85.8272839
  14.8435672  70.1423693  76.1724663  14.7321399  71.0722208  76.3704252
  15.3657516  69.8035812  76.8996429  41.5410415  16.2558597  57.7993345
  40.5926315  16.2114566  57.6777983  41.8762771  16.5636867  56.9572592
  25.6491168  98.5631847  75.8486605  25.9465488  99.0103054  75.0562954
  26.3261970  98.7516212  76.4984941  50.5717373  17.2985083  22.5950033
  50.7254028  18.2157332  22.3684770  50.0163937  17.3339421  23.3738214
  85.7498837  79.7226858  67.5091600  86.5273857  80.2727032  67.6050663
  85.9551525  79.1436958  66.7750835   1.9743140  92.8450966  44.1335344
   1.9635566  92.4524784  43.2606220   1.1474307  93.3238316  44.1910410
  25.3824409  92.4779415  74.1226864  24.5926746  92.3317146  73.6019993
  25.6775363  93.3526802  73.8697386  98.5972786  51.8675900  36.4982939
  98.7304497  51.4602423  35.6423926  98.7147331  52.8040648  36.3387322
  30.5392059  79.5632601  79.2193222  30.5410274  79.1614914  78.3505249
  30.9295638  78.9013910  79.7901011  11.0393031  89.0111923  73.7796307
  10.1342757  89.2833614  73.6276817  10.9708770  88.0993843  74.0627527
 104.2996597  61.6926432  44.4210911 104.4870186  62.6300859  44.4693565
 103.6332798  61.5466976  45.0925589  30.3943245  98.1688990  10.5700666
  30.9528248  98.9340319  10.7074625  30.9707252  97.5214304  10.1641351
  10.2938636  78.4894419  84.6099091   9.4850238  78.7223959  84.1541195
  10.9792121  78.5934162  83.9498234  58.4329891   6.4242370   4.6719533
  59.3085671   6.6231543   4.3402463  58.5519791   6.3227136   5.6162912
  71.0516453  49.8084456   7.1035749  71.4693165  50.6624801   6.9921953
  70.8683109  49.7519690   8.0413610  94.8069763  83.4984589  79.9669933
  94.8024940  83.8986588  80.8365059  95.4335690  84.0207672  79.4661713
   5.1773723  30.3185129  71.4660645   4.6070464  31.0515523  71.2345314
   4.9940475  29.6535158  70.8024359  95.3981781  90.2857399  74.6562433
  94.7284508  90.5325603  74.0184593  95.3790474  90.9871960  75.3072643
  22.7403148  90.7424736  71.8476772  21.8196662  90.6694794  72.0993042
  22.8356536  91.6464138  71.5476179  74.2128658  66.5430880  69.0589428
  74.3434238  67.4913406  69.0604210  73.4102821  66.4126062  68.5539007
   1.6082080  68.6412477  68.3786964   2.2185786  69.1876364  68.8738060
   2.1292384  68.2969236  67.6532984  87.3349762  64.8367310  75.1531887
  88.0357075  64.8398256  74.5011091  86.5891075  65.2356863  74.7051477
 103.9280510  49.7421217  86.4020443 103.5997677  50.1274967  87.2144127
 104.8628712  49.6103621  86.5601063  73.9740086  32.6412207  23.1886465
  74.0934944  31.9278437  22.5617105  73.8108349  33.4124476  22.6456815
  78.3571720  26.6642911   9.1703493  77.8116131  26.0899360   8.6330301
  77.8318024  26.8302400   9.9530870 104.2379093  36.4355475  15.9263498
 105.0006294  35.8893973  15.7361013 104.4541550  36.8698890  16.7514688
  65.4999439   2.9208224  71.7657042  65.2146999   2.0203155  71.6109228
  64.9965469   3.2036441  72.5291491   9.1345676  69.6524048  78.4614182
   9.3803008  70.1550388  77.6847553   9.8425086  69.0173006  78.5695648
   6.3474448  97.7476406  68.9287901   6.8142589  97.7989960  68.0947161
   7.0096477  97.4582386  69.5564604  82.4003124  73.2805347  84.6052837
  81.5687180  73.7464714  84.5182037  82.5823689  72.9490709  83.7259579
  65.6460476   6.8485696  32.7008230  65.8032990   6.3642794  33.5113508
  66.1673641   7.6460130  32.7933008  90.3399372  87.9995632  65.6955528
  90.4106617  88.5367203  64.9064445  91.2464237  87.8201771  65.9452248
  10.3481531  49.3276412  18.1993658   9.9359369  50.1915175  18.2039911
  10.3259802  49.0467841  19.1141683  14.2419322  47.9042816  74.8857307
  13.3995040  47.5076389  74.6638584  14.2941459  47.8380299  75.8392048
   0.8380016  61.1290979  27.3004770   0.9835132  61.3215446  26.3741827
   0.0800594  60.5445385  27.3074651  37.4804115  37.4555213   4.7440416
  37.1601963  36.5583045   4.6507532  38.3031273  37.4682719   4.2549593
  57.9251003  13.3499772  10.5715162  58.6119461  13.7850291  10.0663358
  57.3542404  12.9573495   9.9110681  51.2255669  22.7291257  21.4544374
  51.7979622  22.8921372  20.7047540  51.6294098  23.2142074  22.1740514
  50.1613228   4.7209590  84.9366379  49.3052093   5.1374953  84.8376465
  49.9715511   3.8788073  85.3501701 106.7749405  63.4395885  58.5697889
 107.6828289  63.1391478  58.5283995 106.2628841  62.7005482  58.2413864
  33.6349956   4.7459643  55.2673817  34.1071788   5.5271571  55.5554867
  33.3016197   4.9740451  54.3995810   4.3936618  87.4279499  51.2644958
   3.9275535  88.2519627  51.1232281   3.9267047  86.7925549  50.7218552
   0.0073512  77.4142408  77.1118641   0.9570964  77.2958326  77.1257114
  -0.3400819  76.6084003  77.4941587  30.7859890   2.5204699  75.3397751
  30.1959125   2.8566974  74.6652365  30.2751438   1.8489497  75.7918024
   8.0396255  75.3488255  27.1043539   8.3437236  74.5598745  27.5530314
   8.4758456  75.3232336  26.2527180  11.7139228  77.7961922  44.8279047
  11.8491347  77.0856571  44.2009354  12.0786079  78.5689259  44.3964911
  97.2889900  87.5832748  60.3729630  96.7277050  86.9044209  59.9983168
  97.8907490  87.1075058  60.9454679  39.7787047  23.9773375   8.3672792
  39.2368460  24.5319468   7.8060037  39.1521359  23.5160930   8.9248640
   9.6291431  84.6444702  72.9052258   8.6779006  84.6184063  72.8017807
   9.8168166  83.9760017  73.5641384  21.5142902  67.0318079  81.8315029
  20.8478721  67.2437668  81.1779022  21.1055358  67.2487593  82.6694012
 107.7352103  23.3979691  12.2290975 107.5282105  22.5555552  11.8244726
 107.8253945  23.2002081  13.1612951  82.0198687  23.4506000   8.9908773
  82.8115853  23.9353050   9.2242795  81.8012055  23.7583484   8.1112653
 107.8224142  94.4151319  81.4426136 108.5493215  94.2629070  80.8387375
 107.0629819  94.0303094  81.0051155  23.6275188  59.5724923  81.3722420
  23.3149330  60.4763944  81.4108372  23.1199638  59.1735084  80.6655407
  36.4041090  36.4993119  74.0185022  35.9550524  37.0719075  73.3966398
  36.1492586  35.6146169  73.7565947  20.7494442  74.5085723  75.1305389
  19.9093191  74.6696717  74.7010374  21.4001791  74.8619945  74.5240164
  67.7779198  33.1521773  75.6220627  67.8063869  33.1437802  76.5788031
  66.9729233  33.6248994  75.4105377  33.8572192  21.6676688  57.4843264
  32.9118037  21.5652156  57.3751163  34.1023302  20.9816527  58.1052446
  40.1320314  14.8870242  69.8317719  40.3491688  15.0112462  68.9078379
  40.9114265  14.4781876  70.2081060  57.4647760  13.9560342  70.4321861
  58.3897543  13.8437879  70.6513691  57.1391726  13.0650854  70.3040218
  71.5763712  13.9166009  87.7502155  71.5942717  14.6639669  87.1524239
  70.9396219  13.3156645  87.3633575  73.4276199  10.3060579  46.5553570
  73.3221769  10.4288054  45.6119347  72.6130104  10.6381845  46.9326258
  23.7571374  81.9805390  72.7870178  22.9833786  81.4797504  72.5286818
  23.4107057  82.7045543  73.3085728  54.0885115  10.6378901  54.4860077
  53.9895105   9.7288221  54.2031193  53.3238983  10.8015442  55.0381088
  11.0235063  89.5773024  84.4592762  11.9714967  89.6093339  84.3307400
  10.6865636  90.3072197  83.9397335  43.4101057  14.3546236  63.2739639
  43.2211065  14.9118459  62.5189734  43.1853008  13.4712231  62.9819059
  86.0693932  10.7031417  58.9905882  86.4906025  11.0910332  59.7576332
  86.7935467  10.3566706  58.4692526  41.9070005  11.7767930  55.0856209
  41.8796635  11.2083805  54.3159533  41.5988016  11.2233138  55.8031893
  27.0507947  98.0729006  80.9251595  26.9766609  98.7474496  81.6002274
  26.3330928  98.2597701  80.3200054  57.6740742   0.5837430  83.4582615
  57.9528809   0.7565284  84.3575001  56.9016266   0.0259443  83.5499763
  33.0110828  49.5322275   5.3085500  32.5195305  49.1353710   4.5894414
  33.8209812  49.0240766   5.3541833  53.2268333   4.5578852  76.1536217
  53.2485342   4.2388120  75.2514315  52.3136997   4.4557011  76.4219141
  46.5522528  32.8472042  43.4093142  47.0973349  33.4848666  42.9483271
  46.7658234  32.0089054  42.9995871  64.8281630  14.4892253   2.8027517
  65.5456623  14.5084418   3.4360391  64.3854650  15.3302039   2.9167825
  65.6074651  11.8243755   2.5012285  66.1014493  12.0131554   1.7033750
  65.2609905  12.6736320   2.7749998  30.6054107  89.1111285  43.5196638
  30.6056968  89.5650870  44.3623734  30.6511966  89.8124320  42.8698111
  25.9378377  95.8574862  22.3445392  25.0682012  95.4665495  22.2601151
  26.3928119  95.2962453  22.9724264  43.4214345  75.0999648  69.8582077
  43.9352218  75.3179986  69.0805721  42.5835744  75.5428035  69.7236109
  81.6442879  60.4177137  35.6649095  81.7983778  61.3504661  35.8147794
  82.2116955  59.9766059  36.2971288  85.8366354  51.7356104  26.0912305
  85.6581887  52.6753406  26.1272317  86.4091214  51.6294563  25.3314859
  53.9137363   3.1130487  57.6996946  53.9226484   2.1946743  57.4299908
  53.8213634   3.0821419  58.6519241  66.5123415  31.2723351  84.7911549
  66.3507175  30.3475285  84.9778080  66.2089062  31.3916254  83.8911915
  84.2115307  18.4697711  63.4836912  84.7535706  17.8827477  64.0107870
  84.2266655  19.3007159  63.9585972  21.1551610  80.0652940  40.4507732
  20.2023498  79.9914701  40.3965616  21.4687196  79.1624386  40.3981829
  33.6332226   1.9968694  64.6517658  34.3352342   1.6256814  65.1862097
  33.3717108   2.7909851  65.1178360   6.8808452  75.6574542  50.6264639
   6.6351167  76.5825755  50.6285191   6.0491554  75.1885778  50.6948471
  39.0507984  23.8035512  82.1541882  38.8573384  24.7186923  81.9509125
  39.4287109  23.8281918  83.0332756  53.6167097   4.0908557  55.1478195
  53.7992716   3.7991637  56.0410309  53.0697918   3.3984217  54.7768068
  59.1534042  21.2647986  85.4612923  58.9610243  20.3724384  85.1733494
  58.2942724  21.6551113  85.6218719  31.3543344  30.4817915  80.6752014
  32.2562933  30.2106667  80.8460617  31.3732672  30.8281398  79.7830582
  74.1393042  34.6621633  80.8874798  74.7245312  34.1922474  80.2934074
  73.8835573  35.4460788  80.4013729  60.4852247   0.4718865  80.9947014
  60.7849503   0.8718996  81.8110180  61.2752581   0.3998659  80.4590702
  93.8078499  11.6954124  67.4861908  92.9529190  12.0640993  67.7084446
  93.6059666  10.9289086  66.9495869  57.0848417  17.8628254  64.4200993
  56.3096476  17.9755855  64.9701834  57.7926445  17.6804888  65.0381613
  64.5021621  91.4551312  51.6532755  64.1840545  91.8983073  52.4398088
  65.2222530  92.0044417  51.3435125  55.4361335  87.2691459  46.1295652
  55.9709732  86.9495649  46.8562317  54.5604698  86.9260509  46.3076830
  21.9097749  98.1388787  55.1573753  21.2818376  98.4262402  55.8202124
  21.6790287  98.6404497  54.3754482  76.2505913   1.6388448  86.0094452
  75.6168699   2.2212404  85.5905914  75.8151245   1.3474774  86.8105125
  39.2045760  29.3726158  44.6395350  38.9153671  29.2074847  43.7421370
  39.2851949  30.3248715  44.6937990  13.8429014  97.1023158  55.4635954
  14.3157188  97.6768453  56.0657501  13.1092493  97.6327810  55.1528072
  50.7356739  21.0515666  40.1487255  49.8007536  21.2510657  40.1973343
  50.8651686  20.3529644  40.7901430  91.3944435  12.7795994  68.7915277
  92.0465565  12.7948010  69.4920635  91.1526299  13.6976695  68.6694431
  74.8805618  11.4721870  48.3285046  75.6716156  11.6094732  47.8073311
  74.3068933  10.9564459  47.7618074  26.0955469  96.4077658  34.1781116
  26.0453216  96.4911980  33.2258773  26.5532581  97.1983368  34.4639969
  93.1597861  86.2794251  35.7595086  93.4757288  86.5880758  36.6087127
  92.2241529  86.4814145  35.7642198 106.6357191  97.5090484  62.1086359
 107.3748382  96.9190390  61.9609022 105.8874710  97.0582563  61.7173004
  63.9645958   2.7442107  74.2533159  64.7373104   2.6305231  74.8066807
  63.2853651   2.2220629  74.6802092  65.4284048  48.3058739  86.0529518
  65.8142185  47.7943707  85.3417873  64.8421049  48.9221525  85.6139851
  93.8109215  34.9074425   6.6666872  93.5710534  35.4249157   5.8979780
  94.5638379  35.3664948   7.0390016  31.9354725  42.5048304  43.4552145
  32.3372173  43.1501579  44.0369225  32.6269627  42.2803354  42.8325796
  61.5453482  11.7142594  69.3414545  62.3742437  11.2477589  69.2340279
  60.9492588  11.2884295  68.7253523  26.8115417  71.5433867  70.5146933
  26.8034402  71.6311724  69.5615625  26.5770332  72.4135143  70.8373642
  52.9802028  90.9262139  54.8621082  52.1506874  91.3039786  55.1543903
  53.0305568  90.0824124  55.3112125  10.7925931  88.7514681  56.6678333
  10.2350227  89.5268137  56.6031361  10.2138320  88.0677242  57.0051241
  42.6969576  25.8125663  52.1732521  42.3523331  26.4901304  52.7549505
  41.9260406  25.4711342  51.7201042  44.9446821  13.9082944  67.3562956
  44.8782301  13.2302308  68.0286360  45.2248764  13.4394836  66.5702009
  81.7414101  25.8348454  14.6225530  80.9777077  25.2771176  14.4744569
  81.7411383  25.9957422  15.5661279  28.0664674  73.6189992  60.8899021
  28.8708250  73.9850337  61.2576818  27.9571716  72.7810747  61.3395309
  28.8889686  92.1163858   4.8057634  28.5605900  92.4428905   5.6434995
  28.1795208  91.5705122   4.4667512  53.0953741  26.7992473  85.1025581
  53.5808706  27.4811053  84.6382332  53.6712980  26.0351419  85.0764179
   0.4164870  29.1792703  76.3392591   1.1392577  28.8195300  75.8250284
  -0.1077000  28.4161019  76.5822124  37.2693101 100.6329838  64.3991327
  36.6374103 100.2539492  65.0100851  37.1476833 101.5785597  64.4847155
  42.2011566  38.5863161  69.1229439  42.7028704  37.8108144  69.3741703
  42.7880144  39.3204093  69.3044472  38.9497185  14.9638736  43.1864834
  39.4091630  15.7653236  43.4371233  38.9777136  14.4163764  43.9711428
  90.9300192  51.8022262  21.1580354  91.7192038  51.6757505  21.6847402
  90.8768948  51.0166502  20.6137258  23.4161854   6.5765626  40.4495698
  24.2038536   7.0471627  40.7222349  23.7192488   5.6867320  40.2690584
  28.9434616  96.6349936  25.3960752  29.8483459  96.5805180  25.7034039
  28.9022008  96.0211391  24.6627855  73.2017660  20.2587390  80.4437447
  73.9149761  20.7389617  80.8644009  73.1043243  20.6758738  79.5877457
  44.9283886  28.6222768  45.4317093  44.2509985  28.4163904  44.7875118
  45.6997347  28.8379765  44.9075603  31.0611669  82.7036781  56.3001871
  30.1858942  82.6109285  55.9239864  31.1356060  83.6353619  56.5067196
  46.4693737  33.6305642  61.7906809  45.6184340  33.2087016  61.6716480
  47.0488501  33.1780958  61.1777306  97.8626442  26.5456057  83.4621716
  98.7844467  26.6801476  83.2421494  97.6696587  27.2232699  84.1100597
  60.7747173  11.8411195  39.3019438  60.7862043  11.4945722  40.1941347
  61.6716909  12.1381187  39.1487932  54.4181919  41.9120026  75.0007200
  54.3006516  41.5416193  74.1259432  54.5303011  41.1507416  75.5700541
  63.4460577  69.3250669  19.2082960  64.0819796  68.9234473  18.6162359
  62.6221593  68.8784017  19.0135747  83.8384398  18.0600537   3.2494718
  83.6713704  18.9201607   2.8640634  83.3056696  18.0462922   4.0445787
  97.1984005  48.7861347  84.2851543  98.1322575  48.5843849  84.3438053
  97.1238041  49.6767950  84.6277714  58.0955887   0.5297861  69.3874121
  57.1719885   0.2967555  69.2931414  58.0856085   1.4568484  69.6255016
  87.3702431  21.8143415  46.5546417  87.8638554  22.3990917  45.9796238
  86.8509007  22.4011850  47.1043110  63.9815903  15.6748533  44.5470476
  63.5943794  14.9699354  44.0280199  64.3864250  15.2296209  45.2914333
  30.8021680  91.3986392  75.4176807  30.8045951  92.2121394  75.9221029
  31.5614931  90.9139163  75.7412529  76.3400459  31.2387156  61.7934656
  76.6239262  31.4943075  62.6711416  76.7078876  31.9093418  61.2179804
   2.9836456  76.9715012  14.3991643   3.4060375  77.8171934  14.2487508
   2.4888746  77.0916833  15.2097112  18.2423345  74.9903638  74.5628643
  17.9879562  74.6265871  75.4109144  17.5336257  75.5934317  74.3386364
 103.1169701  14.7329819  76.2409973 103.8891983  15.2985501  76.2358809
 102.7965927  14.7569203  75.3393221  72.3068237   4.8521081  51.3836288
  72.3131275   4.1583678  50.7241488  71.3886881   5.1156676  51.4452410
  70.8088875  12.4383593  73.3034468  71.4607573  13.1277323  73.1766891
  70.9260941  12.1620977  74.2123890   5.4908745  40.7697751  21.4134676
   4.8422710  40.0712754  21.5009004   6.1598770  40.4043199  20.8345777
  48.5694551  23.4174514  60.3885412  47.6776791  23.7607861  60.3329754
  48.8361120  23.2948637  59.4774485  68.9341506  64.1951348   9.8200876
  69.1804727  64.2935933   8.9003736  68.1345662  64.7134806   9.9106962
  97.5870331  39.3918289   6.5616495  98.3201130  38.8139965   6.3496667
  97.8099879  40.2242769   6.1450464  49.3658924  11.2222326  44.4383144
  50.2433443  11.5922296  44.3413067  48.8184404  11.9664967  44.6885109
  21.8353979  69.3280251  75.4837132  21.8469898  68.5493500  76.0402775
  22.5786392  69.2106278  74.8920679  98.8396605  33.4781851   2.1867925
  99.1199883  33.4641267   3.1019193  99.3512972  34.1833879   1.7903787
  69.3898296   4.4785622  51.5724325  68.6962700   3.9647210  51.1586952
  68.9731836   5.3126484  51.7890930 104.4542249  96.5369654  60.6165743
 104.5449837  96.6723526  59.6733522 104.0437015  95.6759740  60.6965494
  15.7007495  84.6487255  66.4974880  15.6014625  84.1314442  67.2967339
  14.8124687  84.7237200  66.1488295  70.0781202  13.0357218  48.4140062
  69.7846365  12.1405506  48.2443905  70.9073400  12.9315472  48.8806677
  69.5012045  28.8544369  60.1462841  70.2311277  29.3122959  60.5631924
  68.7190771  29.2547059  60.5261421  65.1268204  52.7506286  20.6476957
  65.5901273  52.0421112  21.0944349  64.6903714  53.2319935  21.3505632
  78.9494952  90.3304900   8.0095846  78.6034354  89.4511618   8.1620962
  79.8490199  90.1862635   7.7158433  44.9017143   4.4886592  80.6280518
  43.9823675   4.7539830  80.6029606  45.3559589   5.1490593  80.1048183
  18.6361114  79.2020852  40.8741140  17.8912012  79.8031766  40.8795166
  18.3014099  78.4096653  40.4542589  62.9760742   6.5231109  86.3131523
  63.7210703   6.1590946  85.8349228  63.2760811   7.3841137  86.6045284
  31.8406653  18.6699629  76.7109632  32.4197364  18.3285809  77.3924065
  31.7628002  19.6033585  76.9082975  73.2468256  48.9654998  15.4114133
  73.5099991  49.4438422  14.6251852  73.5100468  49.5326574  16.1361772
  11.5222967  28.1937742  82.7170277  11.1702204  27.3534703  83.0105591
  11.3419402  28.2138681  81.7771912  70.4160833   2.4244177  75.8002567
  69.8526955   1.7355999  76.1528969  70.4306746   3.0949464  76.4832020
  60.6391525  33.0296588  55.7126904  61.3563967  32.5268054  55.3267670
  61.0705471  33.7581015  56.1593485  48.6724281   2.7294356   3.8761217
  48.4021568   3.0180842   4.7478277  49.6286583   2.7672917   3.8970739
  77.3977232  18.8181460  58.9786768  77.9534197  18.0663276  58.7732458
  77.4507570  18.9021468  59.9307108  81.3059425  16.7795682  60.8996582
  80.4273033  16.5289330  61.1849737  81.8648624  16.0552335  61.1810398
  61.2676477  14.5306158  67.2215366  61.1885977  15.4412806  66.9375038
  60.4728842  14.1082442  66.8956757  25.3303671  23.5071588  64.6782589
  24.7794366  22.8285098  65.0683165  26.0585690  23.0271435  64.2838717
  12.7837268  99.0131865  65.6245184  12.9590599  98.2662094  65.0522280
  11.8290702  99.0794546  65.6461477  55.7648841 101.9133360  50.1070881
  55.1258556 101.2035770  50.0429869  56.5909568 101.4742871  50.3097582
  83.6879730  34.1645932  55.4183483  84.0817738  34.0389752  54.5549917
  83.9004135  35.0689197  55.6492090  79.2663765   3.9218259  81.7359734
  80.2225590   3.8783708  81.7288303  79.0643263   4.6563926  82.3154736
  68.0107117  15.7233667  69.6108294  68.5224199  16.1970246  70.2666044
  67.7309179  14.9240196  70.0569153  38.1673948  97.5312761  60.1473522
  39.0910188  97.5747625  60.3948689  38.0534975  98.2457287  59.5206022
  65.3371048  33.7731433  72.3395205  66.1396074  33.5026026  71.8933916
  65.0426292  34.5448208  71.8557501  76.5508699  39.7976112  62.6078892
  76.2230873  40.1047707  63.4531355  76.3125706  38.8709402  62.5809908
  42.2951460  23.8325858  43.1590748  41.3502216  23.8842058  43.3028984
  42.5705481  23.0595851  43.6518812  71.6931963  20.9868002  67.8673220
  71.1481714  20.2821422  67.5171280  71.1617947  21.7758536  67.7613020
  98.1285199  53.9190321   3.4608060  97.4260052  53.4134574   3.8695795
  97.7016457  54.7201784   3.1571943  46.4961998  83.3142323  28.4095097
  45.7573501  83.3753259  27.8040409  46.2172977  82.6737268  29.0638781
  69.8359537  18.9175427  66.3859606  69.3008995  18.1516099  66.5940475
  70.0679731  18.8043725  65.4642296  16.0248939  44.7831745   4.4985277
  15.1525489  44.8602851   4.8849184  16.0439388  45.4525699   3.8145906
  51.8771736  97.0228625  69.9750805  52.6829521  96.5987117  70.2701044
  52.0847122  97.3484052  69.0991879  43.8703346  21.2904668  50.2181005
  43.2503700  21.9580960  49.9245930  44.3397141  21.7019582  50.9437656
  16.5726081  64.1801960  30.1654625  15.9993640  63.4512240  29.9283433
  16.8942586  64.5141513  29.3280578  84.2717171  33.7435627  52.8515148
  83.9980698  32.8284717  52.9144192  83.7611389  34.0966892  52.1229219
  94.6125984  22.0313501  80.9077740  94.8939705  22.3329687  81.7715359
  93.9670277  22.6796079  80.6262779  43.9753048  43.7359096   5.9870702
  44.1305534  43.6703260   5.0448305  43.3189956  43.0633189   6.1690599
  55.8717052  92.8741462  46.2824583  55.7171432  92.1809859  46.9242334
  55.1071159  92.8429914  45.7074356  31.1407844  85.2947320  15.2574998
  31.4102737  84.3834247  15.1429445  30.8594314  85.5726804  14.3858224
  51.8292991  79.9939353  51.1032581  52.1937267  80.7854230  51.4994526
  50.9967033  80.2768929  50.7251692  37.9683709  37.6914358  68.9069462
  37.4104261  37.3126936  68.2276201  37.3553848  38.0765343  69.5331860
 101.6352709  86.5283842  31.8560839 102.0139535  86.4257783  30.9829855
 100.7294901  86.7925269  31.6947675  85.1619339  26.8342233  22.6047015
  84.4905472  27.4911785  22.7887702  85.0254822  26.1594582  23.2697606
  26.8698017  77.7518262   3.6350042  27.6953022  77.7466978   4.1195280
  27.1037952  78.0796279   2.7666551  44.0298462  33.4227395  55.4829550
  43.0765343  33.4118676  55.5684757  44.1851807  33.4686589  54.5395613
  92.4164470  95.1706434  62.2779703  92.9243406  94.8244435  61.5441990
  92.6448496  94.6048159  63.0154705  76.8549681   8.1279790  40.9141445
  76.7362833   8.1315213  41.8639517  77.1984196   7.2561049  40.7189369
  69.8165512  29.2334723  63.4451103  69.3065739  29.8628592  63.9550352
  70.4011154  28.8253760  64.0838385  30.3723518  80.6212605  16.5385038
  29.5735542  80.7071079  16.0181409  30.0852482  80.2047266  17.3511011
  26.9252244  90.4905076  36.8919253  26.0006992  90.2763922  36.7668724
  26.9217531  91.3974149  37.1980929 108.0571135  56.5747686  22.2535783
 108.2399806  56.4915641  21.3176996 107.1081503  56.4700515  22.3224336
  82.2052860  26.6799664  58.3452797  81.9575500  25.8188176  58.0087042
  82.4328804  26.5225792  59.2616081  47.6703358   3.6946052  80.6778622
  46.7265844   3.7466550  80.5266666  47.7520800   3.3207124  81.5552235
  44.0757457  61.6743304   3.4565813  44.0680591  62.4772788   2.9355699
  44.3836681  60.9993233   2.8517801  64.9976158  15.8482814  67.8243446
  64.2993307  15.5736029  68.4186363  65.8005524  15.5237210  68.2320070
  72.6525640  38.2590199  68.1061363  72.1869230  39.0311790  68.4273529
  72.0590544  37.8719163  67.4626017  81.3145065  14.2682076  69.0291071
  80.5940342  13.9840305  69.5915985  81.0186005  15.1019895  68.6637545
  54.8301792   5.3200585  78.1274128  55.3587198   4.6304697  78.5290861
  54.3179369   4.8689961  77.4563074 105.1989079   0.1743738  74.2635679
 106.1286259   0.0028285  74.4132996 104.8239994   0.2451709  75.1414442
 101.5961464  93.5873236   4.7731573 101.1666306  92.7622332   4.5473844
 101.4323672  93.6940445   5.7101804  88.7061795  72.0032658   2.1593362
  88.9350518  72.8420104   2.5597841  87.8017815  71.8469609   2.4311143
  50.9989262  17.2193599  49.4003868  50.6877565  17.4660838  48.5294485
  51.2568378  18.0471373  49.8059702   3.9136116  71.5396537  20.7709104
   3.0754034  71.6508330  20.3222734   4.4750158  72.2215403  20.4020101
 105.8879431  40.0989415   0.5395490 105.3148945  40.3318788  -0.1909178
 106.7623623  40.0532521   0.1528627  61.6467659  91.2042672  75.8909225
  61.6006080  90.4590053  76.4898252  60.7359115  91.3767368  75.6525421
  42.7101612  26.3320041  71.2783289  43.1139898  25.5346751  70.9356546
  43.4491348  26.8822837  71.5378284  17.3642731   3.9907891  29.7961313
  16.8337917   4.7390134  30.0699598  18.0447960   3.9218099  30.4657251
  89.8680782   8.4860325  68.0907154  89.6777344   9.4237471  68.0643702
  89.0091515   8.0691183  68.1590319  42.2006655  34.2156053  60.9004593
  42.6615000  33.7894917  61.6231585  41.5847540  33.5538769  60.5858088
  26.0539905  52.1872604   4.3134481  25.1705066  52.1721078   4.6814996
  25.9452335  52.5759020   3.4454805  70.7070065  10.5434728  81.0808563
  69.9886942  10.3919101  81.6950893  71.0185099  11.4242566  81.2892246
  65.3406382   3.2993117  82.1543026  66.1932087   3.7026983  82.3174953
  64.9735165   3.8012859  81.4266491  85.1429804  79.0431036  28.3435327
  85.2831276  79.6403469  27.6087553  85.9012326  78.4591855  28.3255464
  70.2128116  92.7019174  60.5385780  69.9125949  93.6026067  60.4166889
  70.3897087  92.3864115  59.6523523 103.1430920  73.8108744  14.7617227
 103.5282572  74.6772088  14.6300394 103.6863144  73.4076561  15.4388887
  83.0960178  27.0202041  81.3514328  82.9001713  27.9288149  81.5801430
  83.7900448  26.7645311  81.9590473  53.7694923  99.0332604  65.2799034
  52.9033748  99.4217189  65.1567364  53.5927764  98.1178743  65.4968691
  47.1971512  15.0014901  41.3642216  47.6394892  15.7732272  41.0106802
  47.8493977  14.3034267  41.3049698  72.7948284   7.1652132  77.9526997
  72.4058819   7.8695619  78.4712076  73.4631824   6.7877805  78.5246086
  10.4741271   6.0902309  78.7215805  10.4106124   5.1942819  79.0524483
  10.2916415   6.6403675  79.4833469   4.2135326  69.2563297   7.1312315
   4.2836277  70.1783861   6.8839819   3.3564655  68.9847578   6.8027288
  71.9741631  12.9684830  78.4357214  72.6099443  13.6562240  78.2381725
  71.1582375  13.4386754  78.6072206  90.8204365  48.2754183  48.4576368
  90.1938820  48.1198835  49.1643667  91.4031601  48.9536858  48.7991333
  88.6542606  13.3560932  74.0203476  89.4923687  13.3547473  73.5579538
  88.4283352  12.4302053  74.1093636  81.2360287   6.6644621  61.8824720
  82.1354008   6.7963946  62.1823931  81.1436272   7.2554350  61.1351824
  62.4566936  32.0113015  29.2510557  62.8169584  32.2669601  28.4018922
  63.1407070  32.2404337  29.8802233  39.3140737  99.4909240  35.7736063
  38.8794033  99.2338247  34.9604678  39.7857992 100.2931616  35.5497313
  78.2597923  49.8299885  53.7042904  78.8040876  49.4059086  54.3677139
  77.4390507  49.3376064  53.7173319  59.2188740  16.9038558  55.3906631
  59.0575886  17.5098825  54.6675062  59.9139309  17.3194551  55.9009552
  75.0199652  34.1283798  55.4791069  74.3420839  34.4929838  56.0481215
  75.8400965  34.4730663  55.8323765  68.1029510  15.5471635  45.0509834
  68.6640978  16.3022387  44.8743248  68.5931635  14.7993195  44.7094393
  75.3300476  24.5021915  64.5133400  74.6617842  24.8607421  63.9293003
  75.1631021  23.5596752  64.5182753  21.2035648  82.9927702  64.1294336
  21.3864652  83.8281638  64.5594263  21.0272209  83.2260770  63.2180023
  73.4765720  18.4215701  72.9815626  74.2236137  18.7164724  72.4607992
  72.8074169  19.0914762  72.8412533  60.9923697  20.3315544  64.5980835
  60.4947424  20.0104523  65.3500795  61.6926813  19.6893597  64.4824219
  32.8563348  99.5127263  73.8914967  32.3109237  98.8597939  73.4528160
  32.7336017  99.3393087  74.8248243  36.4702408  89.4126691   0.8452493
  36.4618580  88.5004319   0.5554468  37.2675697  89.4902147   1.3691694
  29.9398685  20.7352924  35.1195717  29.6241331  21.4064336  35.7246423
  30.7797170  20.4584622  35.4859757  96.8297100   9.7749817  51.3732290
  97.4864674  10.4520881  51.2106609  97.2905540   9.1131985  51.8888807
 105.5038699  72.0288075  24.9212629 104.8575886  72.4476732  24.3528444
 105.7666024  72.7167238  25.5327970  90.8794689  43.9623594  84.8970890
  90.4224777  44.8014116  84.8388863  90.9668922  43.6737156  83.9886475
  36.6710369  74.8223836  59.6022320  35.7880394  75.1733691  59.7177935
  36.5605728  74.0915258  58.9940596  96.3621863  48.3714585   8.5762388
  96.4645728  47.4936600   8.9439565  96.5878972  48.2715411   7.6514131
   4.8375591   6.6537178  80.8697319   3.9393886   6.9299704  81.0519409
   4.9578555   6.8303388  79.9366856  94.1874608 101.5641512   9.1573411
  94.1824826 102.4898781   9.4007188  93.8794573 101.1088242   9.9409563
  81.4709473  42.9549170  64.4776630  82.2867298  42.8442240  64.9660063
  81.7270756  43.4322929  63.6885262  46.0079813  37.1522832  44.8427343
  45.1831675  37.3682022  44.4076538  46.6603565  37.6981831  44.4038296
  37.7980653  96.3511211  26.2203836  38.7356178  96.3299269  26.0286117
  37.6544706  95.6005520  26.7968035  91.9278773  57.3153986  18.7546140
  91.7822703  56.5273304  18.2311899  92.8144797  57.5944181  18.5258943
  16.9303695  86.8924846   3.6484701  17.3609249  86.9351496   4.5023042
  16.3970462  86.0986413   3.6885625   0.3552334  52.5676514   6.5108282
   1.0063831  51.9608141   6.1587125   0.8615677  53.3362992   6.7735750
  66.1855173  51.3227558  78.1331587  66.4221716  51.2795639  79.0596390
  65.2292967  51.2798119  78.1279516  56.2100220  19.6261937   0.0777704
  56.8495464  19.9033172  -0.5783194  56.3318062  20.2375657   0.8041555
  79.8283815  30.9879279  61.2351704  79.4913673  31.7518187  60.7670689
  79.3427324  30.9789729  62.0599699  55.7393646  30.2560806  75.9920692
  55.3169203  29.6982861  75.3388977  55.0400257  30.8294797  76.3057041
  78.6637115  26.3013721  49.9830437  79.3194723  25.9325767  50.5748224
  78.9628410  27.1962285  49.8218393  90.5872162  99.8709310  16.4006502
  89.8107298  99.3516840  16.6096574  90.3795489 100.2860464  15.5635244
  75.7731009  13.6214590  69.8071671  76.1092520  13.8062751  70.6841373
  74.9629259  13.1347954  69.9588537  82.7856159  19.8710823  56.0541391
  83.2011604  19.8976421  56.9160318  82.2319889  20.6515884  56.0310078
 101.5234947  12.4072385  62.5795221 101.2084961  13.2749546  62.3263884
 101.3465309  12.3527491  63.5186434  81.6623688  17.8014135  64.6893072
  82.5447559  18.1482422  64.5576000  81.6911030  16.9231570  64.3097401
  54.5692205  39.5592427  69.4074059  53.9521027  39.4618034  68.6822176
  55.1061010  40.3138113  69.1652918  65.0088310   7.3725778  61.3952398
  65.2336121   6.8478763  62.1636105  65.8332348   7.7849549  61.1372948
  45.3353969  99.4456450  48.2927990  44.5845977  99.5647902  48.8744640
  45.5796520  98.5266203  48.4021854  72.9599428  34.7898936  83.6606407
  72.5337982  33.9474702  83.8186169  73.4435511  34.6642947  82.8441906
  88.0359658  62.5094356   1.8415052  87.5699719  63.1465258   1.3000280
  87.8472670  61.6645123   1.4331800   5.9251777  68.1411542  15.3415090
   5.1578514  67.7111710  14.9639398   6.2100403  67.5523402  16.0403520
   4.8455890  28.6350536  73.7509060   5.2345737  29.4596148  74.0424871
   4.3621333  28.8656187  72.9575872 106.5434416  70.4678042  67.0683861
 107.4324258  70.2127082  66.8216753 106.6203292  71.3869388  67.3243380
  92.6758194  52.2048140  47.2831726  93.2918453  51.8751478  47.9374361
  92.0481110  52.7242804  47.7855349  39.6198797  34.4406962  31.2778902
  39.5443368  35.0118113  30.5134583  39.9542618  33.6149406  30.9278250
  71.7576305 101.4385857  74.9410629  72.2734062 100.6691273  74.6999454
  71.6536895 101.3694780  75.8900881 104.3377121  36.6143466   6.9931489
 104.8267706  36.0026528   7.5435049 103.4767540  36.6733850   7.4072725
  18.0001918  77.5275833  76.6992807  18.0810920  77.0211012  75.8910942
  18.5197345  78.3157808  76.5409994  22.8712455  90.8686931  49.6076775
  21.9619981  91.1678154  49.6030617  23.1810514  91.0302097  48.7165213
 100.1573277  26.5580773  59.5301151  99.5637989  25.8937287  59.8802423
 100.1022720  26.4518499  58.5804224  58.4874916  31.9757366  69.0559721
  58.2059193  31.8523169  68.1494856  57.9141617  32.6640439  69.3932581
  65.1136780  31.2279534  76.7993784  64.3750906  30.6383991  76.6472340
  65.6953144  31.0806251  76.0535765   3.0894415  93.5605778   7.1361333
   2.7479879  92.7839436   6.6928655   2.7263252  93.5107340   8.0203802
  92.0626259  12.3751438  60.2575731  92.4539280  12.0794666  61.0795784
  92.2394848  11.6660428  59.6394110  77.2519104  99.4112843  44.8475742
  77.7250091  99.9315590  44.1981697  76.9984714  98.6160848  44.3788958
  74.0961599  11.1914635  76.6041803  74.5665550  12.0053887  76.7844200
  74.7451258  10.6280661  76.1826897  98.8558682  72.2541441   1.0598165
  99.7369631  72.2490944   0.6858045  98.7136181  71.3531007   1.3498479
  45.0689594  83.5660119  77.7877712  44.6476547  84.2466266  77.2628880
  44.4743244  83.4299643  78.5254240  95.6888103  33.0872369  64.5706081
  96.0610390  33.9362144  64.3320370  95.2322865  33.2493401  65.3961658
  82.8611183  19.8673129  60.8356142  82.7168941  18.9229369  60.7757521
  83.7759781  19.9533653  61.1036921  58.3530378   8.4808987  67.3915434
  58.6832476   7.9219013  66.6881800  57.4435282   8.6569059  67.1506214
   1.6936247  72.4865951  14.1081125   2.5318090  72.2529878  13.7092287
   1.9169132  72.7397431  15.0038225   6.9351951  99.9379017  74.5278597
   6.0400669  99.9399623  74.8669386   7.3129550 100.7586289  74.8439884
  68.1524801  50.5736732  86.2106991  68.1925726  49.6342230  86.0316467
  67.3135328  50.8519268  85.8433151  59.0030766  44.7719479  81.9390678
  58.2671070  44.3658447  82.3969650  59.4257736  44.0485430  81.4762020
  20.5497257  78.7854297  49.3192625  20.6170980  79.0601213  50.2337265
  20.4483930  79.6022684  48.8306570  55.3424350  87.9678804  79.3039751
  55.1364128  88.8939364  79.1766739  54.5161430  87.5751812  79.5855093
  51.3290167  29.7826624  65.1176167  51.0200977  29.2008376  65.8120775
  51.9363689  29.2461681  64.6081781  91.1209965  13.7680888  42.9014063
  91.1175919  13.4141660  43.7907648  92.0176506  14.0761197  42.7696371
   4.8034088  72.6723398   3.9145261   5.6381694  72.2834052   3.6534959
   4.7242777  73.4565128   3.3713514  81.4184570  15.2017021  66.4176893
  80.4715157  15.2384377  66.2828493  81.5587807  14.3944621  66.9125652
  14.3913023  96.1068220  64.7984076  14.6300832  95.7070936  63.9620829
  13.6254064  95.6123591  65.0901937   4.9570982  85.3911985   7.8609449
   4.3092434  84.9908866   7.2810632   5.7031242  84.7919620   7.8364927
  84.5927906  27.0031238  56.9563723  84.6975136  26.3807511  56.2367105
  83.7686539  26.7511153  57.3729420  66.0064459  17.8498161  70.8638287
  66.3455534  18.1906176  70.0361252  66.7129230  17.3009861  71.2042809
  63.3938932  17.8628933  81.0514927  62.6210213  18.2792211  81.4330292
  64.0723419  18.5370696  81.0892677  12.9908458  43.9729889  25.8247644
  12.5129310  43.4289600  26.4507562  13.9106743  43.8642062  26.0662252
 102.5746822  36.6088820  84.0855598 102.3470688  37.3455501  84.6527767
 101.8376160  36.5368843  83.4791088  83.7659454  29.2104769  54.4019938
  83.3784485  29.7726464  55.0728464  83.4838200  28.3267331  54.6378565
  53.5341922  93.1648041  71.2053251  52.9171173  92.6864529  70.6515837
  53.4288684  92.7751905  72.0732784  90.2532864  11.8083656  33.2892489
  90.9815598  11.2882113  32.9496932  90.5974007  12.2101498  34.0869880
  29.5155517 101.6404918  46.4654303  28.9184419 101.0857198  45.9635162
  30.3068391 101.1113061  46.5657473  88.8763992  94.0448911  70.1047182
  89.6114627  93.4317739  70.1054525  88.1009380  93.4892131  70.1829052
  75.8436775  27.6864982  59.7092438  75.7617617  27.6070213  58.7588739
  75.7633495  26.7891026  60.0324488  44.6474648  27.9997182  71.7899704
  44.9274731  28.9144015  71.8243170  45.1664543  27.5647926  72.4665213
  13.5688480  31.5785384  67.0450878  13.8753493  32.3614120  66.5874815
  13.2104572  31.9077921  67.8693342  60.3372049  16.0978711  80.1204681
  61.2912178  16.0328412  80.1636410  60.1715899  16.9886005  79.8115873
  60.0396204  37.2577381  75.3091335  60.8380938  37.3504329  74.7894430
  60.2770853  36.6460395  76.0060310  60.3254461  35.1145363  84.9442863
  60.0570345  35.8880877  84.4484901  59.5682859  34.5302439  84.9049759
  62.4275017   5.7529420  57.1594048  62.3857689   6.2267798  56.3287640
  63.2912970   5.3405297  57.1567488  53.7861300  12.5415123  52.0010614
  53.3699894  13.3838308  52.1842575  53.3707905  11.9315481  52.6107073
  59.5016281  87.9350144  77.9335308  59.3848506  87.3505563  78.6825371
  58.8137237  88.5930450  78.0336666  99.4051456  31.7487788  86.2326145
  99.5519161  32.5509810  85.7314491  99.2823029  32.0482326  87.1334267
 101.3224602  26.0721302  75.1825809 101.0239506  25.4176903  74.5510483
 101.6099072  26.8101048  74.6449947  77.1170235   0.6900298  83.5732460
  76.4689016   1.3930961  83.5300732  77.0560408   0.3628384  84.4707203
 100.9937668  36.4036226  86.9545555 101.6900349  36.4123511  87.6113415
 101.1664391  37.1732235  86.4122105  64.6758834  85.4028172  71.8896627
  65.3021995  85.9504504  72.3630095  64.4287960  84.7239799  72.5176430
  15.0927345  70.4071928   8.2495481  14.1368381  70.3575815   8.2547838
  15.3040783  71.0295762   8.9453966  78.2382345  36.8672752  74.0589094
  77.3409414  36.5670276  73.9141750  78.7836885  36.1219501  73.8075018
  49.9897090  84.6451516  30.7734871  49.4088165  85.4052693  30.7416368
  49.7907154  84.2265565  31.6109896  81.1702633  10.6796193  61.7481232
  80.6437302  10.1484525  62.3454952  81.6948700  11.2372911  62.3226023
  34.2154304  95.8540768  87.2868824  33.7654869  96.5627760  86.8269634
  33.5876934  95.1314623  87.2859955  59.8519889  87.0203776  13.8872015
  60.1294128  87.1043915  14.7994578  60.6424324  86.7490561  13.4204996
  48.7105648  98.0452050  30.0437832  49.4846908  98.5542969  29.8033953
  48.3379547  98.5140593  30.7904863  79.6546030  13.4253728  62.3138475
  79.3583298  14.3351889  62.2876072  79.6460819  13.1442273  61.3989067
  70.4942322  17.0393836  61.6314173  70.3810215  16.1014891  61.7855930
  70.8946085  17.3678279  62.4364376  72.5342178   3.3589426  45.1450682
  71.9676638   2.8058693  45.6829882  72.1916437   4.2442092  45.2682638
  53.3862829   9.9807692  65.6003761  54.0320015  10.4869223  65.1073408
  53.2309675  10.4966474  66.3915634  12.3108562  35.5507922  78.9704800
  12.0067867  35.4682231  79.8743343  12.4477752  34.6489048  78.6805058
   4.3655006  88.5451538  60.1932478   4.9370376  89.3082757  60.2782154
   3.7337820  88.7930209  59.5181704  35.5614797  99.0381409  66.5133142
  34.9005882  98.5346908  66.9887066  35.2938882  99.9503525  66.6251087
  70.2639095  87.5038106  74.2855740  71.0743038  87.0729990  74.0137291
  70.5518905  88.2226331  74.8482418   5.1833669  60.8813406  34.2762834
   5.6392852  60.2933504  34.8784811   4.2557661  60.6823887  34.4036085
  72.1218157  39.7885370  85.5262470  71.9770145  40.6090879  85.9973717
  72.1049976  39.1155028  86.2066650  71.2493229  31.2653923  68.0737400
  72.1771049  31.0431075  68.1515026  71.2089443  32.1996856  68.2779455
  61.6849566  10.1622319  65.8636236  61.9998550  11.0546923  65.7201481
  61.3459873   9.8879600  65.0115061  82.6166058   3.2739568  49.8520041
  81.8068600   3.2731444  49.3415737  83.0838680   4.0561634  49.5586491
  89.4352730  85.0644769   2.7818281  88.5836705  84.7782554   2.4515516
  89.9890336  85.1167597   2.0028192  47.9003517  84.4893486  66.0797119
  47.6648323  84.9625654  66.8777275  47.0612327  84.2373735  65.6941938
  48.0660200   9.1491723  35.5624437  47.3056936   9.7251612  35.4825830
  48.6855507   9.6433747  36.0992622  82.6849461   0.8902992  73.8927603
  81.9648743   0.4323269  74.3263435  83.3154869   1.0617220  74.5922375
  42.1201173  98.9666078  70.6748056  42.9374210  98.5762120  70.3652382
  41.9064800  99.6282721  70.0169373 100.7797146  29.4464564  70.8397102
 100.8958435  29.9994898  70.0671148  99.9501228  28.9937806  70.6877327
  77.1500492  20.7681346  37.0967436  76.5359402  21.0744810  37.7640176
  77.7198315  21.5195537  36.9325709  42.3408834  93.1441582  48.2420778
  41.7158882  93.8573504  48.3723593  42.8933374  93.4390772  47.5181675
 107.1787747  58.9064307   4.7356206 106.5031727  59.4957872   4.4002897
 106.7896660  58.5169007   5.5186254  13.5447113  93.5733558  53.0000877
  13.2056991  93.7551755  53.8765860  13.0490772  92.8093679  52.7053022
  42.2995043  26.0788631  67.8117609  42.0475245  26.9293094  68.1715918
  41.7065096  25.9465361  67.0721102  48.9962149  22.7547312  73.4528923
  49.2059231  23.5272551  73.9777327  48.0456877  22.7890205  73.3454037
  99.3454933  11.5593505  54.2773581  99.3605709  10.6022727  54.2801428
 100.1004982  11.8123353  54.8085785  55.1031017   9.6316242  77.4829674
  55.1969433   8.9369917  76.8311167  54.6154261  10.3200805  77.0308304
   1.5806262  98.2673232  58.8404465   1.7501418  97.5440777  59.4441128
   2.1783797  98.1137208  58.1087828  36.3677812  33.0172896  44.4489336
  35.9746933  32.2013307  44.1392088  35.7529306  33.3454037  45.1050806
  45.7413475  56.2166579   9.2477495  46.4894191  56.7428549   8.9653665
  45.7865898  56.2297083  10.2037889 102.5131329  69.4652213   6.7701227
 102.5911482  70.4191781   6.7807657 102.8245934  69.1898025   7.6323110
  78.9793444   9.9257559  57.6161480  78.8679171  10.7942021  57.2293425
  78.0891323   9.6371311  57.8172779  20.9030525  79.9948038  22.9946786
  20.5209438  79.8746766  22.1253091  20.1576320  79.9441208  23.5930234
 102.7328205  29.9134755  85.0306225 103.2184029  29.1711974  84.6708012
 101.8513489  29.8209167  84.6691513  58.9591312  15.5593729  49.8261261
  58.4762001  15.8920598  50.5826473  58.7898827  14.6172607  49.8293352
  93.3759594  45.3190088  82.9918957  92.5401402  45.4693747  82.5502872
  94.0279198  45.3642750  82.2925091  44.6013308  22.0077491  59.2566919
  43.7575054  21.5585876  59.2072058  44.5739937  22.4776983  60.0901365
  15.8668892  37.8054322   9.3841344  16.2424938  38.4101702   8.7442476
  16.4062683  37.9193093  10.1666433  41.0949707   7.9556161  70.4185343
  40.6429005   7.1174282  70.5149984  41.9676828   7.7220422  70.1022387
  78.4741394  89.6215207  64.0111876  77.9917041  89.1978998  63.3012342
  79.1969577  90.0718791  63.5742092  80.9325123  31.5132999  49.7789145
  81.2590313  32.1318579  50.4323721  80.2076817  31.9729471  49.3551540
  11.4920521  27.8873212  17.4207193  12.4019718  28.0086572  17.6919347
  11.0553646  28.6996037  17.6770860  82.8423882  40.3644037  78.1330061
  81.9488144  40.6168509  78.3654690  83.3408451  40.4750490  78.9426565
  74.4300652  21.3185239  55.3006124  73.6892271  21.5997434  54.7636700
  74.0885973  21.3110542  56.1948013  81.9968224   9.0713876  64.5367241
  81.1217213   8.8658220  64.2078304  82.1290207   8.4619814  65.2629328
  89.4069481  39.9562716  74.2611694  89.2108059  40.8164024  73.8897705
  89.4462967  40.1065397  75.2056789  81.1387730  50.9075832  62.3384428
  80.7846355  51.3417482  63.1145382  81.9299316  50.4679871  62.6499796
   8.7282260  23.4769154  33.1652617   8.2139476  23.9854574  33.7922645
   8.1966861  22.6994658  32.9941964  93.5032463  43.9140081  70.9843588
  94.2504597  44.0960741  71.5542364  93.7994576  44.1716766  70.1113701
 106.1028671  25.7314730  58.6959314 106.4220619  25.3768373  57.8661203
 105.7107353  24.9809027  59.1421509  91.2466717  32.7174425  53.2473612
  90.7112885  33.5092473  53.2988358  92.0288944  32.9880548  52.7666044
  67.6895475  60.5042887  83.7921143  68.4404135  59.9808311  84.0721607
  68.0694437  61.3364935  83.5104179  79.6913004  16.0119700  80.6875896
  80.5989456  16.1308491  80.9673595  79.3493605  15.3309512  81.2668324
  51.7396823  97.4406979  59.2279673  50.9651271  97.4458230  58.6655855
  51.4192001  97.7373797  60.0797272 101.0761261   9.7787112  65.4670906
 101.3375664  10.1129007  66.3251114 100.1928520  10.1230729  65.3349066
  94.0205860  47.5305080  71.1620045  94.7014999  46.8615818  71.0904074
  93.8361263  47.5851107  72.0996714 105.0802040  52.3317623  77.1540117
 104.5110512  52.6728439  76.4641142 105.9122372  52.7870655  77.0250082
  81.3260841  25.0541496  70.3593588  80.9844685  25.9417391  70.2511454
  81.1219120  24.6165037  69.5329142  73.2919741  24.5607162  55.6747532
  72.4102688  24.8686385  55.4649687  73.7089300  24.4298935  54.8231268
  89.9177742  62.8440475  79.9936104  89.0927792  63.3140230  79.8722315
  90.5697441  63.5333729  80.1201153  13.3318885  28.6809587  59.8487091
  14.2640002  28.5755134  59.6582556  12.9277690  28.8275361  58.9934683
  68.3390713  30.0334644  65.3485918  67.4480581  30.3683949  65.2478695
  68.5605621  30.2129793  66.2623453   2.3049529   4.1609964  71.1786127
   2.2199329   3.9920539  72.1169472   2.3517593   3.2911301  70.7819128
  88.9830303  47.7357197  46.5342808  89.6289444  48.0359125  47.1737337
  88.1921387  47.5764370  47.0494127   9.0663044 101.2074722  14.5023614
   9.4959728 100.3545393  14.4382268   8.5332290 101.1481108  15.2951700
   1.0364803  60.2810478  72.0686150   0.5566104  60.0174284  71.2834692
   0.5024703  60.9758568  72.4537134 100.8896351  37.3261046  72.8292465
 100.0753403  37.5883913  73.2586241 101.3262272  38.1515932  72.6190233
  96.0441208  23.0370927  66.8860197  95.3305435  22.7042675  66.3417244
  96.7773247  22.4487472  66.7057467  95.6616592  26.0606432  54.3960667
  95.8381367  25.1919317  54.7572136  95.4201126  25.8965230  53.4845018
  78.6634922  35.9219551  60.6181574  78.0161524  36.3134933  60.0317430
  78.3927155  36.1994696  61.4933109  92.5361538  17.8151345  64.5313501
  92.5536060  16.8590689  64.5745611  92.9589653  18.0250144  63.6986399
  96.0799503  16.4157724  73.1739616  95.9936047  17.3266172  73.4552765
  95.3537464  15.9628487  73.6025858  15.7215778  91.0692991   0.5950529
  15.0908939  90.8022489  -0.0736445  16.1074630  90.2487387   0.9016496
   9.2205890  22.0357037  73.3765793   8.3912833  21.6327453  73.1194878
   9.1662105  22.1086359  74.3294477  95.2720356  10.4430735  69.3188763
  95.6145573   9.8067111  68.6912155  94.6684265  10.9823751  68.8079596
  83.7173843  23.8099456  59.1332817  83.2714558  23.5226679  59.9300575
  84.4120026  24.3907738  59.4437218  79.7495079  29.9399519  57.3949623
  79.1994238  29.5829916  58.0922604  79.4727659  29.4709420  56.6077709
  85.7744026  24.1838598  79.4594383  86.2376881  24.1912746  80.2970219
  86.4342022  23.9079690  78.8232136  21.8237201  48.2451843  -0.0563544
  21.3150398  47.9798932   0.7098753  22.3516266  47.4762092  -0.2713412
  97.2568130  14.3202007  78.2512522  96.7142868  14.2382836  79.0355873
  97.0735836  13.5260487  77.7492714  93.4005070  31.1992359  60.6504583
  92.8456116  31.2766147  59.8743629  93.1906509  30.3372955  61.0099697
  72.3337126  23.8152075  60.0759745  72.0860243  23.5551763  59.1886902
  71.9544077  24.6872997  60.1846647 103.8975676  63.7158562   5.1834566
 104.3312748  64.0099110   5.9844953 104.0465029  64.4238426   4.5567209
  21.4277355  69.2903878   5.3358060  21.5952865  70.2321495   5.3710825
  20.6353180  69.1683449   5.8586961  90.8193644  55.2167071   0.3577787
  90.6862029  56.0790153  -0.0358218  90.4319771  54.6051653  -0.2684611
  94.6731853  45.8928728  85.2159119  94.1137791  45.8064222  84.4440269
  94.0744877  46.1463642  85.9184361  72.7985287  27.9828024  84.6676064
  71.9666862  28.4313869  84.8193836  73.2281542  28.4991598  83.9856720
  74.4807911  22.0405555  60.2720165  74.2644644  22.5499845  61.0529900
  75.4310417  22.1207356  60.1893759  12.8372852  91.5104450   9.7052366
  13.2140438  91.4984669  10.5850870  13.5195152  91.1367334   9.1474420
  83.6424637   8.9328957  54.0622044  83.8259411   9.5611769  54.7606468
  84.4579506   8.8844049  53.5633469 105.6115532  60.9910059  82.5122738
 104.9714375  61.3553715  83.1235981 106.0527420  61.7561007  82.1432114
  90.0704384  39.2974901  86.6050911  90.6733322  39.2703629  87.3480701
  89.6872234  38.4208488  86.5754795 104.9672087  81.1321033   3.7280065
 105.4162367  81.7438854   3.1446249 104.0964468  81.5110125   3.8481313
  63.3489227  22.6555586  62.5833082  63.6222696  23.3627224  61.9989872
  62.4921274  22.9315281  62.9088402  92.2355175  43.5704899  52.0623398
  92.0345974  42.8622913  52.6741505  93.1267071  43.8367224  52.2884560
  57.1612835  30.6194687  46.6582108  57.6058054  30.4786754  47.4941635
  57.4232197  31.5011597  46.3931751  71.4620781  19.0539241  63.2129622
  71.4731359  19.7433352  63.8769054  72.3723125  18.9839005  62.9252100
  85.5879879  26.9199443  82.5833321  86.0327816  27.1842098  81.7780018
  86.2179184  26.3546872  83.0304337 100.2257252  25.5275774  52.2872210
 101.0977650  25.6009531  52.6750422  99.6696091  25.2227712  53.0041981
   5.4855673 101.1785902   1.1948568   5.7325594 100.7294573   2.0032579
   4.6977083 101.6708530   1.4254743  80.4487038  31.3856244  44.3904448
  80.0217915  31.8628478  45.1019478  80.9093285  30.6682849  44.8257446
 106.5999985  15.3696883  85.1185036 107.1868706  15.1560712  84.3931293
 106.8263340  16.2697983  85.3526115  77.5453377  13.3212459  29.7767258
  77.5359631  14.1428483  30.2677584  78.3845997  13.3268523  29.3164706
  74.9117994  23.7207055  36.7851853  74.1906261  24.2513967  37.1235752
  75.6405067  23.9001083  37.3793483  19.1895755  20.7122755  56.5533543
  19.9111636  20.9233189  55.9608984  19.5921500  20.6862998  57.4213886
  84.2799377  36.5498257  53.5437489  84.3377304  35.6413603  53.2478094
  84.7497559  37.0495677  52.8760958  87.2885609  31.3709641  66.0073566
  87.5339031  31.4156938  65.0832129  88.1227970  31.3657117  66.4766598
  76.2587023  72.7506828  55.0961733  76.5043592  72.7567911  54.1710520
  75.6142902  72.0465708  55.1682234  87.1260452  20.4539108  41.9386530
  86.1725521  20.5055571  41.8722486  87.3770142  19.8040760  41.2821722
  11.9667228  19.4234705  76.3637114  11.2498553  18.9399290  76.7742300
  12.6818641  19.3760443  76.9981861  74.6465206  34.2304802  87.9310513
  74.3390226  34.9700665  87.4069405  74.6720600  33.4962749  87.3174286
  94.9761772  17.1715522  66.1597872  94.1789246  17.3583353  66.6555023
  94.6897125  16.5895951  65.4558706   1.6790279  30.8096051  72.0414829
   0.9802707  30.1584911  72.1048880   1.2791045  31.5458179  71.5785742
  98.4689045  54.3341064  57.3026037  98.1106663  54.9974918  57.8923559
  99.4000435  54.2969227  57.5213003  23.0904849  31.1472201  65.8459854
  22.8912051  31.3736701  66.7544127  22.2386249  31.1356878  65.4096127
   5.6466468  23.8231874  52.5613880   6.0730060  22.9957247  52.3383331
   6.2281688  24.2260718  53.2061815  73.3508873  33.5359359  53.5766029
  73.7674332  33.9379263  52.8142881  73.9503860  33.7171364  54.3004799
  23.2978177  50.2541637  63.6531544  23.9815068  50.9078789  63.7996435
  22.7160788  50.3426933  64.4081211  90.0019836  95.5139637  85.2809429
  89.7810173  95.4250145  84.3538570  89.1997147  95.2705097  85.7428169
  81.8361282  52.1775389  49.1847229  82.5880146  52.1319389  48.5941219
  81.1639690  52.6373196  48.6816931  67.3418713  21.1267591  81.9817448
  67.0333910  21.5377665  82.7892971  68.1213140  21.6273999  81.7407799
 104.5820236  15.0437248  63.3487034 104.8217010  14.6418118  64.1837215
 104.7151756  14.3504739  62.7022457  13.8527568  12.8481746  85.2324772
  14.6576102  12.9715455  85.7356739  13.8480457  11.9165325  85.0128174
  88.5314083  50.8803272  54.7643232  87.8527164  50.3100920  55.1254988
  88.1904221  51.7662096  54.8874569  89.0451431  58.3190012  39.4099522
  88.2613277  58.0542564  38.9285254  88.7111282  58.8163376  40.1564932
  51.4541769   2.6533955  59.5114946  51.2337923   2.3471740  60.3912067
  52.2368097   3.1907141  59.6339893  54.7675228   3.3790496  52.5259256
  53.9825392   2.8327680  52.4857950  54.4336891   4.2724755  52.6070166
  95.7902622  18.0358803  58.1443310  96.6992760  18.2991397  58.0007601
  95.3111744  18.4183729  57.4092054  52.0925760  11.0215056  60.7747078
  52.7539778  11.4578414  60.2376890  52.0675659  11.5309131  61.5847158
  94.9661922  67.6334047  46.5226269  94.6487808  68.1459856  47.2660923
  95.7653141  68.0819654  46.2461710  73.6637163  60.9576511  72.1733379
  73.7786722  60.0365019  71.9398832  72.8852272  60.9682608  72.7301741
  96.6131496  23.7779164  58.9256191  96.9769001  24.6225405  59.1911888
  96.8702030  23.1761265  59.6241903  85.8169556  34.6220493  69.1240406
  86.3012218  35.0503206  69.8299456  84.9684715  35.0649667  69.1126251
  94.5245552  28.0782461  69.4854498  94.7260761  27.3019505  70.0079298
  94.8684311  27.8770566  68.6151028  88.7694073  45.0059557  55.1642656
  89.4096184  44.6390820  55.7739925  88.9129162  44.5258570  54.3487024
  73.3682680   4.8834819  87.9662228  72.6888943   5.4790699  87.6500607
  72.9006052   4.2602172  88.5221577  18.5046045 100.5017719  50.5617237
  17.8472892 100.1595642  51.1675787  18.0063621 101.0403054  49.9469328
  40.0230789   5.9766013   7.7898580  39.7144509   6.2735659   8.6458856
  39.2269850   5.8876807   7.2658712  50.0281715  13.0043674  72.8103971
  49.5806694  13.8448262  72.7124071  50.7585239  13.1893015  73.4008360
  47.0181036  11.9327724  51.5248966  46.3138866  12.5686944  51.3987637
  47.7823925  12.3371959  51.1143637   6.5066989  39.5105290  68.4557438
   6.6042121  39.0725517  69.3012571   7.3539909  39.9291062  68.3036947
  95.9044266  29.8082161  85.3777027  95.1529026  29.7045684  85.9613991
  96.4735889  29.0673900  85.5861855  96.7569065  21.2900829  61.5607071
  95.8668518  20.9474897  61.4791250  97.1052933  20.8672571  62.3456097
  94.7983837  36.4654899  72.3849392  94.6175003  35.9566331  71.5946341
  93.9469624  36.5531278  72.8134727  86.2180233  47.2431612  73.4763193
  86.2828541  46.3985729  73.9220810  87.0580006  47.6692104  73.6470795
  98.6329174  35.7582211  54.4113159  98.0023193  35.9018159  55.1169825
  98.2937336  34.9985695  53.9379072 103.4015465  46.1502075  86.6201496
 104.1240978  46.7721415  86.5344143 103.0351448  46.0856962  85.7382011
 103.3212280  57.4969721  75.7708073 102.6795197  58.1341076  76.0846615
 103.2623196  57.5477743  74.8167753  97.6096535  18.8580203  78.5032749
  98.4165096  18.4135199  78.7633324  97.3394871  19.3404949  79.2845964
  47.3114578  86.5390808  45.0238371  46.5505687  87.0349235  44.7214937
  47.3537437  85.7838947  44.4372082  80.7449436  34.1441655  60.7587147
  80.5179882  33.4529614  60.1366520  80.0697994  34.8109102  60.6327295
  98.2015133  14.4788635  85.4307747  97.8921795  15.3772295  85.3146744
  98.1929588  14.1067445  84.5489120  85.3484535  38.7411642  76.0795641
  84.8820210  38.9611077  75.2731562  84.8131752  38.0607438  76.4878941
  77.5906555  87.7917225  77.3853493  77.5443355  87.1772749  78.1178379
  76.7433921  87.7073652  76.9480181  92.8516960  11.2248278  48.7761974
  93.2227039  11.1831594  49.6575880  93.2733727  10.5064750  48.3046246
 102.3900223  58.5076475  73.3131695 101.6610909  58.6250067  72.7039719
 103.1422710  58.8926554  72.8635836  20.2735694  31.0115910  67.8678370
  19.6996196  31.5130234  67.2887182  20.9016498  31.6542172  68.1976652
   7.7270691  75.4444922  35.7493288   8.5383026  75.4148115  35.2421361
   7.9891817  75.7964839  36.5999967  37.3273651  93.4930433   0.4892713
  36.6529743  93.0063023   0.9630949  36.8859092  93.8078035  -0.2995699
  95.9694290  16.5497184  52.0574570  96.1892319  15.6647956  52.3487139
  95.6974220  16.4412844  51.1461449  50.0341892  24.4762278  85.5108738
  49.9505138  23.8294673  84.8102093  50.6705189  24.0938091  86.1150837
  76.7253065  59.2873812  77.0201302  76.7734957  59.9400902  77.7186155
  77.4395370  58.6793232  77.2108412  91.9872665  19.7259927  82.7540207
  91.3055801  19.7200394  83.4259605  92.2987652  18.8215053  82.7208424
 103.4990406  25.5830503  79.6553564 104.1532326  25.6552005  78.9603376
 102.6596451  25.5847311  79.1952991  78.1513405  11.8904614  79.6473074
  78.0596495  12.3286307  78.8012362  79.0296316  11.5104699  79.6262980
  72.6391935  19.7457588  52.0030594  73.3719730  19.2309976  52.3411131
  72.6647758  20.5588388  52.5075150  97.6279068  35.6499171  58.1199884
  98.2034779  35.5731845  58.8809538  97.3654175  34.7499752  57.9265070
  87.7534008  63.7880802  49.6924305  88.6725903  63.5265255  49.6385479
  87.7121925  64.6177912  49.2169094  91.0407925  52.8400040  55.0136042
  90.4209328  53.5672474  54.9576664  90.9660435  52.3960638  54.1688824
  96.5945911  43.8422108  63.9822006  96.7740822  43.7318468  63.0484819
  97.4390507  44.0859938  64.3612576  80.8780384  38.0137372  72.6514435
  80.1070690  37.5546408  72.3181820  81.0385704  37.6207542  73.5093641
  82.3878288  17.4940252  57.4399662  82.4980164  18.1592333  56.7605591
  83.1954384  17.5384188  57.9518557  99.0297699   3.9788255  73.5720730
  98.2584381   3.4985122  73.8730145  99.6380234   3.9418581  74.3102455
 107.1962317  74.8743619  11.9213373 107.4543150  74.4012202  12.7123815
 107.7336176  75.6664313  11.9299394 107.8528690  28.6211610  71.9598389
 107.8257847  27.8077745  72.4637222 107.4571037  28.3948088  71.1181927
  88.3212948  21.7124295  66.0599566  87.8386307  21.7101192  66.8865490
  88.5364437  20.7925749  65.9056568  30.9667198  88.5553397   0.7501298
  30.8539097  89.3414010   1.2845594  31.8663589  88.6117186   0.4281026
   0.8211024  34.9951267  62.9436636   0.6064113  34.1120219  63.2441044
   1.7233165  34.9289656  62.6308250  29.7856418  60.3355761   6.1647970
  29.4288818  59.5919622   6.6505891  29.6667568  60.0998433   5.2447301
  65.9792089  46.9033003  83.0376339  66.3087034  47.7938318  82.9167366
  65.0746679  46.9382906  82.7264786  90.2180386  57.7250433  82.5897598
  89.7679329  58.3059740  81.9764423  90.1135445  56.8514347  82.2127628
  65.3720856  76.5485191  81.4149475  65.6205654  77.4483681  81.6265106
  65.9009266  76.0094309  82.0031166  89.3729210  11.0534000  59.4239283
  90.2072048  11.5226495  59.4269037  89.0776443  11.0840428  60.3339338
  71.3007593  34.8520851  68.0149508  70.6005764  35.4421306  68.2939100
  71.2150908  34.8122120  67.0624256   0.8035358  15.4134810  79.5770645
   0.3208240  15.2197492  78.7735176   0.7188590  16.3608158  79.6848488
  31.0335334  11.9929123  53.1811666  30.4097732  12.5985277  53.5816383
  31.5329154  11.6413164  53.9182091  86.7695618  15.0079262  39.9585891
  87.0504189  15.7272494  40.5242062  86.1314297  15.4046476  39.3655968
  89.3251801  14.8655403  29.2062426  89.8442650  15.6146860  28.9137173
  88.5179043  15.2515757  29.5460963  87.6504803   0.5199381  48.8717127
  87.7468491  -0.4313425  48.9165545  86.7543125   0.6839997  49.1653061
  96.1993408  47.2454977  78.8638639  95.6480694  47.0398808  79.6188831
  96.9374275  46.6401005  78.9342451  63.2632446  37.6919723  78.2638645
  63.9733410  37.1033120  78.0079842  63.5372353  38.5512829  77.9433298
  73.8631058  46.2369013  69.6109533  73.2740593  46.5909958  68.9447165
  73.3561373  46.2722874  70.4221010  56.3598442   6.3501996  66.2731171
  56.6487551   6.2042284  65.3723097  56.9915962   5.8696729  66.8081093
  84.2192173  57.7940655  78.8062048  83.4955502  58.0394697  79.3826723
  84.5795155  58.6283779  78.5056353  25.8516868  46.3441420  72.4244308
  24.9025043  46.2206697  72.4304295  26.1528381  45.9250450  73.2305956
  85.2014256  54.2139244  54.0042210  85.3885365  54.1117954  53.0710602
  84.2732906  54.4455099  54.0384531  13.2063850  13.0588067  66.3464594
  13.1152709  13.2915246  67.2704554  12.6856406  13.7140191  65.8819675
  83.5383797  39.7452307  62.5789022  84.2137432  39.5787883  63.2364845
  83.6312199  39.0269113  61.9530964  63.5599987  79.1691483  19.3069536
  63.6155216  78.2690920  18.9859468  62.8387252  79.5563067  18.8108617
  57.8100673  71.2526812   0.5620748  58.4148494  70.9214987   1.2259943
  58.0860988  70.8244671  -0.2482813  96.1871632  94.0220703   4.0442068
  96.7150982  94.8204531   4.0542203  95.4670914  94.2034878   4.6482069
  55.5921642 101.5362078  73.9174652  55.1606742 101.3979660  74.7606373
  54.9926845 102.1026408  73.4316540  35.3394691  51.0920295  17.8420908
  34.9436657  51.6172915  17.1466238  35.9160320  50.4815834  17.3825628
  78.8952684  16.6009510  68.1566000  78.6037207  16.1338592  67.3736191
  79.4650793  17.2942603  67.8236294  68.9752388   5.9294569  57.9072142
  69.1612625   6.7498136  58.3639860  69.8115921   5.4639405  57.9007483
  87.4582958  21.1065221  78.3243656  87.4736023  22.0608497  78.2518578
  86.7184353  20.9221148  78.9030123   5.5230697  42.4173689  62.0963049
   5.8229144  41.9506598  61.3162374   5.3420051  43.3056784  61.7891359
  96.7090893  19.0036213  41.1791563  95.9258175  18.7890255  41.6857815
  97.1310234  19.7046578  41.6758966  61.5157024  98.8957805  21.8380451
  61.7479602  97.9803044  21.9935751  60.9807388  99.1388557  22.5936651
   7.8822366  95.0774254  18.2359487   7.0431987  95.5373730  18.2096559
   8.0808918  94.8889507  17.3187524   8.0355819  56.2979698  80.2088547
   8.0628188  57.2356272  80.3993416   7.2070106  56.0010910  80.5851173
  95.3224087  37.4358273  65.1832771  94.4069862  37.2452116  64.9785948
  95.2962685  37.8259134  66.0569906   1.6012653  22.5307560  52.4229622
   2.1900447  22.2290778  51.7311859   2.0453246  23.2895899  52.8013992
  76.3980246   5.4994071  62.0001554  76.4701748   4.8825848  61.2717628
  77.1662188   5.3205281  62.5424767  16.9333633  57.0978308  84.0857315
  16.3565620  56.4229298  84.4435596  17.8082355  56.7116594  84.1269302
   5.4637798  28.3720469  45.1625061   6.2099727  27.8544760  45.4650784
   4.7091850  27.9881883  45.6091261  23.2934372  85.8397426   6.0069829
  23.5547535  84.9911465   6.3645155  22.6266662  86.1604394   6.6142828
  68.9884949  19.7506642  62.8274441  69.7624874  19.1894102  62.8738785
  69.3361473  20.6233764  62.6437473  87.9685116   7.1417171  75.1229048
  88.6168861   6.6285211  74.6407509  88.4070969   7.9732108  75.3031588
  90.1765537  67.1604061  85.4261112  89.9831104  68.0145121  85.8125210
  89.3206978  66.8095779  85.1797962  90.6615257  21.4240479  74.7956991
  90.8165455  20.8244061  74.0658855  91.5305519  21.7551613  75.0223732
  46.4544106   0.2580714  58.9578724  47.1840858   0.8744204  58.8952589
  46.1189127   0.1924661  58.0637980  86.7978859  11.3273454  66.5953588
  86.9165611  10.7432413  65.8463764  87.6820087  11.4618146  66.9366646
  44.1336338  95.3253783  79.8803425  43.8095657  95.2077169  80.7732964
  43.4030763  95.0570280  79.3231106  34.3920700  81.5755857   7.5631792
  33.6691944  80.9561504   7.4632341  35.0796978  81.2356247   6.9906217
 107.7298832  21.7832184  73.2938719 108.4328938  21.2780595  73.7023115
 107.4495792  22.3963714  73.9733601  98.4105309  87.7627171   5.8109933
  99.3409451  87.8227772   6.0276872  97.9984721  87.4389280   6.6119939
  51.2978268   3.0348260   4.5168001  51.8098259   3.8423974   4.4730073
  50.9381581   3.0270678   5.4038221 100.2418232  31.2774467  62.7067995
 100.9475136  31.7926621  62.3159361 100.2665615  30.4431248  62.2382641
 103.6166859  41.5080500  58.1157351 104.3929672  41.8413115  57.6656628
 103.7994003  40.5783653  58.2518721  59.5265476  55.0557093   5.5337888
  59.0515987  55.8671455   5.3542501  60.3057567  55.3355391   6.0141546
  72.7161074  10.1473224  32.7135873  71.7724371  10.2694428  32.8175259
  72.8075171   9.2506850  32.3912239 104.9927998  28.9374518  52.9801893
 105.0021553  27.9936814  53.1396961 104.5017624  29.0376711  52.1646690
  90.8905697  31.8475175  76.2701368  90.0835800  32.3619747  76.2520504
  90.6009197  30.9432721  76.1489916   0.9511606  73.4395255   0.9131128
   0.4945223  74.2793287   0.8636934   0.5605833  72.9985513   1.6675741
  72.3801517   8.7194961  60.3972960  72.3557997   9.1785896  59.5577288
  73.2571268   8.8926286  60.7395983  88.6011028  21.7601275  70.4513311
  88.4824657  20.8106470  70.4766893  88.0950356  22.0444942  69.6902418
  74.6844578  66.6390753  47.7466059  75.1019907  67.2866297  47.1786499
  73.7652302  66.9042778  47.7768660 100.4187679  20.6050372  14.7634673
 100.0587559  20.6681347  13.8787985  99.6947861  20.2715850  15.2934575
  44.9539042  11.3270295  86.7733002  45.4300165  11.8484545  87.4195766
  44.2127228  10.9635699  87.2578430  83.9541912  27.7374506  75.6424284
  84.0083122  28.2192087  74.8170757  84.5614433  28.1926680  76.2257385
 102.8422451  61.2239313  77.9431248 103.1637096  60.3231382  77.9048634
 101.9106197  61.1548328  77.7344656 104.0215405  77.6090611   7.3565656
 104.3201931  76.8748511   6.8199331 103.6564740  77.1995224   8.1409341
  92.6186371   5.6594980  71.4002800  93.0120564   4.8084825  71.5932226
  92.2311115   5.5527902  70.5315638  34.9485008  46.9478823   6.9368440
  35.1172821  47.5103287   6.1809331  35.4790203  47.3245929   7.6388914
  95.4288197  85.7216930  60.1536131  96.0048294  85.2054787  60.7175064
  95.0891781  85.0920963  59.5176220 107.8610611  18.0578172  79.8697186
 107.0918083  17.6508915  79.4711208 107.5705624  18.3125567  80.7454777
  96.3242912  77.8474569  77.3795128  95.9951782  77.5490570  76.5316486
  96.8045902  77.0963144  77.7278328 104.2537594  63.1546879  67.8615189
 105.0231552  63.7231350  67.8949928 104.5036125  62.4482727  67.2658825
  81.7064953  33.8344336  63.4394693  82.5160122  34.3359423  63.5364723
  81.3615799  34.0989923  62.5866699  81.4490604  55.1438093  56.6805649
  81.9513321  54.6649408  57.3398352  80.8067799  54.5097923  56.3616180
  89.8152161  48.3761644  76.7566776  88.9342213  48.6367607  77.0253181
  90.2296257  48.0669880  77.5622272  27.8981384  67.1697044  74.3301582
  28.4237655  67.5409365  75.0387764  26.9921096  67.3082399  74.6061087
  10.1672538  23.1232381  51.1336851  10.4566463  24.0273666  51.2563086
  10.7033427  22.7960443  50.4113388  72.7699081  74.9133117  80.1814938
  73.3432762  75.2634103  80.8633327  72.4273960  74.0995032  80.5511284
  99.9898052  50.4055643  69.9626541  99.6135998  49.9094391  70.6896782
 100.5321407  51.0727930  70.3832674  83.3397579  89.3198872  81.9367027
  83.9148617  89.3347263  82.7017307  83.3522797  88.4082127  81.6452980
  11.6400321  36.9404912  68.7982607  11.5387424  37.3245502  67.9273558
  12.5395282  36.6135097  68.8126945  35.2654640  97.2836126  25.0867445
  34.8597805  97.1698727  25.9462339  36.1275284  96.8766464  25.1730424
  82.9858208  35.7913470  70.2809525  82.3410892  35.2103591  70.6846857
  82.5679684  36.0877705  69.4723940  23.8821109  74.3098164  55.1127386
  23.7182315  74.0643644  56.0233021  24.5166667  75.0243378  55.1677752
  83.8739959   6.9822727  87.7092685  84.3545333   7.6561438  88.1901173
  83.4312431   7.4588476  87.0070740 102.8358936  31.3160753  74.7879982
 103.6240578  30.7748532  74.8338556 102.6610279  31.5619802  75.6963968
  83.3384418   7.1798724  56.3262749  82.7279949   7.8238040  55.9671926
  84.1545296   7.3316842  55.8496284  38.7241165  79.8207916   0.8177549
  38.7971393  80.2259339   1.6819078  38.2889930  78.9840807   0.9815008
   1.5602000  41.5511513  74.5548582   2.4280246  41.6301394  74.9509287
   0.9595283  41.5154839  75.2992678 102.3275661  34.4760489  72.9024553
 101.7411232  35.1997447  73.1228495 101.8726063  33.6948061  73.2169485
  82.6618004  65.5100870  84.2532444  82.7785110  65.8085394  85.1552010
  82.9064369  64.5849037  84.2735386  19.6475116  97.0381464   2.7917177
  20.5199901  96.6687168   2.6555997  19.7359745  97.5783314   3.5769636
 102.8893956  78.0302109  21.3137895 102.1943434  78.5458983  21.7226869
 103.6362942  78.1234325  21.9051248   9.8602184  24.3320823  47.2343588
  10.1381953  25.0989580  46.7334938   9.1927322  24.6663737  47.8334713
  53.2663202  38.8292956  79.6235943  53.2634974  39.3574905  80.4218674
  53.1322289  37.9322529  79.9294710  25.9165271  22.0960212  45.7744265
  25.3283294  22.8506351  45.7459116  26.4049991  22.2038007  46.5905190
   1.0314067  40.4498529  69.2166424   1.1031516  40.4438829  70.1711321
   1.1480315  41.3682604  68.9734268  88.6973381  22.8461790  62.4490976
  88.0026054  23.3479881  62.8754473  88.2406998  22.3026848  61.8069696
  24.1821559  62.3945999  81.6174603  23.8530048  63.0876589  82.1897984
  24.9416907  62.7830172  81.1833477  85.5249500  78.2670069  60.8928776
  85.9029484  79.1402864  60.7893229  86.2672329  77.6711798  60.7917023
  18.3838447  32.1610928  64.3731976  19.0356715  32.5559807  64.9523401
  17.9313834  31.5212560  64.9228525  26.0895149  44.0674384  21.9871885
  26.1289493  43.1260605  21.8184167  26.5724174  44.4614519  21.2606985
  99.7696877  75.1089478  34.8570061  98.9134884  75.4951811  35.0413680
  99.5696068  74.2582560  34.4664621   9.9072059  64.1054487  87.1002197
  10.1439555  63.2427120  86.7598248   9.5829948  63.9334202  87.9842567
  45.4699612   3.6931474   6.8615896  44.9255085   3.7915809   7.6426870
  44.9644566   4.1091735   6.1632902  87.1928883  42.5265789  63.7044907
  87.5588226  43.1979084  64.2803764  87.8439713  42.4258375  63.0101061
  18.8821777  39.0811944  60.4522514  19.1936191  38.3636022  59.9006224
  19.5536788  39.1724634  61.1282539  90.6066895  26.8939590  45.0374842
  89.8522758  26.9306517  45.6254864  91.3490486  27.1518779  45.5839396
  97.7487087  26.6955590  46.6364431  97.8938484  27.0821738  45.7729101
  97.9374599  25.7647920  46.5169430  29.9246685  79.9042596  19.0357381
  29.3315689  80.2028288  19.7251779  30.0425235  78.9702882  19.2090589
   3.7041076  25.4663491  73.3914566   3.7711509  24.5666003  73.0717850
   4.2501243  25.9748673  72.7918768  91.9332695  35.0964451  47.3105621
  91.3294506  34.4631815  46.9224739  92.3431873  35.5272770  46.5605068
 100.9844303  64.4854879  76.6157866 100.9560204  63.5867643  76.9439983
 101.7956161  64.8458004  76.9740820  91.2159920  70.4229784  78.8218594
  91.0107327  69.6188450  79.2987967  90.8684540  70.2751303  77.9423189
 103.9803123  17.3680735  61.5195656 103.9300156  17.1648991  62.4536037
 104.8752022  17.1357095  61.2717628  60.5819798   5.8829505  12.5917989
  60.3325176   6.6070706  12.0176393  61.0832787   6.2963492  13.2946664
  27.0469944  94.3170990   3.2554037  27.2154514  95.2124180   3.5491067
  26.8363277  93.8378014   4.0567285  92.8941250  63.6261225  78.9670992
  93.2928848  64.4888878  78.8536978  93.4372997  63.1961679  79.6276569
  73.9771509  52.8636932  53.1779528  74.3454790  52.0278406  53.4641647
  73.0557203  52.6721382  53.0033064   1.7246803  41.4198351  49.4915247
   2.6723083  41.5285492  49.4113874   1.5406306  41.5954781  50.4142952
  92.0183372  49.2964554  75.2711201  91.1019611  49.1158295  75.4805470
  92.4061584  49.5641375  76.1042881 101.5327263  31.4427686  47.4391174
 102.2934818  31.7702293  46.9592762 101.3331318  30.6022668  47.0268631
  85.1365757  46.3809681  76.9408655  84.5497799  45.8170271  77.4447155
  85.6081390  45.7807636  76.3632679  11.1855395  39.0931153  70.6036568
  11.3058265  39.8794794  70.0713062  11.5170177  38.3807540  70.0569439
 102.1137047  70.2716875  63.1783056 102.5982094  69.4635153  63.3466578
 101.2965393  70.1669884  63.6656570  59.3586731  21.2909913  62.3834658
  59.9827194  20.9170628  63.0055380  58.7099648  20.5998611  62.2502470
  57.4442863   4.9358580  54.0471601  56.8302488   5.6371343  53.8294411
  58.2641172   5.1964599  53.6273956 105.4307842  46.1638117  69.3269825
 105.3388405  46.4574671  68.4205914 106.1955452  45.5882788  69.3158865
  86.2317371  58.1515360  67.8632498  87.0584011  57.7054405  68.0472612
  85.6190205  57.4453640  67.6579809  76.6117239  74.2557955  45.2147627
  76.0859156  74.9421072  44.8039913  77.4948835  74.3933439  44.8722029
  86.3978767  31.9440818  47.7229071  87.1367931  31.3785839  47.4982929
  86.1084938  31.6309786  48.5799122  21.2951263  49.6484661  77.5340796
  20.6262954  49.8741531  78.1805801  21.1236747  48.7308407  77.3224211
  89.0695000  64.8153543  42.2973347  89.6436691  65.0558281  41.5701914
  88.5842228  64.0546513  41.9778633 107.4493504  18.0682278  85.4169083
 108.0870247  18.2577515  86.1051559 106.6257572  18.4261096  85.7483292
  89.8109722  38.2021403  64.7166586  89.1377068  38.4593177  64.0867281
  89.7566414  38.8619041  65.4080248   6.2846740  43.1427860  25.2618551
   5.6136020  43.8246822  25.2315784   5.8342632  42.3503447  24.9696136
  12.4044212  82.5040245  75.8382130  12.5933059  81.6491890  76.2252665
  11.6138442  82.3618412  75.3176498   7.8977187  50.6564808  21.4379764
   8.0849250  51.3434982  22.0776629   7.1952232  51.0176134  20.8973217
   3.1278690  30.5755329  51.9697905   2.6130470  31.1796451  52.5047970
   3.2651027  31.0427785  51.1457253  92.5847912  41.2443638  56.8084383
  93.3688641  41.6960859  56.4963436  92.7173996  40.3310919  56.5543175
  36.7866405  38.7792921  71.2280560  37.4404128  38.8984942  71.9169664
  35.9671100  38.6284900  71.6990948  85.4371357  35.5426073  74.6269846
  86.1935234  36.1086559  74.4730330  84.7083187  35.9963489  74.2036867
  99.2231750  23.7133384  75.0630426  98.9752674  24.5948863  75.3416967
  98.4180927  23.2017231  75.1425791  10.8086960  74.5088948   8.9264185
  10.1256363  73.9393462   8.5724718  11.6159145  74.1980590   8.5165197
  60.2516603  28.6091709  86.8573666  59.9201202  28.0605626  87.5682449
  60.0826216  28.1011081  86.0639381  14.9246303  78.3256401  23.6628801
  14.3996898  79.0526308  23.9977724  15.3717033  77.9776801  24.4344217
 103.1056595  51.8949223  58.2970333 103.9473724  51.6663933  57.9026747
 103.0149364  51.2914371  59.0344715  78.5789442  50.9342051  44.6409559
  78.9517641  51.7825127  44.4009256  77.9961014  50.7144499  43.9141560
  96.5177441  84.1780663  62.2445869  97.4106598  84.4480801  62.4591303
  96.3733196  83.3901882  62.7686357 103.1752777  40.7746935  63.1448317
 102.9091549  41.6900158  63.2320023 103.7899780  40.7728195  62.4110889
  81.4306927  42.7416182  78.8126802  81.0823345  42.2834730  78.0478430
  80.8147812  42.5361824  79.5160151  98.4607029  10.6540620  79.0702820
  98.2287788   9.8623139  78.5849142  97.6737881  10.8664560  79.5721674
  96.7965698  42.5199175  77.3832464  96.8337822  41.8075418  78.0215025
  97.5534058  43.0677414  77.5913620  95.1268959  45.1569176  59.3729353
  94.2935658  44.8339272  59.7156858  94.9272060  45.4325390  58.4782887
 104.4763947  33.8817167  48.7386227 104.2880535  33.1775761  49.3590593
 103.6346817  34.3189192  48.6097813  84.8300934  13.2028127  58.9524984
  83.9943218  12.8232217  59.2238235  85.2883530  12.4851942  58.5151768
  61.1903763  13.8963134  31.7563421  62.0427227  13.6046512  32.0798856
  60.8794403  13.1717021  31.2136632  75.6794310  76.7790127  76.0477114
  76.5963078  76.5104675  76.1064816  75.5699062  77.4137306  76.7557859
  95.7939720  32.3455739  54.7685671  96.0033321  32.5537920  55.6790829
  96.6407299  32.3449922  54.3222094  80.7938385  57.4312878  47.3944473
  81.4855099  57.2283220  46.7646646  81.2600899  57.6306629  48.2062960
  52.1067906   1.0462529  16.1308652  52.8619290   0.7587201  16.6440183
  52.3834419   0.9448058  15.2201540  81.1091995  21.4488697  46.3457203
  80.6743526  21.3421082  47.1917391  81.4481163  20.5778694  46.1390162
  96.3838768  38.8818717  52.8055620  96.0496807  38.8926864  53.7024641
  96.9435883  39.6563220  52.7491617  76.9351864  86.5909481  71.1295223
  76.3559198  87.2711372  71.4730597  77.7061510  87.0666122  70.8203459
   0.7512839  62.4858999  50.9900713   0.8128150  62.3888874  50.0397921
  -0.0474946  62.9950762  51.1276197  85.8292103  53.2225943  63.4104490
  86.3288403  53.3471060  62.6035452  84.9820042  53.6312580  63.2330513
   1.8384345  96.2053871  60.4713678   2.5236400  96.3954163  61.1121559
   1.1895831  95.6971550  60.9581232  94.1317940  56.2422037  86.5020370
  93.8312721  56.4806938  87.3789883  93.3353710  56.2292910  85.9711933
   1.3095077  77.6288080  61.1955404   1.1686500  78.5745096  61.2407923
   0.4326900  77.2610760  61.0851002  86.5817356  54.3399096  74.5565176
  86.5960503  54.4177008  73.6025953  86.4548397  53.4051275  74.7187185
  89.7472954  78.3980560  84.0655518  90.0285053  79.3115950  84.1164684
  89.2264271  78.3521223  83.2637882  76.8312120  35.5129695  56.8700647
  76.7056417  36.1561370  57.5677776  77.7490520  35.2523971  56.9468641
   7.6790507  29.4807076  64.7656488   6.8443759  29.0449905  64.9379587
   8.3408912  28.8576937  65.0657272 105.5951500  19.7280025  59.9290466
 104.6803093  19.7834837  60.2051258 105.5607605  19.7813272  58.9739513
  59.2526150  12.8695971  35.0526411  59.3330670  12.0068175  34.6459848
  58.4156323  13.2074601  34.7339899  85.7144070  13.8837039  66.4408493
  85.8892918  12.9548883  66.5923262  85.8519840  14.2955613  67.2938919
  16.4119037  82.2506237  51.1710739  16.9112762  81.8412971  50.4644585
  17.0082648  82.2457790  51.9197845 103.8202381  77.5439119  64.8142958
 104.4766998  77.2700977  65.4548597 104.2192554  78.2897902  64.3663073
  15.3686412  53.2164431  23.5527158  14.7240050  52.9170370  22.9115987
  15.7123073  52.4116659  23.9406037   6.2854274  68.6043930  56.3416290
   6.6569598  67.7365398  56.1834574   6.5468486  69.1195822  55.5784321
  62.4790946  81.8455178  51.3643503  61.8091384  82.5027818  51.5524864
  63.1727020  82.0217568  52.0000219  93.9946842  27.4286699  73.5285997
  94.2233658  26.9271469  74.3111706  93.4802818  28.1655431  73.8581991
  22.4436553  52.9569674  62.2170925  22.1197971  52.4275732  62.9458523
  23.0214389  52.3681974  61.7315626  67.5688171  79.1990519  72.9415417
  66.6491318  79.4362974  72.8227091  68.0398798  80.0303936  72.8848696
  29.7678073  37.3465180  57.5186253  29.8740562  36.8064976  58.3017731
  28.8601764  37.2034216  57.2503519   9.9828609  45.9266281  49.4439745
  10.7235416  46.5318155  49.4810295   9.8368247  45.7837915  48.5088253
  91.9864750  49.0677929  29.2492747  92.1046829  50.0111294  29.1380477
  91.1878395  48.8672876  28.7611938   9.6904643  65.3395748  83.6092377
   9.2740234  65.3966904  82.7492714  10.2904208  64.5973349  83.5360050
 104.1630554  17.2836310   2.0781118 104.5557022  17.8460462   1.4104730
 104.6386051  16.4562137   2.0041734  11.9462005  77.8289188  12.8790361
  11.3230793  78.2305993  12.2735483  11.5671913  77.9763903  13.7455446
  86.3972187  49.2178106  62.1096277  86.8433380  48.8312292  62.8631258
  86.7860985  50.0880194  62.0215893 103.0670261  71.5279531  45.7377148
 103.0064869  71.2021542  46.6357231 102.3567104  71.0847616  45.2737427
 100.4793843  82.5220789  16.9411737  99.7434672  83.1310333  17.0030672
 100.0709113  81.6604651  16.8574792 107.2706318  75.8530521  41.9681501
 107.7564716  76.6771221  42.0013857 107.6590824  75.3753901  41.2352276
  51.4405719  72.0973290   9.2614442  50.9652702  71.9926967   8.4372121
  51.4966671  73.0445994   9.3870050  78.8854694  38.7939453  67.4988985
  79.3782139  38.9868927  68.2965231  78.3199215  39.5564294  67.3763990
 103.8750227  98.7493242   1.1350900 104.2523249  99.6272100   1.1915666
 104.5700081  98.1694426   1.4464838  91.3042355  60.0683165  52.7861071
  90.7424831  59.9105310  52.0273161  91.4243221  61.0178232  52.8018999
  85.0103378  67.1368933  77.4528074  84.5622635  67.9437494  77.7066660
  84.3627930  66.4472389  77.5987434   9.2815391  80.5372919   7.0325834
   8.7602512  81.0502948   6.4150697  10.1836006  80.8148183   6.8729192
 103.0515480  29.7139573  62.7625799 103.1493473  30.6273365  63.0316544
 103.4089756  29.6861410  61.8750525  89.2276764  42.6897526  73.5512638
  90.1810169  42.6952171  73.6369085  89.0004826  43.5965300  73.3454037
  93.1032562  45.2110958  78.0382490  93.7562943  44.5521498  78.2739639
  93.5771275  45.8298540  77.4825430  89.8451996  59.1627264  50.4867220
  90.1958752  58.4906912  49.9022388  89.3760681  59.7630405  49.9072552
  93.8956261  22.9952765  64.5636988  94.5536137  23.1475782  63.8854027
  93.6229515  22.0870543  64.4332504  88.1810284  40.0905895  65.9835482
  88.3055592  39.6808672  66.8396187  88.0826378  41.0230017  66.1763144
   2.1461956  84.4263853  46.0220319   2.3118345  83.4840001  45.9954340
   2.6946727  84.7857489  45.3247148   0.9868129  20.1997066  77.1329784
   0.8803828  20.7324290  76.3448668   1.3601287  19.3768060  76.8172264
  14.9373619  53.7765185  33.4874803  15.5165569  53.3330548  34.1072351
  15.4835407  53.9291771  32.7163583  83.5658073  30.6837225  78.6999369
  84.0417671  30.4592752  79.4995117  83.9327526  30.1043701  78.0321550
   8.1529983   9.9098039  65.6000042   8.7841018  10.2933407  66.2089729
   7.7846988  10.6597364  65.1328993  85.0097847  42.9721928  69.5421124
  85.1071739  43.8527870  69.9044657  84.6426678  43.1116438  68.6691809
  91.2129784  53.3909845  61.5856791  90.4516220  53.2816124  61.0159397
  91.9146824  52.9147339  61.1417913 102.6641655  16.4493377  11.2526685
 101.7274189  16.5829379  11.3971693 102.7137947  15.6526381  10.7244283
  90.8926010  19.6614218  72.3688078  91.1891747  20.0610948  71.5511656
  90.3866863  18.8973677  72.0922136  88.3106518   3.9866650  67.4364710
  89.0769863   3.4529585  67.2264051  87.6622868   3.7456834  66.7748260
  97.9241753  17.6259875  44.0199852  98.0313587  17.7726662  43.0801821
  98.5991669  18.1699753  44.4258118  70.7566452  84.1089725  34.0783620
  71.0123396  84.9381638  33.6742496  71.5844679  83.7009239  34.3321943
  31.6761954  55.2403641  68.9801359  31.3112052  54.5141792  69.4857788
  32.6152499  55.2116966  69.1633987  61.8592358  18.6460674  55.7669067
  62.5661039  18.9151239  55.1802444  62.2324324  17.9279149  56.2779999
  89.2981434  54.9209452  54.8526001  88.7040234  54.4151974  54.2980957
  89.4915771  55.7070303  54.3418312  18.6382850  43.1768417  74.3605328
  17.7643188  43.4394312  74.0716410  19.0555843  42.8267336  73.5734367
  81.8282986  70.4237175  78.0400848  82.0803833  71.0860014  77.3966026
  82.5299644  69.7737503  78.0022955  91.8966103  60.1359987  46.7072725
  91.7990303  60.5103827  45.8317471  92.7116203  60.5125093  47.0392942
  78.6000490  84.6193695  25.8868456  78.3081293  83.7094975  25.8306670
  79.1417551  84.6488476  26.6754651  19.0045635  97.7825417   6.4566022
  19.3065445  97.9123081   7.3556024  19.0275280  96.8339218   6.3307935
  98.9491653  33.2298374  72.4785423  99.6836662  32.6463413  72.6690054
  99.1501808  33.5944295  71.6166258   0.5111678  67.6896048  38.5611510
   1.0805019  67.0938778  38.0741239   0.3774627  67.2571516  39.4045591
  80.0785542  49.2143202  60.7146740  80.5164909  49.9439096  61.1530161
  79.1817904  49.2377615  61.0485792 107.4492645  14.0919263   0.1511556
 107.7484608  13.3471448  -0.3703993 107.4013138  13.7541968   1.0455114
  31.0506717  70.4513492   6.9989759  31.6208069  70.3639199   7.7628690
  31.1810009  69.6396495   6.5086729  12.7236350  35.4721856  75.3451014
  13.3310207  35.6404734  74.6246862  13.2042392  34.8886061  75.9322071
  35.3250686  94.9312891   3.7436754  35.3917972  95.5404581   3.0083543
  35.2919285  95.4931463   4.5179159  22.5597461  45.0302696  60.5180979
  22.1958621  44.4201469  61.1596298  22.6822456  44.5029354  59.7286987
  53.0666820  60.3251172  12.2934515  53.1367962  59.5164038  11.7862016
  52.2455589  60.7207610  12.0011407  89.3165016  51.4737368  38.4785342
  89.8794651  51.0304356  39.1131830  89.6860981  51.2409258  37.6268172
   2.6908286  51.2424517  57.2127247   3.1952174  50.4290009  57.2234392
   1.8392070  50.9915161  56.8549442   7.2030338  80.4884434  41.8637371
   7.9839404  80.0128746  42.1470165   7.0921691  81.1782169  42.5180721
  82.7297211  25.7482028  84.7538471  82.4662018  25.5887699  85.6601429
  81.9538403  26.1287284  84.3422222  86.9320488  31.6905737  83.4966469
  86.6045284  32.5326562  83.8126469  86.7509651  31.0797954  84.2110634
  26.2455837  38.6520530  20.9804327  25.3848926  38.3203353  20.7246954
  26.8485538  37.9379226  20.7738668 106.5095615  45.5618429  61.6727209
 105.8404064  46.2210083  61.4884186 106.9072628  45.8477068  62.4951267
 103.8903427  70.2905703  56.8571711 103.5390377  70.1713228  57.7395535
 104.3861771  69.4897795  56.6865349  98.7629890  29.1560268  55.4109097
  99.6364594  28.9360499  55.0870514  98.7059975  30.1071072  55.3191042
  90.3723907  38.8796830  70.5909920  90.3415585  39.8342609  70.6547213
  90.4983902  38.5834050  71.4924240 104.7394657  44.5560312  32.9969811
 105.0292397  44.3466282  32.1090555 105.3533936  45.2261066  33.2975078
  32.0100586  69.8181249  13.2792360  32.7226059  69.6690108  13.9007455
  32.2121422  70.6651927  12.8819067   2.5313846  87.4049629   9.0887815
   2.7945034  86.4865149   9.0299970   2.6045744  87.6159777  10.0195581
  78.0683517  33.0413890  72.7889013  78.4042406  32.3946261  72.1683311
  77.3548651  33.4747362  72.3205185  88.5495663  44.6120262  71.2404203
  89.3214035  45.1516342  71.4116573  88.8946342  43.7245226  71.1429453
  88.7036514  65.6602764  72.4558496  89.6076012  65.3505611  72.3994398
  88.2145691  65.0791454  71.8733406  79.8318672  58.2194328  42.4004745
  80.7584667  57.9816198  42.4333429  79.4984007  58.0045652  43.2716036
  76.5513706   7.3498565  53.1518030  76.4696932   7.8817254  53.9434290
  75.7713175   7.5619686  52.6392031  64.4896690  89.4317050  75.8029985
  65.2989475  89.6508605  75.3411865  64.7128860  89.5148797  76.7300844
  87.2995663  24.9800086  66.9266987  88.0426693  25.2108383  66.3692474
  86.6924667  25.7140446  66.8326283  85.6070709  62.7583838  50.9965992
  85.5918694  63.4478712  51.6603804  86.0632896  63.1519747  50.2528334
  92.5358486  50.1693249  49.5983267  92.4254894  50.8433819  50.2689219
  93.3288383  49.7004509  49.8582458  73.6582080  91.2577385  46.9373131
  72.9233161  91.3886256  46.3381100  73.8356010  92.1286780  47.2925949
  81.9140911  17.6139319  70.0622082  81.2186337  18.0414438  69.5624065
  82.3910904  18.3346403  70.4736519  83.7979698  64.4085503  77.6658201
  83.2614136  63.6161184  77.6857042  84.6487141  64.1136789  77.3409986
   3.6465820  84.3216038  76.1057377   4.0027793  84.9456596  75.4733467
   2.7457412  84.1757011  75.8168840  75.6890821  57.3938894  53.9016390
  74.9182749  57.7619839  54.3336010  75.9581709  56.6703653  54.4676208
  91.7594242  36.3401341  43.6560678  92.6157475  36.2853527  44.0802622
  91.8181992  35.7328463  42.9185200 100.5556965  31.5749836  69.1850281
 100.1455307  31.1478806  68.4329796 100.0275993  32.3596263  69.3322802
  33.2862075  65.1146507  30.1679444  33.1794437  64.9203253  29.2367792
  32.7368053  64.4687033  30.6119490 107.4266911  47.1670723  73.2037687
 107.4772644  47.7784681  73.9385271 107.9645157  46.4228106  73.4740353
 107.0502853  48.8440609  87.1553993 107.6396751  49.3002272  87.7560329
 107.0751858  47.9312706  87.4425030  88.1577587  73.9958477  78.7770081
  88.0096054  74.1295242  77.8408384  88.0577660  73.0522537  78.9029884
  79.0920830  27.5296307  47.0381451  78.4614038  28.0712748  47.5125885
  78.6551905  27.3209214  46.2124348   7.9945453  12.0070148  43.6161566
   8.5896571  12.5395727  43.0884647   8.2251342  11.1037290  43.3990431
  77.2710848  61.0427475  70.7660532  77.3419714  60.8969498  69.8226833
  76.3940382  61.4066315  70.8869314  91.0808563  30.8008242  63.4431696
  91.7770195  31.3900089  63.1525803  90.9714603  30.1840067  62.7194309
  27.1320995  94.1104412  61.0894346  26.2334331  94.4335461  61.0244036
  27.5961478  94.5479107  60.3756285  75.4391336  27.3622847  57.0481634
  75.9157991  26.5326166  57.0223093  74.6800089  27.2200966  56.4827013
  98.8959503  11.0928345  72.3502970  99.1579533  10.6961083  73.1810760
  97.9527569  11.2306964  72.4376297  24.9827091  69.7711398   6.2864286
  24.1099445  70.1617779   6.2426549  24.8972217  69.0650381   6.9270021
   0.3506454  57.9633617  46.6301394  -0.4121510  58.4155798  46.9905186
   0.0824245  57.7071762  45.7477236  27.1290390  93.2750048   0.4605562
  27.9363910  93.1511463  -0.0385302  27.4126236  93.6880602   1.2761480
   3.7909969  37.9735708  50.5912161   4.4939120  38.5510373  50.8890104
   4.2359813  37.1637535  50.3413773  21.5364353  59.0844537  18.7496740
  21.6684524  59.9657197  18.4001428  20.8546535  58.7061985  18.1944067
   4.7951873  35.6775618  55.3550196   5.4708465  35.1811576  55.8168554
   4.5201762  35.1014948  54.6417570 101.3277531  65.2159834  57.8626347
 101.0472298  65.5208635  58.7255287 100.8052635  64.4296312  57.7049112
  27.3504527  56.1134672  39.7028327  27.0138248  55.4029846  39.1568208
  26.8879207  56.8925571  39.3941069  17.2245113  96.0209288   1.6998560
  17.2703449  95.1014818   1.4376623  18.1058685  96.2250532   2.0125276
  97.0318985  70.6457043  65.9060287  97.4079418  70.6959105  66.7848349
  97.5191307  71.2955570  65.3995419  80.5815697  22.5525910   4.3777639
  80.6784630  23.4958369   4.2468912  80.3602505  22.2120101   3.5110170
  56.8458748  16.9782740   1.0630018  56.8412876  16.4201695   0.2853567
  56.5983391  17.8439147   0.7380182 105.0856209  47.4974346  60.8730030
 104.3411827  47.5241709  60.2718973 105.6965637  48.1478643  60.5267096
  15.5068954  83.8635159  86.2779236  15.2271732  83.2713985  85.5797958
  14.8502715  84.5599937  86.2786961  30.1719173  85.0601387  74.1844273
  30.3183635  84.9365616  73.2466030  29.3560584  84.5925140  74.3631077
  88.5117436   0.4559142   1.5292532  88.0762959   0.6989867   0.7122308
  89.4311142   0.6810719   1.3868505  92.9698467  52.3014355  70.6176567
  93.5612106  53.0197430  70.8424711  92.9597664  51.7464876  71.3975048
  51.5753651  41.1177165   4.4636613  50.8555794  41.5566642   4.9169523
  51.1513519  40.4294497   3.9510805   9.7861655 101.2983513  53.7448645
   9.4081577 100.4552174  53.4949350  10.2934154 101.5696335  52.9797935
   2.5492461  89.4229889  41.9514275   3.2769950  89.9110222  42.3367071
   1.9049724  89.3574810  42.6563072   1.6609080  66.3053417  87.9554462
   2.1341308  65.7176685  88.5444450   0.8543475  65.8348799  87.7448273
  12.3772796  71.4255142  73.8482475  13.3293803  71.5211296  73.8727283
  12.0977195  71.9950581  73.1315184 101.9929314  48.1071758  80.0386906
 102.2181511  48.9382792  80.4567528 102.7276325  47.9273033  79.4520903
  67.3372030  86.8426991  41.9125652  68.0973768  86.7025185  42.4771118
  67.5160694  86.3146305  41.1345005  79.9170685  67.0196676  65.3642225
  79.0834522  66.9652224  64.8969364  80.1033878  66.1184406  65.6274748
  14.7285827  63.0749559  36.7817807  14.9182685  62.5981951  37.5898361
  14.1228278  63.7665176  37.0482898  95.3076839  39.8864055  67.0421219
  96.0373878  40.1515913  67.6019812  95.2339649  40.5887842  66.3960075
  11.3548930  43.3213663  74.7592068  11.6994937  42.6911497  74.1265059
  10.5316814  42.9350233  75.0580215 100.4593849  85.7502174  65.5077124
 100.4080677  84.9754238  64.9479771 101.3661575  85.7648087  65.8139658
 104.9994469  39.5443034  17.6597452 105.8328438  39.0903616  17.7846968
 104.9754429  40.1977062  18.3588302  89.3896580  40.1813602  62.2815275
  89.5299435  41.1166048  62.1336317  89.7983742  40.0090551  63.1297541
  82.0124149  59.2456198  70.5562735  82.4140358  58.4264565  70.2666092
  81.4428520  59.5026398  69.8311758  88.6965179  72.0820999  65.3075075
  89.0542793  72.2362709  64.4331694  89.2274284  72.6317883  65.8838844
  70.6705618  93.3125210  20.3902960  70.8427143  94.2539978  20.3751397
  71.5263081  92.9101372  20.2419376   2.3805030  27.8168893  85.0299931
   1.6836341  28.4487915  84.8530674   1.9247707  27.0463634  85.3688526
  38.7630065  28.2204914  75.3533459  38.1882556  28.4587526  74.6259356
  39.6302016  28.1385875  74.9564934  14.8977264  61.7441082  71.4166927
  14.2850574  61.0375690  71.6208267  14.4880279  62.2140074  70.6903505
  27.8103153   0.7587092  71.1506796  27.6904003   1.4940017  71.7516756
  28.6238949   0.3444903  71.4383316  88.8721848  78.0507183  62.7437830
  88.4298420  78.1779099  61.9045019  89.0639210  77.1133995  62.7738428
  84.2745876  64.1233206  45.0747871  84.3356705  64.0595007  44.1216707
  83.7241745  63.3828211  45.3296280  20.8674129  67.8047037  45.6491613
  20.6324084  67.0305395  45.1376247  21.7983421  67.6915216  45.8409643
  86.7125607  28.3002114  87.7657890  85.9096909  27.8295708  87.5418949
  87.4154282  27.6790953  87.5749397 100.0663185  47.7483225  26.3702512
 100.5199432  48.4485340  26.8394732  99.1749573  47.7648401  26.7187309
  86.5560627  61.6446066  47.1055937  86.2116432  60.7646942  47.2584343
  87.5014496  61.5561342  47.2266626 104.2241669  36.7238808  45.9549761
 103.3442307  37.0929193  46.0308743 104.0890217  35.8609128  45.5634975
   8.5600074  41.3026237  68.9816284   9.1115745  41.9876146  68.6037636
   8.6581119  41.4107800  69.9276257  49.4566155   9.1795880  15.1017076
  48.8916588   8.7349278  15.7336408  49.6715260  10.0141580  15.5182916
  16.3496097  13.8280499  81.5322495  16.2374767  13.0078161  82.0127392
  15.6502517  13.8203418  80.8787346  95.3139305  42.6646042  39.6342921
  95.8396053  42.4372101  38.8673592  94.7565079  41.8998241  39.7779107
  96.3859940  64.2266798  54.6143579  96.9456673  64.9879694  54.7674561
  95.7805347  64.2215490  55.3557253  18.4345039  26.8943793  16.8126279
  17.9046615  27.1962745  16.0748178  18.5705932  25.9620053  16.6441232
  29.3860896  72.3357821  73.4072971  29.3635352  72.5038767  74.3493509
  29.7379859  71.4489269  73.3306026 100.9448624  95.1663494  69.7710800
 100.4886055  94.8859215  68.9777184 100.3037930  95.7006931  70.2398443
  23.7252792  92.9495049  67.9083204  23.2442554  93.5032177  67.2932959
  23.2256873  92.1335316  67.9371929  17.9548542   0.7331031  46.0397482
  17.3461048   0.7409614  46.7783976  18.7355129   1.1792510  46.3679934
  82.9932404  67.0333433  63.9990520  82.2569561  66.6975403  64.5102787
  83.4714222  66.2506771  63.7251854  77.6449967  12.1934277  14.7669775
  77.3004532  13.0442769  15.0382215  76.9002342  11.5973002  14.8457128
  98.7589741  32.4845910  54.8304510  99.7062397  32.5222778  54.9626970
  98.6351776  32.7301431  53.9136028 105.5743313  15.2298081  51.0996056
 104.8780251  15.7904243  50.7574081 105.8914471  14.7483301  50.3355074
   5.8313449  62.8246355  84.1791058   5.9758266  62.7767229  85.1241207
   6.2587913  63.6385155  83.9124203  81.7374516  67.6806641  76.8370819
  81.3856506  68.4714651  76.4283133  81.4594746  67.7395630  77.7511311
  85.8961868  19.8105342   5.2106172  86.6526222  19.5568759   4.6817667
  85.8378697  20.7601268   5.1052553  63.6138821  13.6318643   5.9829885
  64.4122887  14.0021521   5.6066209  63.7166023  13.7509305   6.9271833
  24.4755451  98.6904158   2.7410871  24.5722381  99.5833029   2.4099714
  24.9635688  98.1503023   2.1195203  20.1264373  85.4432668   5.0029356
  20.6938926  84.6744002   5.0583250  20.6856434  86.1276878   4.6353799
  86.0199356  50.0023031  42.0619154  86.4575768  49.1868782  41.8174076
  86.3515663  50.6484127  41.4383793  85.7241344  61.9430304  59.1323614
  85.2906799  61.3273287  59.7233486  86.6531563  61.7210245  59.1945314
   9.0037902  30.3199679   8.1732923   9.5313724  31.0884292   8.3909112
   8.3789047  30.6355006   7.5204736  83.8639069  83.8220406  72.3599291
  83.9288330  83.3986664  71.5039110  84.7699642  83.8970661  72.6593637
  70.0085306  71.3304710  85.2147293  69.4863224  70.9623957  85.9275055
  69.8059320  72.2658968  85.2277088  24.2512782  71.8950462  28.4836078
  24.9497588  72.0250845  27.8421712  23.7195953  71.1876917  28.1186533
  94.0376091  88.9928627  52.8262901  93.4501553  89.0977192  53.5747099
  93.6751366  88.2529354  52.3391056  98.9173126  66.7934608  39.3117976
  98.8410568  65.8985662  38.9807677  99.7694778  67.0938873  38.9958978
  84.5722389  79.1204119  82.9406357  85.3037167  78.7624788  82.4375916
  83.8173771  78.5972404  82.6709938  82.1244144  59.0655565  33.2270360
  81.3272190  58.5482311  33.3414674  81.9401550  59.8915672  33.6742353
  71.9139958   8.6643178   2.1633035  71.2699032   8.0997950   1.7358762
  72.6480103   8.6974580   1.5498239  78.3269119  66.1061525  50.2438068
  77.7817106  66.6874647  50.7739592  77.7197361  65.4445076  49.9124527
  20.6950553  52.3125315  74.7921181  20.0453647  52.0816803  75.4560661
  20.9402641  53.2140827  75.0002241   8.0762561  62.4351168  47.9263258
   7.1447166  62.2446299  48.0367041   8.5198291  61.6388941  48.2187271
  90.4405022  71.5688562  13.8620913  89.8849773  72.2757721  14.1905701
  90.1704884  71.4558315  12.9507446   6.4790900  42.1252251  54.1420555
   6.5760692  43.0256176  53.8320160   7.3600276  41.7554665  54.0832520
  27.5942596  63.9894390  52.7006054  26.8048175  63.8205194  53.2148886
  28.0495532  63.1477785  52.6772499 104.1449261  71.5829039  61.9144058
 103.4006119  71.0711718  62.2312021 104.3410110  72.1883440  62.6294041
  83.3184624  14.0676934   4.9701673  83.3193875  14.8465878   5.5265504
  82.4401760  14.0457923   4.5902235   7.1783431  43.6621189  75.3426075
   6.5108855  43.7732601  74.6655750   6.7772849  44.0187931  76.1351776
   4.7193893  28.1470442  56.6044283   3.9983638  27.8706026  56.0388041
   5.4973968  27.7516508  56.2112331  13.6536105  43.3509588  42.3835182
  14.4332298  43.5701323  41.8732357  12.9475864  43.3139753  41.7382336
  17.5411018  44.1610575  63.3387518  18.3153327  44.3267918  62.8008652
  16.9088824  44.8230410  63.0589294  87.1000290  73.2979012  30.7717466
  86.7341709  74.1618061  30.9616160  86.9450283  72.7916241  31.5691733
  76.7530251  85.1628971  77.8136826  77.4526501  84.7344112  77.3205709
  76.0046244  84.5720005  77.7302456   0.4582675  38.2285786  40.0966978
   0.7413085  38.6005402  40.9320211   1.1294349  38.5038829  39.4722271
   7.5118049  34.5774412  62.9423046   6.8833335  34.9141455  63.5809612
   6.9861777  34.3910789  62.1643400  19.9848636  60.1444721  62.9902983
  20.6225665  59.5275784  62.6311064  19.3966754  59.6021223  63.5157681
  99.0805817  69.5540428  70.7109642  98.3794117  68.9201593  70.8618784
  98.7293625  70.3821421  71.0382748  16.6138251  44.0769339  80.6085587
  15.9719546  44.2498255  79.9198246  17.2036536  44.8302984  80.5808449
  18.0438789  78.4070921  48.0972052  17.3987277  78.5891294  48.7804937
  18.8832744  78.3962250  48.5571194   6.2409480  72.8554487  78.0368423
   6.4756377  72.0456886  78.4901047   5.2948650  72.7913094  77.9063177
  91.1096764  68.8143921  35.3650141  90.9831905  68.6134958  34.4377208
  91.8405056  68.2574463  35.6332254  91.2304783  16.4751155   8.2834322
  90.6767559  17.2529036   8.3518011  90.6594944  15.8072383   7.9037553
  71.3964462  68.2929468  58.9280224  71.1671829  67.3833561  59.1185760
  71.7314243  68.6342716  59.7571850  89.8833656  58.1298399  58.3635139
  90.3859520  58.8294649  57.9461861  90.2548790  57.3227930  58.0073023
  23.4461482  72.8979635  81.1081696  22.9285510  72.9740953  81.9097519
  22.7969726  72.8756094  80.4051018 103.8752460  56.7513514  82.9040623
 103.1347179  57.3486137  82.7986050 103.5241413  56.0225010  83.4156609
  41.6360744  84.6141434  65.7545376  40.8722194  84.9796200  66.2008429
  41.5521129  84.9159050  64.8500347  20.0147136  78.1941080  73.2748032
  19.1838916  78.6321020  73.0900621  19.9762614  77.3835945  72.7670431
  85.9251499  73.9500904  40.2592564  86.5244102  74.0128994  41.0030127
  86.1472416  74.7009230  39.7086596  47.1779911   8.8107055  68.4377623
  48.0385391   9.0277331  68.7963581  46.9382660   7.9909270  68.8698721
  87.4689102  58.6845207  77.8670645  86.9394875  59.4680309  78.0155945
  86.8721390  58.0695200  77.4406052  18.2746975  51.0747139   3.3806592
  18.3107273  52.0258425   3.4820825  17.4413196  50.8228202   3.7784750
 101.1925316  31.8226385  81.0397530 101.7576885  31.1948204  80.5895519
 101.7455673  32.5932002  81.1686707  22.9790862  49.7090292  74.9319363
  22.4629672  48.9838362  74.5798635  22.6669963  49.8107386  75.8310986
   5.4241792  80.1586474  16.4840585   5.2078382  81.0761513  16.6502363
   4.7127573  79.8418273  15.9275133  15.1647170  18.9878094  53.6652994
  14.6847614  19.6788549  54.1217327  15.9461196  18.8458455  54.1996098
  16.5081962  76.9385099  74.1909313  16.3168987  76.4693165  73.3788347
  15.6900199  76.9030190  74.6864748  95.5186462  51.5705681  66.2278605
  95.7195568  51.5721226  67.1637392  94.5786953  51.3948584  66.1849642
  47.0764629  80.8063091  53.3784753  47.7551548  80.6338896  54.0310747
  46.2675468  80.8725084  53.8859254  99.9860477  91.9666672  71.1056614
  99.3828583  92.4316597  71.6854763  99.7819614  91.0412025  71.2401342
  20.8593257  71.0435486  58.0007029  20.9058269  70.8591509  57.0625830
  21.6872867  70.7146788  58.3507729  99.3259049  19.1260297  23.3089620
  98.6966229  19.3394524  22.6199895  98.8435745  18.5526711  23.9046556
  12.8253158  49.5172644  47.8776312  12.9179271  48.8207054  47.2276592
  13.5523685  49.3770313  48.4842300  94.1999149  58.8830137  62.6528168
  94.9047089  58.3818483  63.0630875  94.3926239  58.8445950  61.7160082
   8.2653125  80.8311653  56.2981272   7.3782523  80.5609894  56.0607386
   8.4316047  80.3980827  57.1353960  44.9825756  71.3691868   0.5589372
  44.6125118  71.0598673  -0.2678603  45.8193771  71.7641224   0.3139383
  65.6467533  25.1330811   6.8329221  65.6571770  25.7283217   6.0833818
  66.4720631  24.6524960   6.7686159  73.3010674  12.1236712  10.0935632
  74.0044689  12.4967343   9.5622713  73.6349011  11.2692983  10.3671247
   1.6813262  99.3180847  77.5740862   1.4233859  99.3444252  76.6526747
   2.4211486  98.7112045  77.5984430  97.7035046  89.1944885  74.9788904
  96.8272018  89.1289234  74.5993948  97.5606537  89.5687294  75.8482361
  14.3957027  83.6071491  45.3955460  13.7943347  82.9723644  45.0061417
  14.6040805  84.2091560  44.6811295  80.7408905  93.2194805  71.5775633
  81.3782597  93.8238335  71.1970949  80.4276562  93.6657715  72.3642874
 102.6621064  90.2726211   2.8719884 102.7214011  89.8121132   2.0349390
 101.7769106  90.6366862   2.8828889  70.8467007   2.8930929  23.7110972
  70.9545803   2.1673594  24.3258357  70.9838200   2.4994794  22.8494120
  99.3817767  56.8845393   1.6802866  98.4456881  56.7632367   1.5213663
  99.6538170  57.5299640   1.0278684  32.6093856  91.2858636  77.8358603
  31.9048349  90.9058387  78.3606672  32.7721874  92.1400023  78.2360744
  61.6621256  10.6561458  60.8110380  62.2905207  10.9509838  61.4701414
  61.7596340   9.7040421  60.7961416  95.8780535  77.7816428   0.6203157
  95.9139737  78.1858052   1.4872629  95.1967677  77.1134986   0.6955797
 106.1171246   9.0299147  80.3714275 105.8619308   9.9486119  80.4557037
 106.1794090   8.8842630  79.4274235  46.4002792  75.3488571  60.7256794
  45.6406299  75.5822570  60.1921177  47.1347705  75.3540380  60.1119041
 100.2587318  11.5707278  24.0718746 100.4934978  12.2887576  24.6597075
 100.2024460  11.9776428  23.2073021  70.3929607  60.7444818  84.3008518
  69.7299854  61.0560185  84.9169922  71.1619083  61.2846334  84.4830418
  13.6126701  93.8084234   0.8228761  13.0028335  93.0823482   0.6919271
  14.4618789  93.4598268   0.5516893 103.0092812  25.7277989  33.0389452
 102.5894451  25.8408856  32.1861959 102.2953606  25.8139801  33.6707091
  77.7668715  24.4794750  30.9987521  77.2116995  23.7126279  30.8574510
  77.2413206  25.0568867  31.5524888 108.2082899  93.6380995  73.4557676
 107.9341229  92.7832741  73.1235933 107.5389345  93.8709582  74.0991735
  90.0951672  10.5237591  79.1402817  90.8878517  10.8024085  78.6817694
  89.9603462  11.1913133  79.8129129  78.6324120  10.6146169   9.6398044
  78.7093496  11.3744473  10.2168393  78.9405584  10.9275723   8.7893128
  79.5245162  82.2220571  74.0364552  80.4577152  82.3286838  73.8520765
  79.2985240  82.9806108  74.5747471  17.6454814  49.0121078  56.0593271
  16.8830569  49.3524313  56.5274239  17.8597911  49.6941042  55.4227877
  80.5930328   7.6023197  35.0722384  80.4883099   8.4203571  35.5581188
  79.7195721   7.4141973  34.7288585  94.2343807  13.9920104  17.5289023
  93.4671593  14.5236385  17.3168492  94.7525215  14.5426631  18.1158781
  10.7599719   4.7390825  82.3350143  10.9606822   5.6568462  82.1515560
  10.9807571   4.6257928  83.2594872  89.4641876   6.3840991  40.5494070
  90.2764034   5.8812469  40.6100273  89.2201614   6.5555257  41.4589691
  98.9638432  42.9125024   8.5529501  99.8154887  42.9626645   8.9870149
  99.1325005  42.4178387   7.7510244  15.9821121  34.6348621  48.2200986
  16.6373817  34.1554810  48.7270910  16.0565750  34.2785896  47.3347932
  47.7441875  95.7328088  31.5758491  47.3328678  95.1660527  30.9232903
  48.4714691  96.1456735  31.1101842  53.0704641  12.0152080  36.5437865
  52.3853922  12.6553833  36.3512158  53.5577488  12.3980021  37.2733402
  92.7536774  35.0405145  26.2225771  92.5319195  34.1639829  26.5368271
  93.5517693  35.2707076  26.6982841  91.2385941   2.1578850  80.3017902
  90.4786015   2.2136103  79.7225285  91.8620968   2.7877012  79.9401188
  45.5265705  92.6083720  20.1157355  45.0918476  92.2524364  20.8906913
  46.2080947  91.9689769  19.9085367  35.0113765  86.5532965  39.4520879
  35.1349060  87.4452943  39.7766042  35.1712123  86.6167123  38.5104609
  42.1621839  88.0302567  29.6343923  42.9709331  87.9812390  30.1440573
  42.4403802  87.8887517  28.7295079  86.8475342  28.0377269  44.4791031
  87.4938488  28.7199664  44.2973089  86.4652634  27.8362370  43.6249924
  39.8026935  21.7871441   1.9607812  39.1992561  21.7265023   1.2202341
  40.1453392  20.8993353   2.0638639  58.8664722  23.9914346  38.0239677
  58.4534121  23.1360984  37.9056072  59.7437906  23.8867474  37.6557517
  73.2459736   7.9967964  75.3179407  74.0560770   8.4765494  75.1452971
  73.2864141   7.7863514  76.2508440  82.0835972  19.8151088  50.5078411
  82.3502064  19.5906830  51.3993454  82.6904774  20.5064106  50.2432108
  79.3876314   5.5779940  49.8180580  79.9487972   5.3408682  50.5563641
  78.8226223   6.2710714  50.1595831  46.6893569  82.2348506  56.6973829
  46.2164108  81.4115555  56.5759563  47.5519840  81.9706137  57.0171833
  70.3673259  98.9407326  76.4658976  71.0389225  98.2921327  76.6768694
  70.7427017  99.7747447  76.7482901   6.0475389  75.4733814   9.6742708
   5.1966182  75.7785095   9.3595392   6.3530771  74.8728169   8.9944154
  36.9445077  89.4277675  52.8355265  36.3593999  89.5157141  53.5879517
  36.7782108  90.2103550  52.3100424  17.6041786  70.4752375  19.1954690
  18.5085289  70.3268613  18.9191324  17.3597900  71.3027204  18.7810022
  84.6865940  28.2555389  48.9108992  83.8706017  28.7071705  48.6954737
  85.2620506  28.9453197  49.2414713  68.3778858   0.6673623  80.9002876
  68.4979916   1.5449622  80.5374813  67.5083303   0.4015061  80.6012440
  78.7779331   6.6712886  59.7429371  78.6224079   7.0974731  60.5857944
  79.4251394   5.9923351  59.9336624  47.8389255  82.4069769  46.0937738
  47.7627174  81.9778342  45.2415657  48.5242645  83.0637891  45.9707689
  78.6719084  24.8740411  57.5029802  77.9006147  24.3075848  57.4812746
  79.3261385  24.3694448  57.9862976  87.9011631  18.9874434  67.9640484
  87.8467178  18.6614561  67.0657206  87.0079613  18.9136338  68.3001709
  97.0404625  26.1767483  60.3217077  96.5541553  26.7282009  59.7088146
  96.8912411  26.5799212  61.1769342  84.6965122  31.8955398  50.2074051
  84.2484188  32.7338028  50.3203535  85.3957748  31.9077802  50.8609438
  98.2745838   5.9184378  81.3201618  99.2067623   6.0066974  81.1214828
  97.8321171   6.3536662  80.5914497  59.1278076   3.3585304  30.0196052
  59.8476553   3.9489704  29.7972775  58.4826851   3.9190817  30.4506850
  35.0428812 100.1646435  77.1083832  35.4391138 100.7201120  77.7797127
  35.7709114  99.6455876  76.7666483  94.8536873  36.5520811  41.6672373
  95.3637409  36.6828871  42.4665928  95.3590298  36.9949198  40.9855127
  74.2510986  26.3382649  43.4862328  74.2292500  25.9833264  44.3749237
  74.8812294  27.0574045  43.5309696  65.0752878   3.0145931  60.6146526
  64.1225624   2.9849830  60.5270863  65.3722525   3.4924424  59.8402452
 106.5431078  67.9370071  32.0088178 106.4264115  67.4205173  31.2114126
 107.3027285  68.4902574  31.8268091  71.1050415  20.6616211  44.2787313
  70.3706217  20.9053493  44.8421669  71.8465137  20.5714393  44.8773289
  98.9803410  35.7616019  24.0302634  98.9061451  36.7040086  24.1805744
  98.4690762  35.3655267  24.7359276  37.4554769  96.8899990  66.3771057
  37.1305887  97.7790592  66.5194130  37.7284948  96.8787397  65.4597378
 106.9113159  23.4267879  87.9160213 107.2802734  22.6117516  88.2563496
 107.5515175  24.0973425  88.1542110  73.4011936  20.3281331  34.4025874
  74.2007065  19.9398780  34.7579265  72.8651190  19.5783567  34.1443348
  96.5670395  29.8914266  51.3658571  97.4406528  29.5152640  51.2584066
  96.2786388  29.5854807  52.2257710  76.8355513   4.5925105  58.0451059
  76.0842562   4.0165958  57.9033136  77.1529722   4.3615735  58.9181185
  46.5118495  95.3771979  57.3677397  46.0361473  94.5506776  57.4502230
  47.1684829  95.2092028  56.6918373  80.7853508  30.0170827  16.3190043
  80.3171635  30.7055068  16.7913342  81.3840675  29.6463966  16.9673657
   4.7543375  59.0454931  14.2640859   3.7992088  59.1084196  14.2643816
   4.9709694  58.6943461  13.4003717  11.4667686  22.9234743  41.9089794
  11.2419875  22.4578333  42.7145147  10.6224712  23.1281590  41.5071011
  76.2971926   9.9651664  58.0597734  76.0197020   9.4769257  58.8349199
  75.6992865  10.7116079  58.0201292  24.4516460  44.6401955   7.5783330
  24.7863380  45.5325831   7.6669580  23.5065452  44.7483249   7.4718744
 102.4791336  61.3399220  35.4710054 102.8968143  60.7770252  36.1228609
 103.1703758  61.9426155  35.1968241  82.3953819  11.7972708  71.4076757
  82.8109360  12.2484744  70.6728601  82.7920246  10.9261215  71.4090729
  12.4767057  97.3750604  62.2388887  12.4594585  98.3239678  62.1143532
  13.1843225  97.0716745  61.6701508  76.0694647   8.7916815  66.9176102
  76.6683960   9.5372587  66.8772507  76.5361977   8.1374031  67.4375296
  62.8820944   9.6632344   9.9749792  62.2496748   9.1205913  10.4459524
  63.6851358   9.1423899   9.9664193  28.4766285  51.7022293   5.8991319
  28.2569973  52.5065394   6.3693220  28.0871002  51.8174972   5.0324136
  95.3736202 101.0934284  35.7131886  96.2128345 101.1960983  36.1619782
  95.6090728 100.8537005  34.8169041  77.0278263  37.5499558  65.3391027
  76.5211868  36.9805980  65.9182167  77.4050188  38.2093406  65.9214830
  98.4269142   1.3660909  50.7985735  98.4200191   2.2388557  51.1915970
  98.0149174   1.4854908  49.9428701  76.9344234  40.2972555  87.7096272
  77.2080469  41.2096786  87.6155853  76.9115782  40.1502991  88.6552048
 106.2993336   6.3373560  51.1599302 106.6064262   6.5294862  52.0459414
 105.7370186   5.5695707  51.2625694  41.7208473  55.7369448   0.9026987
  42.1844856  55.8782099   1.7281229  42.3982040  55.4392104   0.2954370
  78.2176208  19.6248782  76.7891788  79.1721630  19.6615851  76.7280293
  78.0084085  20.1292729  77.5753355  39.8590509  93.4327246  61.9214869
  39.8560134  94.1472585  61.2845659  38.9380113  93.3153547  62.1541595
  89.3860149   2.6054546  38.0408978  89.4500542   1.7765975  37.5664210
  89.5246220   2.3679197  38.9577389  73.6485863  27.7883339  53.7730026
  72.8612804  27.7197909  53.2329273  73.3505917  28.2115269  54.5781994
  85.7999134   2.9590458  45.5159569  86.1169434   3.2924321  44.6765661
  84.9225044   2.6270378  45.3258324  70.4062462  31.3502002  31.4265943
  70.1862144  31.1884475  32.3440123  71.3325262  31.1188126  31.3580585
  23.9944251  33.1501102  76.9103909  23.9194854  32.2912860  76.4944124
  24.9348720  33.3277869  76.9252634  63.6287498   4.1571721  48.9929152
  64.3361902   4.3002260  49.6216393  63.1108189   4.9613762  49.0280676
  49.2619030  96.3493866  27.9113603  50.0631324  95.9647108  28.2667422
  49.0955345  97.1114302  28.4661961  84.6019173   9.2236060  41.7500544
  84.9101067   9.3306333  40.8501625  83.8495922   9.8116040  41.8171024
  64.5616007   9.3659341  41.6587782  64.5302868   8.4143472  41.7574406
  64.8703527   9.6846342  42.5069141  60.6002227  80.6280953  77.2858810
  60.5271045  81.5128667  76.9280243  61.4482776  80.6185467  77.7296495
  35.3952495  58.7118722   7.7990419  35.6188385  59.4499554   7.2320539
  35.7706920  57.9493351   7.3587972  55.3311912  69.2521603  58.0805254
  55.0400249  69.9484975  58.6692286  56.2356941  69.0799529  58.3421373
  92.0850658  21.3994360  34.6164775  91.3038540  21.2985182  35.1603031
  92.8087616  21.4384818  35.2417564  92.1453762   6.7634302  53.7351274
  91.8849087   7.4248654  53.0941153  93.0804348   6.9165933  53.8708782
  96.0832500   9.1778225  65.0236750  95.5576134   9.0735537  65.8168125
  96.0690498   8.3139586  64.6116447  13.7398998  62.8890623  -0.2147025
  14.0665523  62.6350106   0.6484300  12.9183952  62.4073483  -0.3111952
  80.0603962  32.6394606  46.7591715  80.6690598  33.3750987  46.8270254
  79.6469021  32.5904346  47.6210594  58.8615227   4.3002871  45.8805370
  58.5673046   3.3895469  45.8657074  59.6540070   4.2872635  46.4172173
  15.0698082  59.7135599   6.5972597  15.2509205  58.8929106   6.1390382
  15.6235782  59.6796067   7.3772699  53.1670658  79.0444285  49.1653490
  52.6222316  79.2037136  49.9360704  53.8299076  78.4222848  49.4650364
  79.6895170  35.3346062  65.0405598  80.0405598  36.0734653  64.5434713
  80.4220676  35.0405288  65.5819750  83.2151222   0.6454330  60.4525089
  84.0791607   1.0326396  60.5930090  83.2442093   0.3141336  59.5549393
  27.7664939  91.5426368  55.2759838  28.0193941  90.7151753  54.8666143
  26.8165533  91.5838868  55.1657820  95.6466293  34.3359184  39.4748545
  94.7227097  34.0971994  39.3999338  95.6355858  35.2505279  39.7569847
  67.3745815  87.2935385  38.1448674  66.8703548  87.9128415  37.6171851
  68.1513015  87.7843852  38.4132075  69.2081539  90.8207626  63.0059052
  69.6783535  89.9989862  62.8651094  69.7279254  91.4767344  62.5413990
   3.5115162  89.7568245  50.2759171   2.7164570  89.5077903  49.8046446
   3.1988374  90.2830452  51.0118198  17.2236148  88.0620415  60.8826208
  17.7623741  88.2562787  60.1156521  17.7775709  87.5051446  61.4296341
  55.5403376   4.4655105  85.4800606  55.9851789   4.5687944  84.6388245
  56.0211706   3.7649763  85.9208393  97.7891922   0.9290414  60.8451271
  98.5698986   0.3769821  60.8895302  97.8616524   1.5078287  61.6040659
  47.4394695  78.2900102  67.1936941  47.0808689  77.6275093  66.6031599
  47.1923057  79.1246826  66.7956257  16.3158790  97.1878008  78.9035320
  16.4347974  97.9575492  79.4599295  16.1168567  97.5459961  78.0384779
  67.6695243 100.1532515  81.0914898  67.6487247 100.1733693  80.1347256
  66.8817417  99.6686486  81.3380432   9.2362682  51.3735700  12.9562360
   8.8104717  50.5331336  13.1253416  10.0422374  51.3417285  13.4716207
  38.8443637  25.2376390  58.6911249  38.5894322  26.1380744  58.4899855
  38.8229895  24.7882462  57.8462458   9.3351547  32.9716445   5.7696134
   8.9950744  32.2601940   5.2270109   9.3602077  33.7284650   5.1840955
  72.9845476   8.6773986  84.5437336  72.9470205   9.6273303  84.4321442
  72.9140520   8.3288705  83.6550331  69.8893642   8.0577844  46.1948681
  69.7653580   8.8859159  45.7311296  70.7264805   7.7250487  45.8712053
  28.4513990  88.4834988  63.5784292  27.7928297  88.7247879  64.2298126
  28.0248443  88.6423153  62.7363729  32.1252147  60.9630169   7.4717790
  31.3846962  60.6519593   6.9511110  32.5930301  60.1664837   7.7226144
  87.3363686   4.8072633  69.8410749  87.5139809   4.7219777  68.9043713
  86.5382004   5.3336638  69.8865557  18.3493407   4.9562880  50.6126881
  19.2416366   5.0982893  50.9287167  17.7909644   5.3122437  51.3038778
  15.1867286  99.5554031  12.0741445  15.2590362 100.2332033  11.4021379
  14.6863739  99.9683298  12.7779562  24.1523822  22.9210877  79.1017485
  24.9036391  22.5010014  79.5205307  23.6430534  23.2802463  79.8282576
 104.3981075  41.3652611  54.4615698 104.0909672  42.1708775  54.8773527
 103.7850475  40.6932068  54.7594690  65.1531458  21.4599705  87.1242905
  65.0108862  20.5153489  87.0635986  65.9324884  21.5500760  87.6726818
  88.1759548   6.8995982  31.3210201  88.7157345   7.6216519  31.6427469
  88.3936119   6.1641800  31.8937469   1.1686595  13.0180991  45.9578991
   1.1162837  12.0626247  45.9343100   0.3801807  13.3125234  45.5020046
  73.7535572  12.1781838  80.4516983  73.2278824  12.2626925  79.6562338
  73.1959963  12.5298595  81.1457253   2.5286905  55.4287784  13.0433923
   2.6442138  55.6434880  12.1177656   3.2662288  54.8546658  13.2499582
  82.8579903  42.9294205  52.2193718  83.0035496  42.9402685  53.1653738
  82.3155212  42.1551752  52.0693731  96.3940048   2.9822880  27.7868104
  95.8231449   2.9992092  28.5549688  96.6580677   2.0658965  27.7047801
  52.3816681  49.9017715  86.2396336  53.1884527  49.5233250  86.5890694
  51.7276478  49.7414398  86.9199181  17.8860895  91.1340482  50.3297949
  17.7193538  90.7774872  49.4572735  17.0321313  91.4475436  50.6276274
  73.9034128  31.8214798  60.6726885  74.2708778  32.4567986  60.0582218
  74.6485281  31.5462422  61.2068081   7.4837573  45.0297356  47.8452063
   7.2435077  45.4965878  48.6455584   7.2739204  44.1142416  48.0297804
  17.5231631  18.6579943  68.6568356  17.6953300  19.3914604  68.0663967
  17.6133331  17.8805947  68.1057024  89.9026299  25.5291247  81.0144901
  89.7549343  26.4392233  81.2716579  90.2280712  25.5839276  80.1159763
   4.2465671  50.5717087  54.4418812   3.5672553  51.2419367  54.5164251
   4.4720348  50.5616188  53.5116673  43.3431244  15.1599622  44.7137547
  43.6533022  15.3888690  45.5898952  42.7417278  14.4289851  44.8559761
  30.7441703  90.4040069  49.0991402  30.6592123  89.4623632  49.2485428
  29.8683349  90.6843490  48.8335133  90.3541088  40.9045982  80.9986305
  90.5030060  41.7833185  80.6494808  89.7990513  41.0427046  81.7661381
  90.2444744  31.4624238  65.9214926  90.7770252  32.2530150  65.8343792
  90.4017925  30.9772182  65.1115179 105.3271294  50.5859327  57.1758127
 105.6859207  50.9935713  56.3875675 104.9430943  49.7651815  56.8674088
  79.4471693  35.3178096  53.9968348  79.9735069  34.5925045  53.6604881
  78.5672379  34.9525332  54.0891695  83.3284473  38.6274958  58.1581688
  83.7246895  38.1482983  57.4304390  84.0270710  39.1985989  58.4775400
 106.0559654   8.1307483  63.6012745 106.3390827   8.9931971  63.9050150
 105.1010799   8.1894356  63.5698938  73.1618929   7.6334900  54.4249296
  73.6659908   7.5532299  55.2346659  73.6776638   7.1581382  53.7735844
  66.3664905  98.5803721  52.6952648  67.0350448  99.2085315  52.4219751
  66.2292377  98.7656675  53.6242771  10.9221737  65.7917215   8.9650899
  11.2842457  65.1576783   8.3461172   9.9743644  65.6739165   8.9017183
  70.6255865  16.8157017  73.7995434  71.5384626  16.9420135  73.5408258
  70.6182289  15.9692848  74.2464828  39.7133914  69.9690206  49.0880632
  39.6290914  69.5613367  49.9499941  40.1117555  70.8213789  49.2641973
  76.2800781  96.5761805  83.3910179  77.0823757  97.0889012  83.4893227
  76.1996738  96.0967571  84.2155933  16.8058387  87.1659858  52.7306032
  16.2618200  87.4817307  52.0090866  16.8459026  87.9026277  53.3405066
  90.9222984  21.0406423  69.3802071  90.0955296  21.2045550  69.8338795
  91.2277126  21.9090009  69.1177034  91.1397640  92.4983168  76.9816208
  90.9398738  91.7552013  76.4123631  90.3157321  92.6833690  77.4321318
  76.4394331  13.1734371  27.1250176  75.5455065  13.5135329  27.1632719
  76.6916895  13.0593097  28.0412984  11.6997798  37.3755002  59.9760056
  12.2617515  36.6049051  59.8947430  10.9971603  37.0985913  60.5641127
 106.0024261  46.2845898  14.7900414 106.3024521  46.3158417  15.6984663
 105.3696728  45.5665970  14.7713506  63.5194349   7.8185862  81.0998344
  63.0997419   8.6747736  81.0159779  63.0593872   7.2636247  80.4700661
  89.1091251  11.7263758  49.8365831  88.3231258  12.2347867  50.0364494
  89.0992546  11.0104406  50.4718542  93.2382870  85.1353550  29.4109583
  93.9867973  84.6972942  29.0059066  92.6441765  84.4235611  29.6488881
 107.9466534   1.2186372  45.9043980 107.8061485   1.4463268  46.8234491
 107.0794964   1.2883087  45.5051136 103.0204773  44.2470646  69.5142460
 103.7733078  44.1150188  70.0904751 103.2492733  45.0172472  68.9939499
 102.4521446   3.2891580  37.2218966 102.2406197   2.4865133  37.6986027
 103.3495998   3.1568539  36.9164348  87.2208881  17.0220923  46.4930105
  87.0832634  17.8268981  45.9934330  87.9276371  17.2361314  47.1020412
   1.4417346  19.5663095  40.5512524   1.2709602  19.0288806  41.3247108
   2.3787101  19.4593096  40.3873634  83.5081291  27.5135565  61.1926603
  84.1829491  28.1812906  61.3150787  82.7283764  27.8821158  61.6078568
  63.3006764  17.2542006   0.0799257  63.1024742  16.3178832   0.0958520
  63.0634880  17.5641305   0.9539491 104.6496868  21.0601091  71.4573526
 105.5049133  21.4648008  71.3122511 104.7487545  20.5787659  72.2787714
 103.5526276  41.3431644  76.8730068 102.8647518  40.6794977  76.8220329
 104.3557072  40.8735323  76.6477537  47.2301857 101.1483707  30.0047278
  47.0139305 100.8795410  30.8975863  46.6174976 100.6619891  29.4531155
  73.9113808   6.3226885  47.5038481  73.9952183   7.1508574  47.9764366
  74.7583723   5.8927089  47.6219749   6.7902644  12.7360308  54.3790579
   6.3627132  12.7900088  53.5243607   7.7053340  12.5407362  54.1772079
  82.3037624  12.7875471  74.9001694  82.8632259  12.7851808  74.1234922
  81.5624619  13.3433151  74.6596813  34.6491814  14.7473502  60.0580597
  35.1364756  15.3503048  60.6195068  34.0183806  14.3304062  60.6449842
  92.1595764  25.2570128  64.9079990  92.4632740  24.3506694  64.9583817
  92.5310135  25.6775355  65.6835175   5.8693107  17.0674825  48.5160017
   5.1531394  17.7002513  48.4618902   5.7721217  16.5280664  47.7312613
  33.7324277  87.8632516  46.8822908  33.5607664  87.7718551  45.9450531
  33.1890050  87.1901948  47.2920704  99.5539761  22.7882481  40.5122852
  98.6274052  23.0222154  40.4578209  99.9958324  23.4283590  39.9543858
  64.1378967  91.2699909  63.8508558  65.0411216  91.3333363  63.5403538
  64.1285507  91.7736585  64.6647739 107.4329948   9.5394951  38.2221079
 106.8587589  10.2956069  38.3436847 108.1505680   9.8683196  37.6806355
  10.8223994  40.2797318  52.4148560  11.4422401  40.6593800  53.0376720
  11.3249191  40.1823092  51.6060209  98.2859039  13.6117601  82.8026772
  98.2131100  12.6576900  82.7765274  99.0834427  13.8047147  82.3097992
  86.8731689  22.6711178  52.4563169  86.4581871  21.8799686  52.1126604
  87.1297646  22.4386740  53.3487082  93.4134960   1.4605680  82.0886707
  92.4617767   1.5565436  82.0533180  93.7489510   2.2269657  81.6235542
  80.2476303  90.4165275  29.4060731  80.1174156  89.6400542  28.8616800
  80.2784339  90.0789983  30.3012586  93.7207222  14.9718535  68.0672598
  94.2231178  14.9681747  68.8820076  94.3574429  15.2126670  67.3943377
  66.4181757   5.3429145  49.8522282  65.8451843   5.2770036  50.6161451
  66.7721272   4.4604850  49.7414684 104.1898060  40.0811005  39.3335938
 104.8786545  39.4474959  39.5342398 104.6475124  40.9190178  39.2655873
  98.0954456  29.6770883  64.6454191  97.2537994  29.7643209  64.1979170
  98.4881973  30.5481648  64.5888519  16.0955135  96.6652758  37.1408653
  16.8363468  97.2430769  37.3240161  15.7185165  96.4792759  38.0008125
  82.3687649  23.3455873  44.8914480  81.5808010  23.7862325  44.5733690
  82.0398426  22.6263595  45.4306650   9.0856536  31.9062519  65.2523947
   8.4228690  31.6529918  64.6098852   8.6709006  31.7462802  66.1001110
  88.5953903  30.3140879  46.8224573  88.6813354  30.1832509  45.8781433
  88.3575439  29.4517374  47.1630716   8.4215434  40.3883934  56.1545134
   9.0035041  40.0901890  56.8535280   8.9953788  40.8578300  55.5490541
 101.0192299  34.8270702  57.2876740 100.4412174  35.5868363  57.2177362
 100.4257202  34.0834594  57.3926640  61.5232841  85.7026369  36.3959098
  61.0051528  85.0113470  36.8080926  60.9853641  86.4895565  36.4832973
  83.1797028  33.1726789  80.7051659  82.4372101  33.7405014  80.4990005
  83.2858562  32.6252484  79.9271631  82.1294403   6.5967333  37.9691219
  81.3500214   7.0593351  38.2769227  82.4091530   6.0728979  38.7198496
  87.6093483  10.2093470  64.2373848  88.5231304  10.4528880  64.3854380
  87.6466179   9.2912710  63.9690924  87.7393913   3.4534305  56.8652725
  87.0256805   2.8320047  57.0090866  87.8739929   3.4484500  55.9176016
  83.5844231  20.0806999  46.9933748  83.8556767  20.3603530  46.1190462
  83.5727024  19.1247356  46.9461870  33.8495238  26.3901305  52.8705597
  34.0908702  26.7056489  51.9996786  34.1744216  27.0638037  53.4679174
 107.1109486   3.1335890  74.0521193 107.8223324   2.5663739  73.7547445
 107.4684429   4.0192723  73.9889050  94.3939590   9.7482955  39.9382210
  94.8493576   9.2682999  40.6299162  95.0300884   9.8016483  39.2249727
  19.2607196  61.2769270  45.0604773  18.7189563  61.8818092  44.5536757
  19.7886356  60.8213329  44.4047499   2.5750430  34.6279550  46.8607807
   1.6332896  34.5014930  46.7453241   2.7053817  35.5699301  46.7515707
   2.2508414   3.9713416  56.9861603   1.8816646   4.6836877  57.5081825
   1.7825301   3.1904650  57.2813702  78.7454796  15.1486909  65.7330322
  77.8728771  15.2207673  65.3462601  78.9289284  14.2092419  65.7368422
  50.6924677  28.8469601  51.6805887  50.2279902  29.6728802  51.5451479
  51.6172361  29.0930390  51.7024851   1.0311397  25.6216598  45.3385782
   0.8568843  25.1983166  44.4979572   0.3342803  25.3068018  45.9143257
  84.4617645  99.9884550  86.9010830  84.3911735  99.9856310  87.8556728
  85.2152053 100.5498363  86.7182922  19.5365421  61.8477894  20.5871278
  19.6912281  61.4068963  19.7517187  19.1612808  61.1702873  21.1496240
   5.3301279  70.3650726   1.5761453   5.9406892  70.8101703   2.1637994
   4.7626678  71.0623468   1.2474710   8.1294902  23.0865669  55.8710575
   8.3088573  22.2781825  56.3512373   8.8263114  23.1360722  55.2166653
   8.3540336  87.6604737   6.9760305   8.4944717  87.7509965   7.9185373
   9.2325107  87.5489940   6.6125948  98.6567307  46.1819839  46.6081858
  99.1087914  45.3481102  46.4796019  97.9219151  45.9698105  47.1837330
  84.7116184  12.1899939  31.6175723  84.1969299  11.3836157  31.5847373
  85.6103706  11.8947113  31.7634749  94.4950104  11.1373687  34.2678976
  94.5166016  12.0943034  34.2614865  94.9871826  10.8919334  35.0513268
  94.4863892  47.4685144  76.8439293  95.0241184  47.4085951  77.6335382
  94.2644882  48.3970928  76.7751646   4.9143394  44.3287373  73.9111042
   4.1677364  44.1976738  73.3265972   4.8329910  45.2364922  74.2036819
  83.5512543  12.5857282  68.4254456  82.9721737  13.3468795  68.4647226
  83.2776165  12.1170259  67.6369858  79.2282581  54.1597843  40.0966692
  79.5554018  55.0215292  40.3547335  79.3610334  54.1270447  39.1492867
  72.0006657   0.5730206  74.7253799  71.6453552  -0.1965265  75.1701117
  71.3625526   1.2653044  74.8979712   4.8732074  53.8001394  44.3478155
   5.5759795  53.6520386  43.7150383   4.1898902  54.2456198  43.8469553
  89.9166203   5.6975877  48.9396143  90.3673172   5.1631653  49.5934486
  89.6187496   5.0698704  48.2812262  33.8607303  49.6169886   1.7313463
  33.7088195  50.3761423   2.2942335  33.7832824  48.8645609   2.3179323
  14.8900302  77.4664783  26.3197994  14.7862704  78.3540869  26.6627479
  15.5858119  77.0831823  26.8538404  86.3656807  23.7864947  60.8982801
  86.6375923  24.3171740  61.6470575  86.3541603  24.3986034  60.1624680
 100.2403069   3.6175171  61.0700750  99.3888474   3.4784916  61.4847040
 100.8760262   3.3386064  61.7290974  86.1865807  16.4226341  61.6881371
  85.8722115  17.3185658  61.8094444  85.3900909  15.8942711  61.6364670
  95.2699566  42.0378256  65.2682495  94.4233513  42.3958969  65.0012732
  95.9141922  42.5977993  64.8350906  87.3964302  96.0880811  41.5581656
  86.7501155  96.7801965  41.4185762  87.3295776  95.8824629  42.4906254
  47.7292625  95.0606932   8.6022550  46.9676582  95.1970972   9.1658002
  48.4535495  95.4707302   9.0750295  37.0589248  89.1697444  14.9699098
  37.5586216  88.3928360  14.7190267  37.2154895  89.2620601  15.9096986
   2.6652606  39.3178415  41.4394522   2.7748664  38.5801721  40.8394051
   3.5331805  39.4462895  41.8221521  15.0755302  64.8480655  11.5739423
  14.6203701  65.4410662  10.9761030  15.9953586  64.9071838  11.3157636
  17.9714854  14.5691109  61.9517565  18.8085063  15.0309563  61.9034338
  18.1580432  13.6979830  61.6016626 102.6721096  12.7406824  55.2563810
 103.1286335  13.0705988  54.4824457 103.1399632  11.9379067  55.4863691
  56.5673057  83.0406076  43.5837889  55.9048168  83.7300438  43.5388613
  56.4115898  82.5076289  42.8041029  92.1757507  67.1851873  71.8599653
  91.5768337  66.5006638  71.5617037  93.0466366  66.7994022  71.7652559
  74.0030003  28.8809800  87.6958466  73.3632088  29.5644283  87.4963570
  74.4135141  28.6840582  86.8538666 104.0246773  13.1888223  52.6378679
 104.1397381  13.8591790  51.9643593 104.8888493  12.7866411  52.7256012
  78.1704283  12.0356715  68.4449625  77.7637005  12.8292525  68.7928629
  78.6189747  11.6473603  69.1961336 106.8233776   6.7251462  53.7000942
 107.7543736   6.8215269  53.9005613 106.5283012   6.0139716  54.2687702
  59.4150066  10.9274399  67.5002575  58.9893484  10.0721192  67.5591946
  60.1895905  10.7727432  66.9595909  80.6114578  23.9074564  59.4313574
  81.0370255  23.2577562  59.9908304  80.2230835  24.5328021  60.0431871
 101.1964138  83.7208904  32.7274972 101.1255797  82.7779950  32.5786287
 100.3862675  83.9532508  33.1812746  88.8841248  37.6464844  60.5526161
  88.5733986  37.1401381  61.3031530  89.2411518  38.4478021  60.9355688
  33.2146716  14.5551860  36.0413861  32.4659300  14.2112911  35.5541968
  32.9244661  15.4125309  36.3527894  97.6802731  27.6524186  44.0749168
  97.7126026  27.1903944  43.2372332  96.7752171  27.9557157  44.1463995
  16.7627327  47.7444847  24.2188531  17.3008053  47.1836407  24.7775728
  17.2004215  47.7253480  23.3677942   1.7592708  61.7982758  14.8962289
   2.0251838  62.7154960  14.9612695   2.2236768  61.3629939  15.6111318
  44.8655128  29.7271466  55.9468555  44.0291309  29.9375772  55.5316257
  44.7556543  28.8315749  56.2664080  73.3127117  16.4143217  71.0348654
  73.4376287  16.6440201  70.1140690  73.4652233  17.2320175  71.5085173
  93.6020756  33.5216665  52.2924519  93.4479904  34.2701054  51.7159748
  94.2550755  33.8326955  52.9194164  90.6715107  22.0508385  47.7513123
  90.7141113  22.9750752  47.5059462  90.2230740  22.0479560  48.5969639
  79.4422674  20.9234548  57.8682995  79.8040247  20.7712626  58.7413406
  78.8460970  20.1884961  57.7246094  74.5904819  83.4878940  77.7155399
  73.9087574  83.0957312  77.1699381  74.1218654  83.8246519  78.4792280
  38.8420574  98.6338917  50.3203869  38.8581077  99.4845473  49.8818016
  38.2764999  98.0915836  49.7705889 105.2379417  53.8526630  65.5491829
 104.6176529  53.8660383  66.2780857 104.6963406  53.9861345  64.7713089
  41.9028369  94.9755485  57.4900675  42.4844591  94.2772348  57.1895647
  41.0213462  94.6387912  57.3294258  13.3821281   8.5247928  49.5183182
  12.8693469   8.7915778  50.2812767  13.9523013   9.2725778  49.3395662
  89.0476894  17.4251616  53.3192587  89.7177315  18.1086695  53.3288288
  88.3076859  17.8085852  53.7900114  96.6237545  35.8874273  61.7380857
  95.8963776  35.2652264  61.7433357  97.2361469  35.5345392  61.0925817
 106.7170906  49.3559933  37.9320478 107.4237728  49.9871349  37.7960610
 107.0785522  48.5228586  37.6296186  73.3071470  25.9326410  63.2206821
  73.4167051  26.7470813  62.7298546  72.5602341  25.5014014  62.8054905
 104.4906902  10.8338106  55.4225683 104.5217991  10.6117797  56.3531399
 104.6727848  10.0084960  54.9731970  31.2206546  82.4385197  27.9178500
  31.2074319  83.0704195  28.6367106  31.2276355  81.5843851  28.3498669
  91.7299747  33.6636114  77.9115343  91.9395161  33.3573747  77.0291805
  90.8160591  33.4107494  78.0420828  11.9875129  26.0399818  70.4865360
  11.6948684  25.2656651  70.9671831  12.6145919  26.4631176  71.0730267
  93.5148239  38.0317211  48.6983204  94.3601608  37.6868582  48.4107113
  93.7023163  38.4591246  49.5340252  98.1712437  43.0565405  72.2892046
  98.0031204  42.3052263  71.7204380  98.9212894  43.4966421  71.8892288
 104.2305374  27.6400518  84.3313789 104.4199753  26.7061567  84.4218349
 103.8089275  27.7171111  83.4754848  95.1597977  47.1136856  46.3854456
  95.4902363  46.2357330  46.5758228  95.9096241  47.6894999  46.5351915
   2.5036700  28.2813597  61.9055891   2.4944575  28.8726187  62.6582909
   1.9602664  28.7192011  61.2504196  80.5169964  17.4391091  84.6294212
  80.7716274  16.6820467  84.1019249  81.3401604  17.8930354  84.8099232
 100.7351685  13.3225560  72.0212173 100.4429913  13.9980197  71.4091587
  99.9260902  12.9612386  72.3832703  92.3164853  61.5810849   4.7562772
  93.0438431  61.5736748   5.3784734  91.5486868  61.7911197   5.2878839
  26.9277747   2.5184187  27.1405792  25.9916385   2.6922265  27.2389317
  27.2880252   3.3351892  26.7951322  24.6754448  74.8887958   3.1793863
  25.0624172  74.7494306   2.3150617  24.0435211  75.5956043   3.0477411
  92.8311634  14.7574925  28.8269639  92.0461178  14.7058666  28.2817388
  93.5572052  14.6539533  28.2118487  71.5269748  80.8298124   4.2321569
  71.2298099  81.4690579   3.5846216  70.7488815  80.3078283   4.4279748
  87.7046204  34.0154052  67.1230268  88.3008862  33.7164402  67.8095484
  86.9743347  34.4135404  67.5967360  45.9448711  63.3118953   4.9531156
  46.5592567  62.6654769   4.6054060  45.0998489  63.0658461   4.5767671
  85.0431053  93.6915428  54.3773746  85.8742897  93.7666417  54.8461199
  84.9811164  92.7646244  54.1466999 107.6944550  58.3326603  13.0922300
 107.1798237  57.6557542  13.5317594 108.5812195  58.2193018  13.4343320
  84.5186806  25.7990170  49.5453024  84.3806171  25.9557915  50.4794312
  84.6639633  26.6697407  49.1752148  97.7783012   5.9244186  41.2161303
  97.3689842   5.8989024  42.0810223  97.8620720   6.8571812  41.0182238
   7.3945562  65.1161374   4.2333013   7.2058193  65.0841237   5.1711637
   6.6989986  65.6626166   3.8675291  81.2143421  49.4296932  58.3231163
  81.1310959  49.3524837  59.2735577  80.8863354  50.3067112  58.1244135
  82.0290565   7.1406180  66.5009785  82.8875256   7.1712291  66.9232702
  81.7565155   6.2263083  66.5783930 103.1838894  31.0772920  69.3360329
 102.2539806  31.2730145  69.2212009 103.4431744  31.5878415  70.1030684
  24.9258033  67.3206033  11.4059621  25.6004039  67.9800834  11.2439806
  25.3426449  66.6910662  11.9943124  92.9732704  35.9518218  78.8535833
  92.4559021  35.2575040  78.4455585  92.6437855  36.7593384  78.4591341
   0.8095248   2.8444141  63.8372564   0.5120357   2.4819428  64.6717262
   1.2428077   3.6646572  64.0732718 107.4509811  43.5177517  51.4691591
 107.9929161  43.4309196  52.2533798 106.9785023  42.6873016  51.4113760
  99.7023487  14.5906591  61.7458630  99.3959236  15.2985644  61.1791134
  98.9181614  14.0726376  61.9273376  72.4900579   0.4015791  56.7625332
  72.8873682   0.7370777  55.9589052  72.4928665  -0.5492430  56.6522551
 105.5284500  25.7259965  66.2167168 106.1518288  25.9133768  66.9185114
 106.0681343  25.3937721  65.4993582   7.2533647  75.9161939  17.0530778
   7.8848688  76.2093796  16.3962156   6.7627279  75.2183308  16.6189271
  64.8848867  20.2531552  80.6384945  65.7805109  20.4264331  80.9284401
  64.6236515  21.0506749  80.1781082  56.9294921  92.6171512  72.9746008
  56.7597000  92.4204732  72.0533419  56.2008659  92.2113854  73.4443760
 105.1604176  26.7605472  31.9701719 104.3815899  26.4197922  32.4101114
 105.8275509  26.7937374  32.6557851  64.7431938  88.4531207  57.2880030
  65.0855438  88.3239693  58.1725073  64.1044609  87.7494950  57.1732903
  52.4425364  21.1335492  32.4060941  52.0274544  21.7940545  31.8514156
  53.1039286  21.6174507  32.9007030  32.5762502  72.0938808  12.0529449
  33.4910909  72.0967300  11.7713666  32.0845119  71.8554694  11.2670791
 107.3050880  21.9326782  63.3946180 107.7162170  22.7859306  63.5330582
 107.4254608  21.7574143  62.4613285  92.4254513  29.6768165  23.2021451
  92.9908085  28.9077210  23.1307840  91.5642643  29.3679643  22.9206991
  90.0871563  32.1320510  55.5830669  90.7115555  32.2074366  54.8614931
  90.2937603  32.8699684  56.1566734 104.8640156  32.9903483  64.3952179
 105.6340981  32.5581241  64.0259123 104.6275425  32.4533010  65.1514530
  98.5780048  18.9644825  16.5503943  98.7413597  18.0935478  16.1884260
  98.8060284  18.8855159  17.4766779  80.6309986  16.4005971  30.7746720
  79.7913313  15.9562290  30.8918428  81.2467384  15.6980371  30.5661058
  36.7932216  55.3007789   3.7030679  36.4866058  54.8080562   2.9418546
  37.5115101  55.8372523   3.3676702 100.9773731  35.9074402  70.5396271
 101.5697098  36.3870859  69.9605703 100.7577419  36.5335727  71.2295198
   6.8230136  16.4195919  57.7885818   6.2878593  15.6580651  57.5651550
   7.7249034  16.1215878  57.6701927  90.3830242  10.8942997  53.7370920
  90.2728462  11.5477657  54.4278002  89.7861481  10.1864064  53.9796877
  26.5116485  35.1791120  70.5975533  27.3592742  34.7376990  70.6515551
  26.2079795  35.2262712  71.5040827  20.1480277   3.9065096  30.5992746
  21.0543044   4.0060332  30.3077221  20.0623401   2.9747829  30.8012009
  31.0825904  44.2963290  85.4107564  31.3987430  44.9466818  84.7836026
  31.1639770  44.7255575  86.2624442  92.9934216  35.6487632  75.7768822
  92.9692554  36.5871501  75.9641790  92.3889732  35.5352807  75.0434017
   3.0417331  24.6409369  52.9619265   3.9050372  24.6082568  52.5497675
   3.2065471  24.9966002  53.8351822   5.3438171  21.8040442  68.7248755
   4.7753604  22.4934530  68.3816576   5.9619506  21.6280460  68.0155373
   9.2858680  40.0488663  29.6427369   8.9001640  40.2692270  28.7948537
   8.6899265  40.4350281  30.2845860  62.3839847  95.2888776  45.3919744
  62.8158847  94.8957277  44.6336031  63.1004325  95.5149407  45.9851217
  84.4162750   9.6489710  74.4495010  84.6602631   9.0847611  75.1832390
  83.6426449  10.1211381  74.7573662  91.6169834   8.3750534  41.9518423
  91.1383533   8.5203725  41.1357355  91.5077305   9.1899741  42.4419451
  14.4420798  44.0129709  76.9631386  15.3562530  43.8033390  77.1543503
  13.9420779  43.3208895  77.3958683  56.0585586  76.9558293  44.0979338
  55.8010284  76.9979412  43.1769896  56.3229648  76.0455949  44.2313147
   5.6573375  12.8247583  70.2165747   5.0882323  13.5463691  69.9489355
   6.5448173  13.1558824  70.0788403  90.8843422  20.3848672  80.3726006
  91.3702774  19.8956108  81.0364628  90.4182339  21.0598683  80.8658981
   2.6799567  57.4070263  17.1420109   2.9811366  56.5058994  17.2581708
   3.2197364  57.9194403  17.7439284  67.5946999   6.9081581  72.1246099
  66.9659710   6.9399631  72.8456688  68.3632708   6.4749682  72.4959230
  94.8683929  17.5296783  54.3309736  95.1801968  17.2740543  53.4628344
  94.5051098  16.7253029  54.7014284  68.0001497  15.5660057  34.6349096
  68.8759613  15.8577049  34.8880839  67.4450779  16.3351905  34.7632980
  41.3893779  48.3403158  51.3426018  40.7474120  49.0498686  51.3172770
  42.2232230  48.7644005  51.1398840  88.5060883  32.8520298  35.1815224
  87.7866554  32.3705339  35.5899382  89.1616249  32.1825862  34.9857068
  81.1877155  33.6782598  56.0717010  82.1127224  33.8910508  55.9479380
  80.7840919  33.8620448  55.2234411  51.4556877  90.0477876   2.3545057
  52.0094673  90.8181657   2.4812776  51.5252010  89.8540486   1.4196950
  90.7919407  68.8618517  49.4126749  90.0834084  69.2488909  49.9268818
  90.7746696  69.3396187  48.5834169  93.8599300  18.7424481  27.2322965
  93.0286884  18.9889431  26.8267131  93.6291027  18.5165489  28.1333613
  92.6661205  51.8231821  87.8026581  93.0853939  51.8932199  86.9450283
  92.8735256  50.9369564  88.0990028  93.2152271  87.4732208  38.1879711
  93.9252186  88.1152058  38.1879330  93.0773449  87.2686577  39.1128349
  89.5115089  20.4033542  51.6005325  90.3126240  19.9330366  51.8312883
  88.8395214  20.0240564  52.1669149  81.8814182  49.2807817  46.3222599
  82.3154736  50.1339006  46.3178968  82.1064758  48.9018869  47.1719790
  95.2845756  98.1966902  62.6325321  94.6913044  98.0347527  63.3660412
  94.9536411  97.6382829  61.9290400  86.5137196  48.9471674  59.2681265
  87.3277187  49.4501543  59.2426491  86.2717533  48.9298630  60.1940775
  60.4083244  99.9121755  48.2903719  60.0948230  99.7179497  47.4070692
  61.3121501  99.5971025  48.2984209  15.6697639  61.4840794  67.9835033
  16.2887080  61.8746042  67.3665428  14.8904880  62.0366240  67.9230690
 107.2235966  52.0243168  60.6083393 106.9517994  52.9100895  60.8486700
 108.1801891  52.0549154  60.6234694   6.6566356  27.2219729  77.0901442
   6.2327941  26.5396810  76.5695095   5.9692558  27.8711939  77.2392893
  13.3190520  26.0414648  45.4487038  13.6038287  25.4212546  44.7775316
  13.7712081  25.7585859  46.2435341  32.0913688  99.2953981   6.5575296
  31.2936393  99.4778933   7.0540601  32.7757541  99.7826590   7.0162469
 106.0786057  48.8692284  29.7920060 106.0368347  49.5994091  30.4095173
 105.6440449  49.1964626  29.0044069 103.6984825  22.9521608  62.7244663
 103.4794521  22.8833151  63.6537218 103.0232143  23.5250187  62.3610306
   5.9964267  88.0394424   5.8633215   5.6656734  87.5102462   6.5891248
   6.9108288  88.2104482   6.0888368  98.4965420  43.3932066  47.9782295
  98.8029099  43.1224489  47.1127462  99.1387463  43.0256462  48.5854387
  75.2572680   4.0305299  67.6482534  74.8536444   4.5785555  68.3212948
  76.1949253   4.2061359  67.7269459   0.8000262  80.8262348  39.2958355
   1.1367591  81.6731739  39.0033484   0.1316913  80.5981159  38.6496758
  82.0289612  26.0672832  63.4805679  81.1015320  26.0016346  63.2530022
  82.4534798  26.3589740  62.6737642 105.4105759   6.0525024  71.1818838
 105.2342319   6.9872773  71.0754538 105.7090092   5.9666324  72.0873117
  94.1769218  10.6714213  51.2961578  93.6189842  10.0316823  51.7385006
  95.0648403  10.3310561  51.4055824  86.5921688  70.9486055  50.9956980
  86.1635780  70.7421255  51.8263054  85.9471226  70.7140350  50.3285265
 106.6957664  19.4557810  68.0689001 105.8310318  19.1629231  67.7813101
 107.2308636  18.6621273  68.0653191   5.6351836  54.1059875  82.4018288
   5.9332641  55.0098705  82.2999763   5.1474269  54.1060019  83.2254314
  79.1826335  94.3490458  84.6780205  79.2264358  93.9374466  83.8149452
  78.3031837  94.1452403  84.9962234  64.0857220  32.1512699  38.7742043
  64.8177481  32.5726962  39.2245054  63.4640980  32.8607631  38.6116147
  90.1430130  44.3411827  41.0615587  89.7736645  43.4587574  41.0277987
  90.9524727  44.2430067  41.5629292  80.3222084  27.9047108  43.9044666
  80.2236557  26.9842887  44.1480637  80.7281494  28.3127451  44.6692896
 107.6624489  36.4563251  70.2423000 107.5806522  35.5160713  70.4018641
 106.8047714  36.8137836  70.4721880  95.8082581  50.4924536  54.6152067
  96.4670658  51.0030890  55.0857878  95.0686359  51.0914850  54.5134687
  34.2226489  33.6205268  39.7489715  34.1939338  34.4383383  40.2455521
  34.8460181  33.7908530  39.0428329  20.8638366  24.7573543  22.3820186
  21.6707500  25.2375436  22.5678682  20.2628978  25.4208875  22.0431542
   9.4566433  79.4151367  18.7633211   8.7034408  79.8106779  19.2020303
  10.2167885  79.8235454  19.1775781  92.0159626  42.9108381  79.5872116
  91.5826130  43.4584999  78.9326048  92.9424953  42.9402256  79.3486595
   1.9054778  60.0970411  43.4981871   1.7775043  61.0122776  43.7475824
   1.1154826  59.6523666  43.8054323  99.2348957  37.8793478  67.1002340
  99.7020340  37.1176481  66.7569685  99.8865318  38.5804892  67.0990849
  91.6898727  60.5177641  61.2907124  90.7508278  60.6387234  61.4313936
  91.7532921  59.7130108  60.7763338   5.0012859  28.7186217  39.6863413
   4.3902572  28.1161857  40.1105452   5.8625682  28.4518933  40.0076962
  88.8254833  51.2684870  27.9029942  88.9710808  51.6872549  27.0546627
  89.2987919  51.8194199  28.5264373 103.2423019  65.3848839  40.1332378
 102.9173470  65.8696175  40.8919668 102.5833988  65.5322266  39.4547367
  91.8988132  48.5037565  53.5880661  91.7744446  47.6838827  53.1099796
  91.5389729  49.1756392  53.0089951  99.2031860  32.7516365  57.6155663
  98.8969421  32.6402235  56.7155504  98.4731960  32.4496412  58.1560659
  29.2618068  30.0175619  85.8735371  28.6487659  30.2100062  86.5830326
  28.9268573  30.5134964  85.1264763  32.5375827  49.7368956  17.2774911
  31.6132148  49.9775934  17.2156203  32.9505046  50.4822636  17.7135646
 106.1079025  56.3484573  58.6336040 106.6145992  55.5859804  58.3540869
 106.3225842  57.0266056  57.9930878   7.5242694   4.3056712  47.8915787
   7.7182277   3.8494569  47.0727491   6.6170104   4.0714532  48.0871582
  81.6870785   8.3351970  52.2890902  81.9203758   7.4732405  52.6338148
  81.9507885   8.9473134  52.9761124  13.9939197  28.0660701  84.2174339
  13.0876430  28.0206680  83.9127350  14.2989238  28.9280415  83.9342308
  17.3317702  41.6118622  57.4986935  17.6506408  40.8041573  57.0959902
  16.5999683  41.3325119  58.0488348  84.4536972  16.4813101  50.0544214
  83.6936569  15.9424901  49.8347902  84.5592594  17.0643342  49.3026400
   1.4910014  35.7924628  37.7319360   0.5423244  35.8938241  37.6547098
   1.6265853  34.8469543  37.7941203  98.6933517  24.2646050  45.8197594
  98.0802155  23.9009762  45.1809502  99.0871143  23.4983277  46.2368870
  92.0001030  51.3348150  42.7102757  92.4542904  50.4967785  42.6228905
  92.3979378  51.7438602  43.4788084  93.8162327  55.7143021  66.2618589
  94.4902802  55.4260015  65.6464148  93.5760403  54.9220896  66.7424154
   4.4332679   3.4871614  66.4981699   4.9805721   4.1188785  66.9646692
   3.6114581   3.9521575  66.3412094  17.1534618  36.3902760  73.8415146
  16.5445884  36.8068314  74.4514132  17.1258910  35.4617190  74.0722799
  85.5595589  57.2533846  60.1601315  85.8222580  57.0474291  59.2630291
  84.6112919  57.1231222  60.1679087  84.5680332  41.4126682  57.8663683
  85.1253128  41.8453169  57.2194672  83.7359619  41.2768316  57.4131203
  92.5614452  29.6935201  74.5386267  92.2163296  30.2085376  73.8093233
  93.1781483  30.2807069  74.9758101 103.9090252  41.1271667  70.4550552
 104.3088818  41.3077021  69.6043205 103.8514519  41.9833469  70.8791733
  77.0870352  21.9394350  42.8607655  78.0079412  22.1385026  42.6918364
  76.6781425  22.7942467  42.9961777  38.7874587  49.5598078  46.0002518
  38.7179263  50.4389811  45.6281519  39.5039447  49.6230078  46.6318178
   3.0082305  14.1490507  29.8726797   2.8153022  13.8371110  30.7568216
   3.5587485  14.9207056  30.0057554  93.1546593  17.6687253  73.0577946
  93.8640594  18.3077335  72.9896069  92.3552704  18.1883419  72.9729128
   5.5132659  42.7917480  68.5608625   6.3147433  42.5323296  68.1063557
   5.4542335  42.1912479  69.3039227  13.2647498  24.8147392  31.4016676
  13.0641063  25.2417254  30.5688071  14.1182788  24.4048738  31.2611914
  88.4394741  33.4509778  60.4066658  87.7113247  33.8443065  60.8876133
  89.2231464  33.7881637  60.8407068  13.6501010  10.1416004  69.3387175
  12.8674873  10.5865765  69.6638870  13.8035854  10.5267751  68.4759808
  94.2734909  31.7300129  76.0375357  95.0450802  31.2703919  76.3686419
  93.8686752  32.1106887  76.8169212   2.0082458  71.8718767  40.6094313
   1.7314704  70.9855843  40.8420515   2.9593929  71.8616199  40.7164764
 106.2073994  25.2500868  46.0661221 106.3358212  25.5994630  45.1842642
 105.9441090  24.3403363  45.9273291  90.1785183  86.9873238  30.5576253
  89.3195248  87.3637867  30.7490492  90.1915646  86.1618233  31.0419941
  95.1292706  52.0368099  62.0611238  94.8764038  52.3442411  61.1906242
  95.2820110  51.0985756  61.9487667  15.9037860  43.2668924  74.5513439
  15.4953464  42.4321175  74.3220997  15.3758987  43.6006117  75.2767420
 101.0283661  27.8736019  41.8312263 100.6312275  27.0266008  42.0339584
 100.4017544  28.5172248  42.1618938  84.6762172  76.2529213  87.3342133
  83.7794391  75.9578330  87.4921799  85.1843826  75.8676345  88.0480480
  82.0023727  17.2468269  81.5788937  82.3781681  18.0808270  81.2970161
  82.5770283  16.9517386  82.2852421  99.9014282  88.9806461  71.1088610
 100.8031273  88.6770248  71.0041094  99.8887444  89.4014931  71.9684887
   5.0972255  32.7171254  50.9243011   5.5269798  32.7012038  50.0691462
   5.8169635  32.6875257  51.5546465   3.0885394  76.1816454  46.8592548
   2.8269084  76.5712500  46.0249996   2.3237689  75.6785202  47.1389437
  12.4926646  64.5980978  40.6040716  11.9351848  63.9183569  40.2253819
  13.2515796  64.1237879  40.9436369   3.1100162  36.5359545  12.0930409
   2.5702747  37.3239660  12.0301902   2.6809009  35.9050035  11.5151227
   9.0511497  48.3573627  46.6539383   8.7838920  47.5828886  46.1589670
   8.2281383  48.7716341  46.9132948  90.8748531  30.8820963  68.6587429
  90.3959846  31.5999460  69.0729904  90.6933308  30.9809685  67.7241278
  74.5280886  54.6161222  36.6402292  74.4003487  55.3672028  37.2197032
  74.8676348  53.9275599  37.2119141 101.7922974  43.4330463  47.3652172
 101.2896061  43.5405731  48.1726646 102.6531792  43.1332541  47.6571608
   1.3713248  38.1970954  44.6979523   0.4500945  37.9380941  44.6757841
   1.6612037  38.1290793  43.7882423 107.7347279  54.7592640  39.4878983
 108.3108044  55.0057030  38.7642670 106.9246769  54.4764709  39.0635419
  10.8302196  27.1395469  86.7218494  10.1802333  27.7298284  87.1030426
  10.3418334  26.6318655  86.0737991  95.4780674  48.7699890  56.9385815
  95.6969547  49.1152668  56.0730696  95.4214478  47.8229761  56.8113518
  72.9872561  14.6540785  35.8108902  72.9741669  13.9548445  35.1573372
  73.9167452  14.8001289  35.9868121   3.8446601  53.5022402  52.3425245
   3.2391341  53.1033087  52.9673576   3.2889159  53.7799311  51.6143274
  14.6727260  47.9523993  65.5563879  14.3141921  48.2063723  66.4067841
  15.4022582  48.5555649  65.4142380  81.9563198  26.5387416  79.0565205
  82.5667381  25.9642005  78.5944414  82.4062061  26.7599487  79.8719358
  93.4792805  23.9012933  52.9292488  93.0922699  23.4489727  52.1796703
  92.8079414  24.5253325  53.2051420  78.9967537  12.9555070  84.4450665
  78.1290865  12.7261305  84.1122437  79.1716385  13.8229632  84.0801430
  13.4196742  18.9708900  86.7635441  12.9384978  19.6992314  86.3708401
  14.3277343  19.2721581  86.7934608  99.2479324  44.0886450  38.7271428
  99.6367455  44.6722126  38.0755997  99.1173172  43.2627106  38.2613063
 103.5240555  21.5349174  37.9136109 103.2426167  21.2968516  38.7969851
 103.8997269  20.7300401  37.5568557  12.3786720  28.7737894  51.1431313
  12.1328529  29.6972466  51.0880661  13.1875117  28.7713575  51.6549969
  84.0516472  23.8112831  63.4984350  84.9748993  23.6115980  63.6532545
  83.8605595  24.5367765  64.0928888   2.8223689  50.3004551  41.0589361
   2.1243175  50.9346485  40.8953667   2.4436076  49.6835852  41.6852283
   8.1672366  38.6986399  79.3755913   7.6586421  37.8902626  79.3116236
   8.2955726  38.8271332  80.3154087   7.6933845  14.7674227  70.1039124
   8.4638866  14.2012870  70.0586319   7.9843219  15.5281150  70.6068373
  91.4986610  30.0752354  47.7468204  91.0645962  30.8668137  48.0649757
  90.9510136  29.7772264  47.0205212   4.3023570  28.9679527  53.8118505
   5.1611980  29.2201138  53.4726858   3.6828407  29.5063424  53.3193302
  74.9700538  97.5458930  63.9476538  75.8620826  97.2074885  63.8702393
  74.4653312  96.8124909  64.2992306  19.5670684  40.8915186  55.0306892
  19.2410167  41.2274599  54.1957808  18.8436015  40.3696823  55.3778410
   5.3369506  35.2019382   5.7954770   4.9103339  35.8500624   5.2349693
   5.4466708  34.4346738   5.2337855 103.5101032 101.9351101  79.3058443
 103.1833267 101.1266041  79.7005224 104.4244289 101.9852161  79.5846319
  98.1332970  50.3176308  41.2230206  98.1320381  51.1330318  41.7243767
  98.5643673  50.5438662  40.3988695 107.4742985  59.8260450  25.1625133
 107.9005623  59.0755749  25.5764294 106.8342113  60.1243544  25.8086777
  10.4779609  26.1680937  63.1435680  10.7225974  27.0897365  63.2270098
  10.9857925  25.8522153  62.3961973   8.7634834  21.9052792  46.0080147
   9.4310268  21.7526674  45.3391886   8.7475761  22.8560090  46.1179829
 104.0030193  25.8303618  28.4744048 104.7990894  26.2831354  28.1960368
 104.3042564  24.9654865  28.7527490  69.7984211  96.0232110  37.8481841
  69.5079795  95.7981230  36.9643235  69.4882671  95.3003169  38.3935833
  49.3099681 101.4261315  39.9288678  49.1479770 101.1869155  39.0163064
  50.1166431 100.9645552  40.1578999  86.9816875   1.2689768  52.8722715
  86.3393307   0.9306377  53.4960747  86.5000725   1.3417590  52.0482731
  92.8921223  20.1626325  42.0464134  92.5749683  19.7407627  42.8449583
  92.2415829  20.8391333  41.8583345   8.2538779   3.9286062  22.9707050
   8.9007743   4.0282932  23.6691451   7.7342208   3.1684843  23.2322526
  21.4501365  14.5629585  14.2610610  21.2739165  15.2985609  14.8476326
  22.2517856  14.8106837  13.8003790  67.2622482 100.3913092  32.7777171
  68.0114070  99.8232760  32.5979137  66.5902130  99.8008163  33.1181788
  33.1996425  15.8451605  82.3363972  34.1265567  15.9920597  82.5247574
  32.7682861  16.6543937  82.6108170   0.8429503 101.5338292  29.3674874
   0.8913016 101.3745584  30.3101063   0.6433940 100.6772441  28.9897728
  76.2609386   2.3049732   2.8949556  77.1101093   2.5831842   2.5518182
  76.1891270   1.3852446   2.6396641  79.1740847   5.5650169  74.0730238
  79.7985172   6.2853873  73.9871264  78.7258005   5.5345684  73.2278299
  71.3217258   2.3804910  62.1085787  71.0183764   1.5110350  62.3698425
  70.5377436   2.8179207  61.7765236  10.0714000  37.5483727  41.0673857
  10.9011157  37.0855665  40.9506702   9.6827682  37.5675559  40.1928473
 104.0920544   8.3846641   5.6187701 104.7567558   8.1625485   4.9668005
 103.9650154   7.5767523   6.1161351  -0.1635186   1.8067139   5.5230141
  -0.3020493   0.9848572   5.9937507   0.7419379   1.7574787   5.2164900
  85.5696201  37.9454756  51.8391657  86.0951710  38.6233902  52.2639656
  85.0522137  38.4173346  51.1865759 100.6136227  42.4931669  77.7836466
 100.7482147  43.4071732  77.5332403 101.4876175  42.1759558  78.0111074
   4.9032767   9.2697197  38.3874846   5.4528411   9.9479127  37.9947090
   4.5383533   9.6811235  39.1709447  60.5033008 101.1368649  68.3740950
  60.6623546 101.9788731  68.8006592  59.7154514 101.2792023  67.8494358
  86.1100006   7.2715187  73.0166197  85.7730198   8.1664413  72.9742670
  86.6675854   7.2621095  73.7945890  86.9469261  11.9445002  35.9428883
  87.1483707  12.6718843  36.5315866  86.3795376  12.3277891  35.2740145
 106.3807392  25.8222175  -0.2879287 107.2142124  25.5437827   0.0915824
 105.8073425  25.9574628   0.4664923  55.9379093  92.5201679  77.5317001
  55.6633560  92.5430185  76.6150045  55.9386341  93.4376854  77.8044510
  94.6873569   4.0962827  41.1901760  94.0884876   4.8083264  41.4150810
  95.3943920   4.1663697  41.8315887  76.0490179  29.8369169  73.0391550
  75.2522326  30.2807403  72.7486563  76.6937876  30.0329638  72.3593950
  36.4455302  50.8794689  71.5973186  37.3665889  50.8188963  71.3439131
  36.3258250  50.1758385  72.2351313  10.5544170  53.0865812  38.6521077
  10.1595481  52.2750807  38.9711308  10.0996574  53.2669401  37.8293705
  90.9370899  18.5522962  43.6485815  90.3135014  19.0485847  44.1787386
  91.2592316  17.8681827  44.2354727  64.2641918 101.5053155  27.0959187
  64.0430442 101.4783249  26.1650062  64.7974006 100.7232173  27.2382045
  80.4541397  44.6687365  51.9743443  81.1408997  44.0319586  52.1720982
  79.8732138  44.2130566  51.3651466 101.0266972  31.5156150  72.8463411
 101.5937042  31.1157799  73.5057831 100.9146500  30.8352041  72.1824741
   8.0167468  41.2661409  62.8278875   7.1346648  41.6228485  62.9324055
   8.5838397  42.0364141  62.7915287  83.0928707  10.9207141  34.1154981
  82.7860069  10.4578972  34.8951554  82.9903126  11.8476140  34.3313026
  78.6149693  19.0858853  42.6322937  78.8737965  20.0074244  42.6304483
  78.5651779  18.8529444  43.5593796  52.3789016  81.1637814  36.9465232
  52.1374408  80.5418546  36.2601280  53.1248466  81.6421706  36.5846634
  91.1273670   7.7304310  28.0276275  91.9552422   7.7786607  28.5056782
  90.7784462   8.6210895  28.0624485   0.8471656 100.9107779  35.2555013
   1.4198947 101.5370191  34.8127389   0.5255198 101.3821739  36.0239816
  27.6209434  26.4855242  14.1430223  26.8828853  27.0240760  13.8576019
  28.1367286  27.0642591  14.7045040  95.1946163  11.2985408  60.1370144
  94.8631096  11.9709504  59.5418692  95.6573868  11.7877996  60.8172369
 106.1571407  23.8439679   7.0472157 105.6742668  23.6328912   6.2481475
 106.5160847  23.0058265   7.3386151  17.7583106  32.5768876  49.3172312
  18.4691127  33.0501819  49.7496414  18.1348212  32.2858119  48.4867191
   5.8072932  61.0114813  15.9354949   6.5551837  60.5103207  15.6103337
   5.0500472  60.6232786  15.4971850  85.5995369   6.0662580  42.2480106
  85.6674767   5.9524673  41.3000298  85.9459877   5.2517694  42.6124477
  87.9272556  27.2263789  41.2446260  87.3257160  26.5178370  41.0158348
  88.5335445  26.8326306  41.8720102 104.2370319   8.8039821  39.8455215
 104.3097115   9.0244353  40.7741499 103.8962078   9.5994401  39.4364762
 107.3431683  34.2672515  53.5826921 106.7272568  34.8072720  54.0779400
 107.5197411  34.7721171  52.7888680  68.5592699  11.5234923  50.3330278
  68.4290552  12.2448230  50.9486246  69.3554258  11.0886860  50.6385040
  44.1464512  57.9639257   1.1426622  45.0898353  57.8871585   1.2853319
  43.7546913  57.4545701   1.8521101  77.1046400  17.0099950  54.4254398
  77.8960896  17.3500896  54.8427868  77.4236155  16.3534153  53.8062572
  32.3102935  61.7230272  40.3100920  32.2426685  62.5856638  40.7193708
  32.7521785  61.1815786  40.9641600  89.8402691  31.9877052  49.7953176
  90.6705666  32.4269104  49.9795103  89.8477745  31.2147570  50.3598785
  87.0122147  25.1771712  57.1936989  86.5406895  25.1710510  56.3607216
  86.3877583  25.5437469  57.8197241  89.2330360  48.3101225  50.5999660
  89.5147419  48.7409401  51.4069796  89.1146183  47.3929262  50.8468533
   9.1695197  18.9441025  70.9436655   8.5438045  19.1286302  70.2432013
   8.7610419  18.2427514  71.4510965   0.1680453   0.2312288  32.7046919
   0.9826358  -0.2044538  32.4540043   0.1173480   0.9940612  32.1287179
 107.4701023   2.6010424  68.5040236 106.7286873   3.1465513  68.7666273
 107.3384953   1.7765562  68.9721394  78.7422228  19.0904713  19.2583621
  77.8456688  18.7558234  19.2790580  78.7672186  19.7513843  19.9503160
  47.4974624  91.9960124  28.7727761  47.8127567  91.1450703  28.4682846
  47.4574081  92.5336171  27.9818225 104.4663048  25.8027339  35.4041147
 104.7751522  24.9273872  35.6378174 104.0565586  25.6910467  34.5462894
  96.5930748  46.3283396  28.0312133  97.0059872  47.0930481  28.4324121
  96.7633247  45.6143045  28.6455464  19.6986477  44.4679387   7.0396406
  19.8560993  43.5270156   7.1177656  18.9987461  44.6466239   7.6676828
 101.8442917  10.9070992  42.8247499 101.7521858  10.6784391  41.8998384
 101.0393047  10.5870318  43.2319117  88.2095051  12.9193640  57.7456045
  87.6367664  13.4100842  58.3350134  88.4721565  12.1506417  58.2518721
  95.3730488   4.0227684  63.1862879  94.8594952   4.1369539  62.3866272
  95.0387859   3.2130095  63.5720253  24.9784454  31.2279916  80.3437996
  24.2123779  31.4665961  80.8657551  25.1838954  30.3333259  80.6150818
  81.0600177 101.0963320  52.8020239  81.5527622 101.1126616  53.6224937
  80.7033531 101.9807297  52.7191973  87.9211712   9.6221781  56.3619232
  87.5344372   8.7506634  56.2775135  88.8623619   9.4611114  56.4286995
  96.9498253  50.5840874  30.2206874  97.1217728  50.6971550  31.1555028
  96.0414124  50.8642101  30.1086545 106.0709095  16.5597713  78.6052799
 105.8041382  16.6131759  77.6875544 105.8150196  15.6787121  78.8782024
  66.7636204   9.2650056  39.8002648  66.1349916   9.0740418  40.4963875
  66.7846251   8.4676158  39.2711496   9.6453746  36.6975260  38.4319782
   9.1967281  35.8527327  38.4676242   9.7307475  36.8841147  37.4970293
  27.9781135  27.1346474  60.6129503  28.7021526  26.5193439  60.7287407
  27.4634441  26.7664719  59.8947668  69.0908146  15.6165862  24.7148156
  69.9183130  15.4640603  25.1711178  69.2950058  16.2917721  24.0677738
  11.0539802  47.0894480  43.2263422  11.4800437  47.4975204  42.4725676
  10.6176742  47.8132725  43.6757374  87.7851963  11.4708388  61.6965294
  88.0771065  12.3797774  61.7661428  87.7255344  11.1683643  62.6027203
 105.7690334  43.3712292  63.2579708 105.8255482  43.6796618  62.3535919
 104.8616886  43.5395765  63.5121822  22.9016956   6.1622995  22.2144842
  22.1557792   6.5418959  22.6789665  22.5280173   5.8152151  21.4044642
  49.6615116  96.9749320  63.3948565  48.8511554  97.4842853  63.3839798
  50.1708690  97.3195232  62.6613379   2.2753413  15.8017898  41.0498238
   1.9774135  16.5196729  41.6085005   2.8105910  15.2561498  41.6260242
  95.1046658  52.2110605  76.9113827  95.9517479  51.8546438  76.6437054
  94.7030354  52.5119305  76.0962725  91.7635441  50.0148678  37.4058294
  91.8114948  49.3704891  38.1120205  91.6720676  49.4913626  36.6097116
  14.0401443  55.5359936  40.6983805  14.1741069  56.0375261  41.5025902
  13.4595283  56.0827303  40.1690578 101.8017387  42.1298122   8.9446950
 102.2637177  41.9529343   8.1252319 102.4877548  42.1251440   9.6122205
  20.5715450   3.7005019  75.2137375  20.7828887   4.6337554  75.1891804
  20.2597221   3.5489371  76.1059427  16.3314569  56.8754911  46.8178988
  15.3829861  56.9783926  46.8956614  16.6197085  57.6587009  46.3491440
  68.8597973  93.7622465  15.7405740  68.6180600  93.3648123  16.5771467
  69.8007711  93.6045660  15.6635267  67.7510150   7.7655322   9.5091993
  67.3152108   7.1597297   8.9097768  67.0747362   8.4025819   9.7395116
  45.2660861  84.2183699  12.8486997  45.1602682  83.3295740  12.5094778
  45.5205663  84.0968932  13.7634260 105.0304453  19.3677247  79.3101501
 104.8285479  18.6881459  78.6670017 104.2130340  19.4912994  79.7926426
  16.0606420  50.7985353  86.5203667  15.5274642  51.5597391  86.7495441
  15.6325996  50.0647354  86.9614410  89.5528929  27.5789697   7.9003698
  88.6945586  27.8028399   7.5406820  89.3909602  26.8083197   8.4445268
  94.0053050   3.0439002  19.2906457  93.1240527   3.3870417  19.4385797
  94.4930117   3.2893521  20.0768549  77.1535023  90.7886518   3.6254293
  77.8872212  90.1940073   3.7812501  76.9216403  91.1158575   4.4945699
  75.1140245  97.8257193   0.1047403  74.1754993  97.6603760   0.1945287
  75.5303677  97.0337833   0.4449350 103.6452596   7.6966531   9.2417127
 102.9566543   7.8506429   8.5949213 103.3285324   8.1270701  10.0358469
  25.2094769  59.0633774  76.1984444  25.5857873  58.1837559  76.1686563
  25.8263659  59.6046114  75.7057524  14.7621393  13.1349761  26.1577684
  14.9624396  13.1677300  27.0932085  13.8096953  13.2194478  26.1136705
  45.2552032  31.2895417  82.5491428  45.6839275  31.3114858  81.6936111
  45.5448866  32.0921612  82.9828739  27.9278088  47.2904921  83.8823128
  28.8138747  47.3466730  84.2400360  27.9251313  47.9081297  83.1510544
   3.1386495  33.2689769  23.7370378   3.2716060  32.3310668  23.5996419
   3.8495970  33.6855513  23.2499486  65.1641520  91.1777653  21.5537054
  65.3273042  90.9267677  20.6445200  66.0363921  91.2972797  21.9293958
  78.2763394  92.4767221  29.5434457  78.9631423  92.9882921  29.9710256
  78.6796864  91.6243280  29.3792135  21.4066935  42.8768253  69.4281387
  21.2018561  42.5651646  68.5465860  21.0982418  42.1792603  70.0064898
 107.8912730  56.3603067  78.0182934 107.3479497  55.5722523  78.0195808
 107.5330441  56.8970490  77.3113203  18.2380315  89.2854155   5.6340009
  17.5379523  89.9229421   5.4936964  17.7812382  88.4615482   5.8037359
  76.1355408  86.8875112  17.8478509  75.5600341  87.2646035  17.1823961
  77.0003422  86.8756284  17.4377233 102.4314944   6.6138512  29.9551565
 102.6425878   6.9108874  29.0700418 101.4795534   6.6947324  30.0142843
  19.9537182  16.3460166  22.3356420  19.7694206  16.3621146  23.2747919
  19.1698361  16.7178876  21.9313222  83.8994221   0.7237012  24.5921594
  82.9584472   0.8610732  24.7013742  84.1465442   1.3136823  23.8800603
  89.3872841  87.9920043   5.4108507  89.0763911  88.8893117   5.2907831
  90.2876862  88.0899180   5.7205755  94.7134630  33.2061202  24.3111211
  94.5472924  33.3192355  23.3752710  94.2369692  33.9243132  24.7275144
  29.1300249   8.5007388  30.6210977  29.8970556   7.9284388  30.6018335
  28.3886814   7.9042394  30.7251722  45.6291437  58.5412884  85.0266933
  45.1994705  58.9371490  84.2684650  45.0126648  58.6727667  85.7470417
  34.4505095  19.7685659  55.1742315  33.9187813  20.1126432  54.4565248
  34.4539976  20.4688358  55.8267975  23.9060235  63.9922953  74.6312475
  24.2199564  63.5132408  73.8643169  23.6681724  64.8557520  74.2934704
  21.7603334  86.5312613   8.0474836  21.8114038  86.0994901   8.9002401
  21.2757131  87.3391808   8.2167226  98.7573163  29.5333392   8.4609491
  97.8674070  29.3583114   8.1549150  98.6800067  29.5692832   9.4143468
   3.5546994   3.3375079  23.4103090   4.3592692   3.1764275  23.9032156
   3.0522156   2.5278432  23.5008031  25.9877872  51.5240097  81.4960098
  25.0644708  51.3088512  81.3640118  26.1293483  52.3077917  80.9650898
  50.1542207  90.1140918  28.1567651  50.9048542  90.3847231  27.6280481
  49.8974439  89.2670740  27.7922708 105.0123589  26.7507512  15.6617433
 105.4232566  26.6343791  14.8050958 104.4955222  25.9552724  15.7895261
  66.2141657  27.8913784  84.4617367  65.6957769  28.0786920  83.6791611
  65.5757380  27.5787759  85.1027679  99.9485199   6.8872792  21.3383085
  99.1392056   6.3766868  21.3151151 100.2863328   6.7605597  22.2249109
  28.8308930  15.2322865  77.9029131  29.1359425  16.0015595  78.3839512
  28.2979846  15.5897248  77.1926451  11.4863396  62.0523167  74.0241003
  11.2605929  61.7399836  73.1479073  10.6424618  62.2241879  74.4419098
  24.1734171  44.5318651  82.6102352  23.4091997  44.3068600  83.1408691
  23.8073087  44.8337078  81.7789173  83.4930333  75.4825939  10.2593786
  83.7112769  75.8113231  11.1314661  84.3390187  75.2720679   9.8641378
   3.6234793  62.6407003  82.3630905   3.9368653  62.4233580  81.4851475
   4.3365002  62.3759985  82.9442692  91.2507113  95.9058012  10.1183015
  90.8167466  95.1921953   9.6506864  91.6314848  96.4481415   9.4275743
  23.3196402  12.3664386   4.3165761  22.9617691  12.3800952   3.4288961
  22.7358437  12.9347999   4.8189527  39.7119951  59.7120523  84.5900631
  40.2673483  59.4359446  85.3191566  39.3261933  60.5379009  84.8822308
  87.0811216  16.0432488  30.4071218  86.3894813  15.5434329  29.9734766
  86.7986791  16.1008508  31.3198930  51.3038921  52.0093822  84.4878960
  51.7354107  51.4278126  85.1138401  50.7570219  51.4285278  83.9589596
  16.7680359  54.1054344  79.6561146  15.9570706  54.1197634  80.1644039
  17.1820521  53.2744312  79.8890448  14.0192223  20.4457433   5.9080583
  13.7741518  20.9883267   5.1585466  13.6065054  19.5993668   5.7361776
 100.7394235   6.2663371  15.2732069  99.7823469   6.2515504  15.2777654
 100.9780685   6.5921933  16.1410123  24.9766874  18.2166488  29.2757780
  24.1127920  18.4133298  28.9135152  25.5914164  18.6081082  28.6552125
  61.5138340   1.0960681  12.1871072  62.0625973   0.3140790  12.2469598
  61.8333531   1.6669471  12.8858453  87.4776678  18.2589347  37.8687841
  86.9222979  19.0188605  37.6946718  87.7122156  17.9298598  37.0010644
  59.7376021  97.8993143  10.2520258  59.6549662  98.3237947   9.3980772
  60.4282053  97.2478784  10.1298505  49.8748922  84.9346638  82.9135418
  49.4669819  85.7963181  82.9995537  49.5288038  84.5868015  82.0916843
 105.1938645   5.3686149  36.5190488 104.8589365   6.2354476  36.7485220
 104.9857180   5.2696568  35.5900079   6.4006615   8.9810187   9.9722368
   6.5591908   8.6357552   9.0936643   7.2701883   9.0353925  10.3687173
  14.8805428  18.0214364  15.3045064  15.2264786  17.6789386  16.1286718
  15.0425625  17.3244960  14.6687013   8.6632633  13.3646304   3.9122564
   7.7932882  13.2908637   4.3046075   8.6363840  14.1868598   3.4229261
  94.7238748   5.3193766  36.1330682  95.0192229   5.1950604  37.0350343
  93.7953369   5.0875813  36.1509878 100.2803747  26.8516547   6.9479162
  99.7953336  27.6688964   6.8335420 100.1756041  26.3923270   6.1146814
  14.9262357  64.1121674  65.4071283  15.1943600  64.0259027  66.3219500
  14.8496556  65.0560951  65.2679729  47.2677612  56.6127157  86.6344452
  46.7740297  56.1375475  85.9661102  47.6981974  55.9279442  87.1463490
  54.6631177  95.0131859  38.6004907  54.7487184  94.4288315  39.3537694
  53.7700101  95.3522600  38.6606676   4.6016216   8.6574656  34.6919138
   4.2352867   7.8710515  34.2874700   4.3042755   8.6199719  35.6009943
  66.3837632  99.6502270   8.0191690  66.7858633 100.3692211   7.5317270
  65.8876952 100.0808062   8.7154085  29.6398211   0.5997378   7.5135976
  29.1968250   1.3753039   7.1693784  29.1551161   0.3804500   8.3093435
  41.1265816  87.2793259   5.4263765  40.9486478  86.6054954   6.0825140
  40.3549983  87.8453459   5.4490072  56.5918636  85.6736755  70.2875376
  57.1082354  85.7526398  71.0896301  57.1599245  85.1960754  69.6830225
  71.1240779  14.9426848   3.1829626  71.4225753  14.4008452   2.4525243
  70.1986028  15.1037509   2.9991514   8.1022823  51.4014053  85.0332451
   8.6966521  51.7543459  84.3711376   7.4007916  52.0496988  85.0953579
  91.2914936  28.6421830  31.0662538  92.1338407  28.6913831  30.6142980
  90.9853522  27.7495725  30.9057695  46.2656613  77.5359906   9.7313577
  45.9578022  78.2420505   9.1630823  47.0921870  77.2554387   9.3384534
  99.3471496   7.8953320  33.1186468 100.0458662   7.2478301  33.0250341
  99.7484223   8.7214238  32.8488618  73.6300071  90.2347411   3.7416059
  74.4819959  90.0456704   3.3484155  73.0524477  90.3961886   2.9955560
  17.3868323  39.9057395  24.3125040  17.3203850  40.5089862  23.5722906
  16.8798018  39.1397292  24.0434724  80.7753376   5.0746257   5.2808744
  81.1279981   5.2384431   6.1555368  81.2937824   4.3426043   4.9468309
  82.1718701 101.1182798  23.0303747  81.8574866 100.9312405  23.9149076
  83.1166466 101.2340702  23.1314642  71.7080077  92.1782602  14.5027906
  71.7206820  92.3365845  15.4467184  72.3757394  92.7676453  14.1520864
 104.6468870  23.1001193   5.0420076 105.0087850  23.3320910   4.1867620
 104.2677323  22.2306163   4.9137956 105.7288758  18.3396155  13.3735830
 104.8861806  18.5813243  12.9892999 106.2581222  18.0529696  12.6292974
  64.9007996 101.1896290   9.6262056  64.6855005 102.0719637   9.3239290
  64.2203649 100.9833015  10.2670366  35.5413490  98.5481037  11.2700540
  35.4934818  97.6825394  11.6759378  36.1817637  98.4473194  10.5658227
  41.2943840  54.5299673  46.8297338  42.1209621  54.9633169  47.0423698
  41.5547848  53.7125969  46.4050913  96.9222204  26.5233714  18.2902509
  96.8727009  26.0519082  19.1218168  97.7573530  26.9895417  18.3285886
  28.1100750  49.4332409  81.9046974  27.7846456  50.3157806  82.0820522
  28.7826800  49.5561075  81.2348175 107.0597164  17.1652514  17.1254140
 106.3346498  16.9457681  16.5403158 106.9924776  18.1125409  17.2452241
  66.1523684  67.8961266  20.8227426  66.5646871  68.7549020  20.9161741
  65.4410442  68.0386247  20.1982862  56.4404996  49.7690788  10.1576120
  56.4333781  48.8535450  10.4368574  55.9744497  50.2348854  10.8519060
  17.5413037  15.4663092   2.7551061  18.4430075  15.1489741   2.8046686
  17.2297096  15.4446990   3.6599046  24.9048090  15.2991158   5.5023939
  24.1422367  15.3809459   4.9296648  25.2361250  16.1929376   5.5892545
  74.2994881  65.7795954  87.7333927  74.3946791  66.6245413  88.1729794
  75.1410675  65.3436995  87.8674507  57.0682319  83.2541503  21.8445665
  57.1092065  82.6924647  21.0705740  56.3868268  82.8610982  22.3899347
  88.6357125  85.3181757  19.3438608  89.1910418  85.1823510  18.5761434
  89.0808733  86.0026730  19.8433954   2.2345519  17.2405011  23.4682828
   2.3197270  16.3432891  23.7907487   1.5772128  17.1843631  22.7747518
  68.3408841  51.5682216  36.4631158  68.4763773  52.0556211  37.2757131
  67.6378735  52.0392080  36.0156995  30.7408094  60.6693792  70.9792566
  31.0155034  60.4687548  71.8739748  31.2847757  61.4141417  70.7230091
  19.1341507  38.6607361  75.3045273  18.4312904  38.2326365  74.8157024
  18.7470615  39.4802523  75.6124020  28.0083680  33.5808444  36.9940758
  27.5425076  33.7980580  36.1865973  27.5749111  32.7902079  37.3153901
  93.6716525  11.3558919   9.8427850  93.5363118  10.4858167  10.2181226
  93.4947984  11.2439639   8.9087469  29.4569850  45.5214977  63.1228352
  29.8476648  46.3676834  62.9047394  30.0085068  44.8803711  62.6744938
  75.2174862  83.0495705  35.7730752  76.1178645  82.9635586  35.4597932
  75.2580651  82.7886166  36.6931230  22.9519105  87.1289444  79.8553705
  23.8726473  87.3577118  79.9824142  22.6057959  87.0274353  80.7420158
  31.8124413  78.0087233  81.3551235  32.5034451  78.3512449  81.9220638
  31.4866400  77.2351503  81.8151951 103.5824598  16.6877997  86.2480354
 102.9808984  16.2100971  86.8191338 103.8324915  16.0516977  85.5778885
  58.3973583  83.1468595   3.1832201  58.7351235  82.3308124   2.8141481
  58.2688817  83.7173547   2.4254209  51.7042144 101.2135090  18.8704950
  52.1371289 100.3602375  18.8432294  51.4654168 101.3316597  19.7898656
  26.2946320   8.7910039   3.4583932  25.4172802   9.1667754   3.3857042
  26.7800284   9.1727454   2.7270204  93.5613307  92.3320831   0.2711755
  93.4207495  91.7607082   1.0261518  93.3290299  93.2058395   0.5855161
  19.6585596   9.7015023  86.3119221  20.4785872   9.2306519  86.1633110
  19.0288520   9.0187138  86.5432262  83.9982264   9.1779954   3.2858068
  84.2544047   9.7053582   2.5291711  83.1475620   9.5308644   3.5467321
  19.0121412  94.9655533  84.9766541  19.8021710  94.5443916  85.3153324
  18.5851049  94.2876625  84.4528770  22.4480105   0.1419312   4.3670351
  22.2194481  -0.0094598   5.2841360  21.6096687   0.3060920   3.9352209
  10.5105639   0.6140429  47.2653467  10.0274038   0.9202821  48.0328161
   9.8354626   0.4511840  46.6065961  67.0295270  95.9070553  32.6887781
  66.4634760  96.6789450  32.6909811  66.8914207  95.5063166  33.5470087
  71.1709436  83.4610785  40.0859052  71.6905387  83.7967504  39.3554479
  71.6815027  83.6825336  40.8647043  13.8837397  74.6267080  86.8615818
  13.3163881  75.1061106  86.2578297  13.6185884  73.7121248  86.7642593
  27.3840761  67.3760176  87.5870991  26.4990020  67.6312447  87.8473568
  27.5273156  66.5339470  88.0191135  13.5407162  71.6819906  86.3913441
  13.4992659  71.3845491  85.4824829  12.9035783  71.1355734  86.8514729
  25.8526182  45.8563716  19.8526365  25.4957342  45.3450400  19.1264135
  25.1693583  46.4958197  20.0538618  52.1548128  61.0909843  85.6122112
  51.9480705  60.6965494  84.7649193  51.8675375  60.4423475  86.2548447
  61.8782377  94.0939617  75.9552526  61.3032484  94.5855713  75.3687906
  61.7488146  93.1788921  75.7059956   9.5164824   1.7683894  24.2819482
   8.5956669   1.6380317  24.0553648   9.8903465   0.8872229  24.2813474
  26.4958954  78.0789900  84.5373440  26.5613580  77.7450466  85.4320145
  26.7760897  78.9920187  84.6013927  15.9409237  21.7994410  44.8295194
  14.9942684  21.6757876  44.8987466  16.3139391  21.0928876  45.3566534
  27.5301600   9.8567302  37.1685010  27.1062327   9.2664916  36.5455038
  27.5695467  10.6976706  36.7129785   0.2709603  24.2540652   0.7800752
   0.9034896  23.7195689   0.3000146  -0.5464101  23.7581784   0.7327825
  88.5200934  22.9890925  26.7157251  88.6269395  23.2799489  27.6213914
  88.4561293  22.0359475  26.7762357  82.7594904  14.9175555  17.7337152
  82.0166699  14.6172196  17.2100240  83.5295526  14.6608598  17.2264272
  17.6611471  17.1916825  38.2617170  18.5794211  17.0881087  38.5112745
  17.1963549  16.5355021  38.7809736   4.6043921  23.2296998  15.6416494
   5.5227280  23.0075747  15.7951051   4.5630789  23.4477717  14.7105390
  81.1395033  91.2416948  40.1079446  80.6855734  91.7083849  39.4062406
  80.5655201  90.5043663  40.3155881   9.0469456  80.6172473  25.4763299
   9.2153454  80.3278834  24.5795900   9.8253489  80.3492076  25.9646589
  85.4057463  79.2089857  32.8407651  85.5787428  80.0672401  33.2276804
  86.0902794  79.1016020  32.1803743  61.7964475  21.1994988  47.8279001
  62.5326530  21.7979581  47.9547197  61.0208468  21.7354066  47.9936677
   4.3012095  48.3348281  21.5087301   3.6073375  48.8397509  21.9327814
   3.9177823  47.4684626  21.3722879  54.8679408  98.0284847   4.1838342
  54.3739613  98.3569397   3.4326154  55.7706924  97.9719223   3.8706666
  81.7549191  47.5254828  10.3033525  81.7589967  47.9236228  11.1738187
  81.2356882  46.7280776  10.4071313  84.5463066  25.7171161  14.7018606
  83.6406676  25.9395415  14.4860345  84.5328669  25.5452592  15.6434137
  87.5733511  60.9463889   6.7199308  88.0093483  60.1084048   6.8746072
  87.5000576  61.0060222   5.7674104 102.2554438  13.4119040  42.5064546
 101.4560954  13.8579852  42.7862436 102.1796052  12.5314147  42.8741724
   2.5179362  29.3512732  14.7869474   2.6026082  29.5377356  15.7219869
   3.3557820  29.6224315  14.4118196  58.5556507  79.4537973  83.8003922
  59.1675997  80.1878738  83.7467098  58.3631325  79.2352962  82.8885651
  35.3664684  66.7687845  84.8761272  35.4412508  67.4340820  85.5602455
  34.5270038  66.9522381  84.4543743  45.2622700  52.9990680  18.3096677
  46.1269570  52.5894172  18.3366758  44.7345162  52.4850375  18.9207918
   4.3672466  16.5909535  30.3608495   5.2856302  16.5192658  30.1007158
   4.1367817  17.5017316  30.1775342 100.7614700   6.7270476  23.8948137
 100.9253304   7.6099975  24.2261488 100.7396738   6.1774594  24.6782095
  96.4638273  29.6505839  40.9930021  96.4241330  30.1689536  41.7967111
  96.6540520  30.2888400  40.3054887  47.5374317  81.1141014  63.0041552
  47.9259157  80.3137016  63.3572340  47.6455736  81.0349369  62.0563841
  98.4730927  47.4762160  15.6596071  98.1839506  47.5681025  16.5674478
  99.4280974  47.5206668  15.7067377   1.0589647   5.2991635  28.8295919
   0.4049635   5.2020985  28.1374246   1.8461394   4.8858125  28.4750062
  78.9530373  31.6682839  77.6677847  79.7392845  32.0551753  77.2826099
  78.2696104  31.8131399  77.0134354  85.4238836  22.4095780  16.5875322
  85.3793494  23.3654649  16.6104776  85.1610903  22.1363980  17.4664861
  70.2783362   3.8461930  20.1848108  71.0745633   4.2498261  20.5302602
  70.3444700   3.9592559  19.2366106  94.7920935  18.8433892  16.6966993
  95.5147664  19.4691808  16.7452699  95.0698273  18.2074744  16.0373765
  32.8264022  45.6403542  80.9395123  32.2690225  45.8339882  81.6932106
  32.2319078  45.2584124  80.2938175  86.7907993  47.1066863  11.4124662
  86.7272262  47.0879180  10.4575616  87.5238745  46.5255362  11.6151697
  90.5535583  13.1068332  45.5178625  90.9590296  13.0775649  46.3844472
  89.6570413  12.8042561  45.6625635  82.9718618  17.0317084  26.0659486
  82.1704094  16.7494637  25.6252176  83.5731308  16.2937505  25.9653265
  91.5116100  32.7136428  13.5562784  92.2164695  32.1618468  13.2172567
  91.9043831  33.1759459  14.2967111 101.9913809  29.3151576  31.0431177
 102.6855556  29.3854529  31.6984064 102.3801558  29.6694762  30.2434045
  29.7821522  31.2641246  34.8352796  30.0846768  32.1718413  34.8627836
  29.3203545  31.1907775  34.0000516  94.8267516  81.1927046  26.8969995
  94.9558314  80.2695192  27.1144849  95.2182873  81.6683687  27.6295835
   7.0477772  13.9478595   6.9775182   7.2461414  13.0171782   7.0810205
   6.1070252  13.9742619   6.8028432  65.2412748  95.7285881  82.5587749
  65.2336025  96.5900040  82.1414757  66.0747051  95.3406620  82.2920609
  94.2977945  14.8742349  12.9714662  94.4320003  14.0652806  13.4652406
  94.8273603  14.7635085  12.1818239   3.3163142   9.3184621   5.0732309
   2.6515269  10.0071484   5.0731069   3.1088329   8.7854154   5.8407194
  45.4229403  37.1366930  75.9822750  45.1402569  37.2047973  75.0703096
  46.2042189  37.6874161  76.0326242   7.2552157  40.8330256  10.5767900
   8.2098150  40.8203418  10.6461507   7.0846033  40.9805591   9.6465379
   1.8985462   9.2272097  23.7400800   2.1308637   8.8972241  22.8721124
   1.2320876   8.6178595  24.0574914  18.9394093   5.2055842  32.8038007
  19.4452906   5.1878077  33.6162073  19.4407606   4.6603734  32.1974832
 106.1000101  37.1156318  30.6096536 107.0369665  37.2616012  30.7401735
 105.8072440  37.8749091  30.1056367  89.0090184  25.9653861  37.4109346
  89.8116569  26.2897069  37.0025045  88.9833717  25.0358874  37.1837789
  19.5534659  26.9018132   0.3365594  19.5269728  26.4079387   1.1560804
  18.6338902  27.0547015   0.1192171 102.0176570  35.7855422  22.5848657
 101.3068025  36.3069922  22.2120267 101.5840904  35.0110537  22.9432184
  19.7489929  16.0669238  29.0313417  19.1863203  16.1325318  28.2597620
  19.6443129  16.9079120  29.4763261   0.7642675  18.9554412   3.9222414
   0.7000089  18.5517318   4.7877580   1.3847089  19.6749217   4.0390092
  22.9666281  56.4200599  11.8489343  22.7788544  57.0056826  12.5824338
  23.8728047  56.6166598  11.6113931  52.2575903  23.9157867  76.2560081
  52.5649548  23.7918377  75.3580141  52.2322655  23.0327320  76.6245270
  35.1321411  46.9454104  42.4665433  35.0137282  47.6188475  41.7967016
  35.4489899  47.4231440  43.2330972  49.7987032  50.2453661  86.6786861
  49.3492222  50.9346581  86.1897278  49.5673418  50.4102850  87.5927448
  38.2596302  37.6060302  18.2237226  37.7708435  37.4368007  19.0291387
  38.1186533  38.5365397  18.0490381  24.9424076  17.3710925   8.6101800
  24.0313912  17.1586949   8.8130933  25.1660919  18.0739266   9.2202741
  29.7997284  58.5805225  79.5720196  30.1274467  57.7296782  79.2806435
  29.1113281  58.7998438  78.9441395   3.7975359  32.8774554  61.5990430
   3.9144015  33.2182605  60.7122404   3.8349629  33.6520297  62.1601755
  89.8669271  23.1709153  17.4997598  89.8520605  22.9645831  16.5651781
  89.1876952  23.8364655  17.6089365  39.1431594  64.3437910  58.8274527
  40.0098896  64.3332481  59.2335367  39.1467476  63.5914373  58.2356930
   9.3990421   2.3531873  31.0278303   9.3530846   3.2639415  31.3187677
   8.5248137   2.1666915  30.6855184  52.0616349  17.7969306  87.7534294
  51.6112026  16.9760268  87.5548077  52.8744944  17.7520125  87.2499752
   3.9203620  13.4547717   5.9715730   3.5408759  14.3128163   5.7818777
   3.4579563  13.1562001   6.7546827 104.9609868  23.9525325  49.4628126
 104.0051453  24.0012032  49.4780046 105.1540892  23.0167205  49.5193750
 104.8659961  12.8175265  41.4670354 103.9816014  13.0337865  41.7625124
 105.1195352  12.0646674  42.0010263  14.8607350  22.0107562  33.8171751
  14.0609026  21.7616851  34.2802793  14.8118258  21.5406472  32.9848081
  22.9953861   2.8141076   0.3956586  23.4966326   3.2323701   1.0956842
  22.7142048   1.9786317   0.7686788  97.9736201  39.6601779  44.5498354
  98.2459156  39.2848594  43.7124521  98.6820309  40.2592284  44.7854692
   8.5968208  52.7688987  23.3152467   8.9453364  53.0215842  24.1701871
   8.7620402  53.5275847  22.7554971   2.0486140  25.5632789  62.2637731
   2.3076964  25.0584227  61.4929086   2.1779418  26.4762122  62.0067388
  61.4484934   9.6008450  14.2102796  62.2883813   9.8714167  13.8393194
  61.5551536   8.6663968  14.3882162 106.6454570  28.9589745   3.6104566
 107.5643246  28.7367541   3.4603387 106.6726462  29.8168857   4.0341074
  83.4108929   6.5217311   1.7447454  83.5306446   6.2321765   2.6492006
  83.3627717   7.4759395   1.8031198  98.6420552  17.2147328  34.3925649
  97.9937212  17.3426492  35.0850469  99.0680806  16.3864905  34.6133501
  54.3510723  52.5261641  87.5732422  53.9132595  51.7852592  87.1541786
  55.1357079  52.1476269  87.9698372  10.0792647  25.5301864   8.4741861
  10.9944248  25.5644709   8.1957227  10.0856638  25.8868081   9.3624479
  96.7311089  12.5936181   9.3284875  96.8253653  11.7051131   9.6718580
  96.0974972  12.5090844   8.6160070  68.8122873  46.5102965  18.1984598
  69.0143253  45.9405906  18.9406473  67.9716073  46.9085223  18.4240896
  90.7467087  96.8078722  45.4021246  90.2519854  96.0868086  45.7914144
  90.9660014  96.5004982  44.5225412  30.9698439  85.6568241  83.4348774
  31.7920232  86.1264992  83.5750961  30.4918599  85.7597542  84.2577839
  11.7314482  77.4623489  86.6340351  11.9734335  76.7498684  86.0423851
  11.1819410  78.0386209  86.1028194  11.5744686   7.3793418  29.0289957
  11.4359188   6.6123301  28.4733564  12.2951794   7.8507478  28.6111623
  74.5379118   2.5859744  34.9151403  75.2426456   3.1251628  35.2741128
  73.7551050   3.1310803  34.9945146  14.4961405   3.4828717  28.2280809
  13.6298561   3.3894402  28.6243803  15.0822926   3.6409575  28.9681226
   5.9168905  79.2249537  70.6417322   5.5387425  79.3579674  71.5109539
   5.2468503  78.7391472  70.1608229 102.4279325   3.5038192  14.9532301
 102.3406975   2.6034600  14.6402151 101.6660945   3.9575774  14.5927602
 105.5830519  17.2480018   5.4413301 106.4893286  17.4305446   5.1932031
 105.2440683  18.0896050   5.7463342  43.5987329  61.8860197  56.3842773
  44.0507984  62.5727272  55.8940697  43.8889360  62.0065451  57.2884274
 107.4679272  42.1124656  41.5352136 107.1789209  41.3767249  42.0750219
 108.3954851  42.2157103  41.7478258  42.2846031  45.1460409  77.7082014
  42.4783325  45.5932951  76.8843889  42.1645927  44.2292547  77.4605370
 105.9871022  51.0916240  31.3570291 106.6520922  51.7780215  31.4106256
 105.1663963  51.5361506  31.5693361  51.8934917  57.0603800  87.9931927
  52.4074841  56.2710524  87.8228951  51.7768097  57.4607372  87.1316051
  61.4170130  90.0463523  37.9922372  61.8269166  89.7367920  38.7999422
  60.8969506  89.3028344  37.6873666   0.5393911  21.3913495  32.1272928
   0.8963633  20.6290728  32.5830728   0.7755351  22.1345717  32.6823503
  59.2424917  92.2832680  74.7397852  59.8119545  92.5110722  74.0049076
  58.3776999  92.6009655  74.4800997  15.9471107  92.2275639  76.6434956
  15.2944744  92.3229504  77.3371792  15.6533170  91.4676285  76.1410904
  27.2404242   9.9728686   8.4359056  26.9922495   9.5622451   9.2641717
  26.5921545  10.6654555   8.3082277  95.7121031   9.6555192   0.8464891
  95.7649176   8.7159402   1.0215169  95.1782100   9.7220284   0.0548059
  40.1698303  95.0018787  85.4523754  40.4470682  95.9084034  85.3197193
  39.7317767  95.0074863  86.3034439  35.4015565  80.8150673  82.6059914
  35.2935338  81.6490841  82.1488571  36.0509157  80.3400517  82.0874119
  43.7659550  63.8474274  60.5205107  44.2402029  63.2448864  59.9475718
  43.2725096  63.2781076  61.1109495  66.5479136  57.9908466  88.0066872
  66.4582396  58.5282850  87.2196960  66.2841034  57.1136236  87.7289963
   0.3363705   0.9726245  21.5961439   0.9701348   1.3717801  21.0001165
  -0.5157804   1.1735017  21.2092191  76.1182173  87.0295133  13.6162168
  75.5852350  87.6423062  13.1096155  76.0570010  86.2043299  13.1350118
  38.9428902  10.1755340  12.8267080  38.3673620   9.4304854  12.9996187
  38.4364605  10.7385785  12.2412664  16.1513806  35.0824458  27.1230871
  15.9831333  35.5682856  26.3156873  16.5268803  34.2524249  26.8293363
  31.3983393   5.8961636  21.0285360  32.2130966   6.3755519  20.8782465
  30.9950400   6.3376767  21.7759592  90.7813696  39.4271476   0.2616769
  90.9374432  38.7368113   0.9061224  91.1886923  40.2057368   0.6413061
  67.6759052  45.1415586  87.9155922  67.4233150  45.1108932  86.9928360
  66.8681908  45.3658056  88.3776951   4.5976440  95.1070417  16.8300325
   5.1499359  95.8587517  17.0448190   4.2470972  95.3075756  15.9621984
  71.4955045  10.9331185  15.1795084  71.0922956  10.4029328  15.8669359
  71.9224686  11.6496617  15.6490785 104.3013246  58.8737726  77.8425455
 103.9717050  58.2454777  78.4850597 104.1263504  58.4640837  76.9953346
  52.0978355  66.1150503  86.2627316  52.3526239  65.7145214  87.0939350
  51.1625910  66.2942266  86.3599300  49.5677185  45.6464148  78.6084270
  48.6658621  45.3261185  78.6257601  49.9972773  45.1163435  77.9370594
  86.5409907  93.3364643   3.1797296  86.5377053  92.4174322   2.9121477
  85.6529006  93.4960903   3.4991724  78.2105826   6.4774901  16.2725812
  78.4147815   5.7915456  15.6369573  78.8002442   6.3067157  17.0069963
  19.2368841  44.6729476  29.5283014  19.5497990  44.9317748  28.6615163
  19.2469549  45.4829127  30.0382883  96.7435948  34.3570620  29.4876749
  97.3824160  33.7371737  29.1357214  97.2610919  34.9522693  30.0300485
  60.2160168  24.9447495  13.2142335  59.8344803  25.2330596  12.3850519
  59.4616032  24.7399814  13.7666494  73.6006220  96.7743648  43.9775735
  73.1998023  97.1254791  44.7727376  73.6315163  95.8286871  44.1223985
  71.1605835  95.6389141  61.9837093  71.4114714  95.5574894  62.9038477
  71.1020422  96.5825176  61.8340111  85.3588065  14.5562880  82.3087978
  85.1987084  13.8550895  82.9404068  84.7690924  14.3617385  81.5803623
  78.1267127  10.6416362  66.0661221  78.7094887   9.9342387  66.3421440
  78.0491599  11.2028830  66.8376303   9.3257236  47.6744604  82.4184322
   9.9502611  47.3877382  81.7521191   9.3433583  48.6301565  82.3677826
  89.5483474   2.5922686  49.2512113  90.3714482   2.1800334  49.5135099
  88.9759461   1.8599660  49.0224821  77.9809873  34.6084124  51.2004739
  77.8248994  35.5478675  51.1040956  77.4851386  34.3621070  51.9813043
  49.9052239  36.3352687  14.1822130  50.5139065  36.6996486  13.5395986
  50.2727413  36.5865523  15.0295717  55.0688573  99.2316402  20.8598310
  54.9220749  99.8130621  21.6059095  55.6232115  98.5325064  21.2064439
  48.7011608  96.6281761  15.3771287  47.9620930  97.2302689  15.4637033
  49.3060955  97.0750965  14.7850591  92.9971282  17.4470097   2.0899660
  93.5463516  16.9132192   2.6641256  92.7841107  18.2198769   2.6129705
  12.6099110  12.2372634  46.4815599  12.3524094  11.3774735  46.1488706
  12.1030378  12.3442656  47.2864610  60.6559992  61.2161160  76.4274836
  61.5473366  60.8671856  76.4278269  60.6510925  61.8599319  75.7191706
  14.1354180   3.4745509  19.0545160  13.6705160   2.7535588  18.6299402
  14.7012520   3.0485207  19.6983797  81.1415013  61.6835846   9.4984895
  80.2546509  61.6178121   9.1443712  81.3273724  62.6225354   9.5060140
  19.8846626  76.1395788  71.4032030  19.6276724  75.4082060  70.8417034
  20.6902647  75.8442402  71.8274784  59.5441198  83.3930111  78.1982613
  60.2290440  84.0609455  78.2294369  59.7930384  82.7629662  78.8745117
   6.6271305  69.9195773  36.3518507   7.5519228  70.0638968  36.1514360
   6.5564823  70.0884539  37.2913915  89.7984751  98.7034525   6.4345151
  88.9259966  98.7353672   6.8269426  89.7084340  98.0970205   5.6994230
  16.0885430  10.9436852  33.6457521  15.9291172  10.2858645  32.9689294
  16.8187094  10.5915362  34.1547567  19.9604941   1.2238509  15.4084951
  20.2655792   1.8506152  14.7525007  20.5061674   0.4493911  15.2718145
  13.1735802  26.8102891  22.7083856  14.0937615  27.0599563  22.6237852
  12.6882172  27.6001460  22.4700910   5.2697420  17.5937278   4.9595529
   6.1578036  17.4942929   5.3026182   4.8515988  18.2164676   5.5541784
   8.3106613  18.8335235   4.1300279   8.1649256  19.7099406   4.4862443
   9.0840674  18.5121638   4.5934946  19.3908739   8.4163434  11.7380601
  19.2021275   7.4795539  11.6830236  20.3361225   8.4786851  11.6007597
  40.0182915  61.5228128  86.9334221  40.4047537  62.3572493  86.6677189
  40.6227541  61.1772585  87.5902653  48.3156872  11.8470342  18.4984666
  48.4951019  11.1404950  19.1188222  47.5082493  12.2484595  18.8196260
  86.1043652 101.0580934  19.8869688  85.6874951 100.1981319  19.8329431
  85.6445797 101.5028347  20.5990297   0.7473222  78.0885352  12.9452306
   0.7977955  79.0391411  13.0453950   1.5545456  77.7625693  13.3431894
   9.4074392  30.0139434   2.5164682  10.1434040  29.6102816   2.9765111
   9.5387936  30.9548289   2.6335603 103.8198106  22.1520001   1.6909009
 103.3394472  21.6155726   1.0602457 103.3234016  22.9690940   1.7375261
 103.0009524  16.0151059  50.6561452 102.4403874  16.5079028  50.0568563
 102.4426620  15.8344943  51.4123994  91.8006341  33.6522490  16.8693048
  91.8550710  33.8233764  17.8095132  92.2779099  32.8315646  16.7471963
  85.4550139  12.5837380   4.2949087  84.9614028  13.3888728   4.4509107
  84.9563138  12.1241338   3.6194116 103.8334767  44.2446811  10.0721818
 103.0981318  44.7993094  10.3327352 104.5356385  44.8606116   9.8628408
  15.8579588  26.0158402  37.6155931  15.2671909  25.3161103  37.8941614
  15.8250523  25.9905440  36.6592866 104.0574543  14.2380912  14.0195734
 104.3424623  14.5254762  13.1521589 103.2312123  13.7815291  13.8611299
  55.1782799  90.6824970  66.9303465  55.3417397  91.5771770  66.6319275
  55.4329538  90.1325798  66.1894274   4.6582699   0.9332616  28.6348325
   4.7882366   0.1805074  29.2116243   3.9595914   1.4370639  29.0522748
   8.2745075  23.3137376   9.1374952   8.7539339  23.3216960   9.9659330
   8.4964085  24.1481740   8.7243253  26.2068987  32.1414096  13.1022340
  25.8701801  32.7838618  13.7268144  25.6160307  32.2044284  12.3518068
  82.9498490  98.5575594  44.1359407  82.0592555  98.8412346  43.9295370
  83.0047854  97.6679338  43.7869531  99.3828384   2.4615104  -0.0407237
  99.8351161   3.2979352   0.0691206  99.3703024   2.0789773   0.8366281
 104.0610306  33.0325133  58.8350565 103.2033150  32.6126201  58.9001829
 103.9185469  33.7793548  58.2535440  72.5899220  85.0182819  64.8948622
  72.6089907  85.0358677  63.9380169  73.1795788  85.7244492  65.1591921
   6.7916060  13.2290894  11.5242464   6.7884541  13.9450032  10.8888704
   7.2946119  13.5681970  12.2646696 107.3279230   9.7551448  15.2188283
 106.6193597   9.1328389  15.0547868 106.9583241  10.3799064  15.8427698
   8.4775734  11.6147620   0.1798517   7.5666857  11.8640525   0.3359682
   8.9230538  12.4407870  -0.0084609  63.6843189 101.5855326  15.5028039
  63.5787590 101.6176189  16.4536268  63.9338191 100.6796898  15.3199560
  40.0949192  93.4690762  69.3079853  40.5108500  94.2899513  69.0445471
  39.9755263  92.9875660  68.4893751   3.0191755  60.7131392  17.0773870
   2.8084994  60.1214797  17.7997285   3.9439297  60.5474860  16.8940240
  38.5093498  56.4086825  22.7063543  37.5739861  56.5501983  22.8523046
  38.9206362  56.6515738  23.5358602  10.5027628  22.3194892  36.4125330
  10.9547711  21.5699155  36.0251600  10.6354714  23.0297906  35.7847673
  23.8863897  36.2274176  14.5162279  24.2332363  37.0762736  14.2416841
  24.3053293  36.0591418  15.3602678  23.1942845  46.1438281  13.6476881
  22.3995924  46.0311801  14.1692239  23.4446955  47.0571334  13.7869150
  46.1491346  89.2934132  81.1573887  45.5772257  89.1855431  81.9173336
  46.0104895  90.1989555  80.8798981 106.1180751  31.8744189  38.9562303
 106.8271415  31.3118464  39.2676336 106.0105102  31.6366012  38.0353052
 100.1791779  53.0598361  53.5774213 100.2479832  52.4275977  52.8620416
 101.0232608  53.0070598  54.0257150  53.3723450  93.5294724  84.9065018
  53.3635235  94.1774559  84.2020321  52.8573799  92.7981186  84.5656776
   7.9493094  49.5450885  41.1828119   7.7147389  50.3013045  41.7207128
   7.8626347  48.7958342  41.7721635  29.2102838  55.4862118  80.1537228
  29.1278768  55.4893684  81.1073685  30.0711584  55.1015186  79.9889851
   0.3639245  25.4274995  16.8623239   1.3181663  25.4294354  16.7871744
   0.0538826  25.6382090  15.9815866  42.4752998  94.6686459  83.7310791
  42.9417849  95.5009270  83.8081169  41.6962290  94.7794056  84.2760658
  22.1530104  60.8606482  72.2762156  22.3237014  60.8393908  73.2178354
  21.2030911  60.7684231  72.2028542  28.3287644  72.2271347  78.2667017
  27.7464533  72.4907160  78.9792109  28.1276131  71.3024712  78.1226015
  35.9054041  25.7920033  16.4016038  36.4431715  25.4586989  17.1199018
  35.8743429  26.7379481  16.5446264   5.3476238  22.1664912  23.9803869
   5.1269579  22.0852286  24.9082548   6.2550497  21.8673188  23.9228994
  76.6692495  91.7076015  82.5740623  77.2641706  92.4437809  82.4314594
  76.8004751  91.4678288  83.4914112  86.8234674  24.5948035  13.7945920
  87.4903123  25.2726752  13.9043218  86.0137681  25.0036342  14.1003305
  74.9162443  18.1411416  28.9807016  74.6092842  19.0061004  29.2524606
  75.1166050  17.6895959  29.8005754 105.4280011  14.4944817   4.9274427
 105.4446761  14.2387349   4.0051919 105.3351442  15.4470069   4.9102193
 100.1485221  32.2022731  16.5455610 101.0792844  32.0282561  16.4054472
  99.9059932  31.6339499  17.2765905  37.2513056  22.1991116  15.0459272
  37.3699284  23.0897433  14.7158796  37.8193045  22.1510083  15.8148843
 102.1426098   6.0419614  11.6191751 101.7422335   5.8878095  10.7635004
 102.0398275   5.2119452  12.0847303  41.1889362  71.0692024  87.1583366
  42.0707846  71.3506222  87.4020100  40.9424305  71.6501570  86.4386463
  12.4734068  40.7477099  12.4976617  12.5408697  40.7767779  11.5432912
  11.5383101  40.6350619  12.6683599  19.8237753  28.0491835  44.8286897
  19.2765904  27.2677762  44.7497827  20.1085615  28.2335336  43.9336282
   3.9355421  23.7938983  13.1698400   4.5454121  23.5760886  12.4649698
   3.5510588  24.6292931  12.9042989  77.4897766  98.9607906  69.3989611
  78.2972860  98.5723591  69.0623713  77.1742964  98.3323765  70.0484228
  16.4920568  79.1711378  82.4579239  16.9759512  78.4066868  82.7704716
  16.9429731  79.9177122  82.8523064  67.2955497  90.1549901   9.1182310
  67.1048244  89.4473304   9.7339136  67.6372155  89.7114171   8.3418638
  97.6749460  30.5838496  45.8827383  97.2255222  30.4972369  46.7234212
  98.0966560  31.4421565  45.9238988  11.0857630  23.3194930   2.8833849
  11.4510107  23.5430438   3.7394506  10.5696583  24.0865714   2.6354677
  42.1976336  99.5859684   8.7450391  41.7958637  98.8834251   9.2561609
  42.7327158 100.0660862   9.3770296 104.1951982  48.6619288   8.8091260
 104.4175975  49.5884520   8.7178308 103.6848847  48.4597117   8.0249578
   9.1165447  28.7437875  24.1264135   9.7032547  27.9895360  24.0706235
   8.3056879  28.4475953  23.7128812  13.8983965  34.9674422  38.3543092
  13.8500881  35.0400931  37.4010927  13.2690573  34.2806155  38.5743696
 103.3647816  30.8972937  11.0045320 103.6169450  30.0074298  10.7579977
 102.7508513  30.7801062  11.7295152  42.3751879  30.5806303  83.1225777
  42.0663404  31.2545943  83.7280655  43.2991171  30.4646945  83.3442593
  53.5048088  11.8048613  76.6470480  53.1371160  12.6197665  76.9890451
  54.4394084  11.9866126  76.5484428  95.9900562  70.2365596   0.3860170
  96.6287462  69.6801669  -0.0597781  95.9217875  69.8654181   1.2656862
  24.0876198  74.0990782  84.0912151  24.7177052  73.4950066  83.6983776
  23.2507992  73.6368179  84.0434361  32.2507382  36.5915973   2.1947080
  33.1588507  36.7265326   1.9238645  31.8369198  36.1680323   1.4426595
   3.7923241  44.4159514  26.0089094   3.9523649  44.7727305  26.8825990
   3.4898138  45.1653201  25.4959089  13.2734108  52.7160460   3.2156068
  13.0436373  51.7980391   3.3594686  12.6587010  53.2053286   3.7623769
  11.0828829  30.2161796  10.3625280  10.9428024  30.9853751   9.8103029
  11.9742489  29.9335963  10.1579744  88.6709790  33.6491210   2.1214277
  88.1316654  32.9988486   1.6714174  89.1194300  33.1548793   2.8076154
  92.1291598  92.6506199   4.4488317  91.9290932  93.4409536   3.9472658
  92.3750647  92.9730476   5.3158933  36.3775778  47.5749022   8.9602548
  37.2489548  47.2631652   8.7158186  36.5024805  48.5025985   9.1602880
  15.3228426  36.1839396  15.4677469  15.5247069  36.0486800  14.5419103
  15.6732989  37.0525844  15.6648809  84.1141073  44.8852641   6.9228822
  84.7152917  45.6286532   6.8761999  83.6620335  44.9949843   7.7594358
  91.1965720  23.3524711  12.3120767  90.2710824  23.4752709  12.1008379
  91.2287549  22.5110299  12.7672464  17.6205397  36.6028029   1.7064554
  16.6863299  36.5683562   1.9121152  18.0317211  36.9162757   2.5119955
  32.2015381   0.6186778  17.2686464  31.7501211  -0.1904243  17.0282060
  31.5727616   1.0905654  17.8147108  25.4382038  13.4112794  26.7939741
  24.9175310  12.7010733  27.1691305  24.9979973  14.2101485  27.0842439
 105.3035061  11.1951358   0.1332361 104.4494359  11.4585263   0.4759103
 105.9264628  11.4688260   0.8064729  30.2348709  58.4178740  25.3272420
  29.9311733  58.8577945  24.5332223  30.8363533  59.0427787  25.7321435
   2.9850817  38.2431037   6.0055810   3.5699439  38.7563426   5.4481298
   2.4100447  38.8920791   6.4110452  18.7381458  14.5567233  26.3616354
  18.1141377  13.8347108  26.2871820  19.5862580  14.1290480  26.4801103
  30.2749872  22.8679425  33.1867105  29.7869492  22.5275523  32.4369127
  30.0499964  22.2784764  33.9065248  81.4306877  32.6662070   4.1297227
  80.4948340  32.6083285   4.3222314  81.8228255  32.9874141   4.9416906
  75.4076762  13.7066943  11.9619352  75.5336518  13.8712270  12.8964407
  74.4624041  13.7810714  11.8309385  91.2158744  36.4604766  52.2215444
  90.6188623  36.3113982  51.4883501  92.0843951  36.4927394  51.8204767
   8.5633755  35.3331668  23.1861478   9.4319344  35.4304797  23.5764963
   8.1190491  34.6966369  23.7461835  71.0100802 100.5701508  37.5960428
  71.4911707 101.3899292  37.7089292  70.1390251 100.8415426  37.3064786
 103.3024446  44.3923194  13.7304384 103.0052917  45.2995498  13.8002950
 103.6170713  44.3120009  12.8299982 100.6840476 100.9271540  45.4837495
 100.2065476 101.7259945  45.2599603 101.2814578 101.1930765  46.1827642
   7.7979851  26.2289340  13.4400732   8.4926844  26.8630511  13.2625562
   7.5867605  26.3576562  14.3647653 104.0816824  23.8627202  25.0483591
 104.0768568  24.0323169  24.1063100 104.9963490  23.6672503  25.2518446
  36.4938903  58.5123491  85.2033234  37.0989799  58.2675028  85.9034252
  35.7003260  58.7921858  85.6595898  28.0100751  83.7404919  71.2337255
  27.6297879  83.5782146  72.0970201  28.7917876  83.1886482  71.2087727
  81.8772672  47.6688773  13.9251215  82.5584094  47.2659881  13.3866483
  81.0557823  47.3858268  13.5235292  42.1336126  98.5760498  75.7281923
  41.3252020  98.0668736  75.7869244  42.1544456  98.8889217  74.8238087
   4.6305084  17.5021655  15.6905633   5.1240397  17.1205623  16.4165384
   4.7338152  18.4473044  15.8013326  78.5259299  22.9585320  46.1710531
  79.2627440  23.0195147  45.5630952  78.7862073  23.4979779  46.9177038
 105.7794229  43.2140262  11.7671567 106.6208951  43.6673934  11.8182546
 105.4280297  43.4570891  10.9106142  23.8037960  96.3888945   3.9642507
  24.1941253  95.6119789   3.5639173  24.2171947  97.1245254   3.5123903
  22.4728489  34.1356284  13.4127409  23.2697439  34.5142180  13.7840444
  22.0857811  33.6382491  14.1331750 102.0460884  40.4150969  12.3116380
 101.5208547  41.2146289  12.3449880 102.6230661  40.5388171  11.5579683
   1.9378758  34.9465663  54.6317560   1.1440182  34.5290763  54.2974931
   2.5676060  34.2306430  54.7162134  76.4589233   7.6559264  24.3125326
  75.5671106   7.5091321  23.9973337  76.3670401   7.7376038  25.2618104
  64.1601515  73.5514116  70.1499510  63.2993793  73.3337116  70.5075932
  64.3405008  74.4320011  70.4789972  98.5900593  86.4216614  74.8866510
  98.6035156  86.3798618  73.9304590  98.3775139  87.3339653  75.0835419
   0.9117794  10.4014165   8.3411104   1.1633372   9.8123176   9.0523893
   0.1721144   9.9647242   7.9187089  22.8584337  25.6047303   9.2327196
  22.0284939  25.8217389   9.6573812  22.7696562  25.9483630   8.3437521
   0.6957293  47.8238685  15.8605463   0.5270577  46.8982989  15.6841833
   1.3511849  48.0760486  15.2101594  29.4423676  35.6778819   6.2130815
  28.5128451  35.6129081   6.4321596  29.7870016  34.7984130   6.3680154
  64.4941902  83.4151936  78.7640524  64.7578382  83.3436680  79.6814442
  64.1931248  84.3190575  78.6711407  28.5450125   8.1058699   6.9484884
  28.3915138   8.4832007   6.0822946  28.0369616   8.6573655   7.5434381
   6.4096546  20.2384049  10.8775884   5.4921055  20.0563723  11.0805589
   6.4872074  20.0615794   9.9400598  17.9995823  33.7672622   1.6897089
  17.7972651  34.6917827   1.5463144  18.5334206  33.7593276   2.4841768
  11.7187739  37.8766448  14.8064596  11.0351467  37.9331595  14.1388589
  11.4942312  38.5602862  15.4376871  92.3385756  19.3542725  11.4491064
  93.2464735  19.1327006  11.2420637  92.2159736  19.0472371  12.3474008
  54.3176365  79.2712355  64.1838074  54.3495655  80.2231216  64.2793560
  55.2215910  78.9865732  64.3182230  27.5590515  30.8912284  21.1524087
  26.7542410  31.3648803  21.3625509  27.2890854  30.2322394  20.5128080
  96.0865275  15.9235341  18.5202009  95.5365221  16.7069108  18.5132009
  96.7250626  16.0853917  19.2146856  14.1777134  44.2716700   7.9679758
  13.2226944  44.3304831   7.9945737  14.4034052  43.7048251   8.7055284
  16.8465519   2.0065171  25.1861459  16.3035250   2.7894980  25.2772123
  16.2686539   1.3600690  24.7807199  50.5044317  98.9986515  65.9407139
  49.9872780  99.2332935  66.7112541  50.1334906  99.5264053  65.2335215
  14.8206854  26.7666060  16.6753084  15.2022123  27.5891454  16.3685495
  15.2519465  26.0921485  16.1505682  41.1650658  39.9239547   4.3201429
  41.6266489  39.2275531   3.8530332  40.7117748  39.4743544   5.0333196
 107.1439354  18.3968121  11.0192758 107.6536171  19.1729838  11.2516958
 107.7995245  17.7460963  10.7682783  91.2965783  83.7093343  58.3115179
  90.8579167  84.4855679  58.6597520  91.4025315  83.1339778  59.0691263
   0.1874554  71.0999250  85.9750748  -0.4732263  70.4213810  86.1140347
   1.0074872  70.6176710  85.8691978  14.6294880  34.0967852  17.4312669
  14.2655277  34.7528369  16.8368322  14.2741585  33.2654101  17.1169549
  12.3894215  27.4201972   5.8835680  12.8403282  27.1597821   6.6867429
  11.5339947  27.7316434   6.1793405  62.1037007  53.1009681  11.3024026
  61.9575119  54.0427501  11.2135297  63.0558109  53.0037600  11.2858469
   2.5153685  50.7244594  16.9200212   2.5022030  50.5910308  15.9722597
   2.3583460  49.8542888  17.2866041  58.3267498  89.8950195  75.6507921
  58.6657000  90.7598019  75.4195023  57.9140520  89.5769119  74.8478460
  30.0509072  72.5232226  24.5053083  29.1365004  72.2652060  24.3890268
  30.0084591  73.3330638  25.0138265  71.5731573  85.2327728  87.0318985
  70.9814501  85.1226044  86.2876034  72.1634197  85.9379482  86.7663002
  48.4573841  36.1271071  69.7095537  48.0959082  36.9591689  70.0149012
  48.8190937  36.3256669  68.8458586  91.8067030  39.3200213  26.5965444
  92.0711843  39.1876513  25.6861764  90.8499507  39.3298728  26.5689832
  76.1310872   8.0679458  87.7140236  75.6979760   7.6012271  86.9993019
  75.4821261   8.0841582  88.4174633  36.6470814  25.7967193   6.6057378
  36.7202902  24.9221093   6.2237340  37.5528002  26.0799510   6.7310030
  58.7183571  48.7754256  16.7987424  58.0951405  48.8447005  17.5219518
  58.1737709  48.6174685  16.0275728  16.6500902  50.7285220   5.7124979
  16.0247708  50.0065047   5.6500322  16.1049891  51.5109927   5.7951719
  66.2385925  16.9613975  74.7104931  65.6936582  17.6090568  74.2634821
  65.8354147  16.1201518  74.4960260  47.1235657  30.3280455  12.3325998
  47.0098305  31.0399634  12.9622537  46.3842487  30.4195125  11.7315370
  72.9573568  34.2414226  17.3131639  72.6745161  33.3270194  17.3231679
  72.8817233  34.5255007  18.2241041  49.0229960  88.2997383   0.0505048
  49.3682023  89.0073003  -0.4939383  48.9091702  88.6959733   0.9143716
  10.5449438  54.2382240  85.2426338  10.5067813  53.5263443  85.8813858
   9.7211790  54.1711760  84.7597790  31.6840482  26.2222409  79.5879984
  30.9594369  26.8122816  79.7954082  32.1843457  26.1620164  80.4018211
  35.6579876  14.7664583  67.5746346  36.4414096  14.9857914  67.0702839
  35.7832837  13.8513541  67.8258657  34.1695619  37.4556851  55.9061670
  34.0913868  38.3973527  55.7532501  33.2988715  37.1876407  56.1999035
  32.1511698  53.1852579  70.6914473  33.0270123  53.4429789  70.9790468
  31.8689084  52.5360107  71.3356829  30.2057362  23.7524199  40.7604504
  30.0113130  24.2811680  41.5343094  31.1610651  23.7573528  40.7008410
  87.2633608  67.4892141   8.0204755  88.1394204  67.4706794   7.6352388
  87.1178492  66.5944244   8.3277303  32.8315537  46.8855984  17.7987558
  32.9116958  47.8372539  17.7342493  32.6653551  46.5978394  16.9010908
   2.3025314  99.7030844   0.8773691   2.1071712  99.3991722   1.7637712
   3.2505218  99.8354639   0.8730489  35.4205227  21.1117697  85.9873676
  36.3502169  21.2298608  86.1821842  35.0029039  21.0419488  86.8458271
  45.9509631  67.6873721   3.4040433  46.6542610  68.3243431   3.5300333
  45.1832678  68.2174553   3.1898195 107.9028865  53.8701868  88.0583191
 108.1722648  54.2086220  87.2044277 107.1146384  54.3679428  88.2754230
  64.3937334  81.0625185  44.0144617  63.6167654  80.5273355  43.8528043
  64.1856798  81.9110621  43.6234170  19.1899777  17.6298148  57.5618440
  20.0408411  17.7965314  57.1562940  18.7105274  17.1176154  56.9106847
  69.3748077  75.5224122  21.6577131  68.6609133  75.9140862  22.1608812
  70.1377758  76.0622252  21.8643743  40.3204786  89.9131097  13.6684972
  40.9186449  90.4930104  13.1971723  40.3435900  90.2282823  14.5720178
  23.2362866  48.0272245  52.1582556  22.2978616  48.1462622  52.3046017
  23.6102796  47.9687643  53.0374289  11.1435592  19.5486450  67.9844093
  10.9820843  20.3707552  68.4473276  11.9543850  19.7021353  67.4994040
  72.6756102   5.9880263  10.2548009  72.2452185   5.2845389   9.7688943
  72.8016940   5.6298787  11.1334688  76.9731101  67.0681681   3.1619531
  77.3581799  67.5843538   2.4537832  77.6518544  66.4337756   3.3923513
  53.9612754  80.7259120  53.3752233  54.7469338  80.7880868  52.8319913
  53.4780081  81.5312447  53.1904966  55.6955139   5.9842784   4.5369417
  55.3037803   6.0316378   5.4090292  56.6222076   6.1767442   4.6798688
  75.7666655  21.8026788   0.8144838  76.2393336  21.9880158   1.6259462
  76.3400139  21.2051112   0.3344709  14.7494626  19.0554011  58.9286423
  15.1092350  18.3848155  58.3480310  15.5159187  19.5303631  59.2498684
  35.2882338  22.1437359  70.2720976  35.6115890  22.8530335  70.8275843
  36.0573602  21.5978718  70.1086664  60.1135310  73.3373012  20.9814149
  59.9808773  73.3844532  21.9282037  59.7437271  72.4910940  20.7295972
  27.5065422  29.8213696  59.0528345  27.2384214  30.5475926  59.6158075
  27.4871445  29.0545988  59.6254778   7.7506173  60.6656647  86.7883396
   7.9349768  61.0410213  87.6493645   8.2336891  59.8393583  86.7788601
  34.0881729  46.4061737  54.4723129  33.3271146  46.5241671  53.9038992
  34.8155117  46.7881680  53.9810991   8.9677485  71.9520463   9.4730169
   8.4305199  71.2916864   9.0353567   9.8387488  71.5581120   9.5220739
  92.7649514  38.2803011  75.9080315  93.2479648  38.7253714  76.6043377
  92.9898719  38.7642670  75.1134109 106.5548288  73.0844402  70.9023714
 107.0672702  72.3130178  71.1443138 105.6515158  72.8474331  71.1123323
  84.6823414  65.8086993   0.6225568  85.1920804  66.1128105   1.3735086
  83.7910183  65.7172467   0.9593278  56.0284265  91.6820778  22.3327619
  56.2545451  91.3667883  23.2077962  56.2884005  90.9708227  21.7473012
  61.0540771  32.2537518  69.2480040  61.1830616  31.5495324  69.8833513
  60.1038456  32.3542142  69.1914225  39.2782521  20.7773232  67.5602293
  38.5838318  20.5173182  68.1655455  39.8214459  21.3828421  68.0647278
  75.2623209  97.9463543   3.7364084  74.4237097  97.4888195   3.7966329
  75.1112827  98.6397184   3.0940229  74.9719366  75.1758708   9.1484148
  74.1711029  74.8323502   8.7523157  75.6422456  75.0563277   8.4756357
  91.2439768  16.1399138  66.9834852  91.0440878  17.0178676  67.3082495
  91.9853036  15.8507597  67.5155163  47.5066566  47.8115082  85.3833103
  47.1772861  48.6920643  85.2033997  47.1836042  47.6097298  86.2614632
  27.3058653  43.8859844  67.7751160  26.4011240  44.1977596  67.7967739
  27.8188133  44.6561670  67.5303125  54.8777028  94.1823877  27.6794702
  54.5408329  93.5662950  28.3300001  55.1451703  94.9468912  28.1896001
  66.4828356  68.5249550  67.9239130  65.7354983  69.0655095  68.1798840
  66.7587121  68.8819964  67.0797300  79.9277791  90.9890188  16.2330801
  80.4332503  90.4367699  16.8295270  80.4329546  91.7996992  16.1711866
  38.9941054  72.3702015  21.5429765  38.9006930  73.0048026  22.2534544
  39.9170228  72.1174945  21.5673524 107.0236214  67.4725141   7.8830892
 107.2736033  67.7581431   8.7618143 106.8488892  68.2848264   7.4078542
  44.7059155  34.4495749  69.1417360  44.2292690  33.7438846  68.7046528
  45.5063820  34.0346766  69.4632149  57.8922471  66.6105772   9.3874437
  57.2209867  67.2859098   9.2896349  57.4086984  65.8293594   9.6559793
  22.6164675  37.4716187  57.2655296  22.2098637  36.6800070  56.9130325
  23.0622077  37.1784043  58.0602455 106.8063275   5.1975924   1.8172533
 107.6147859   4.8841483   1.4118177 106.4850513   4.4494254   2.3204977
  16.8270727  73.9720501  31.7703229  17.4149724  73.2717456  31.4871675
  16.3159367  73.5833229  32.4801523  85.3174838  71.7740096  13.4671575
  85.0680836  71.8475999  14.3883592  84.4969901  71.5868176  13.0111009
  68.6450442  42.3515625   5.0249654  68.0092128  41.6793705   5.2701360
  68.7096652  42.2840442   4.0723402 103.5808460  12.3285729  45.7428056
 104.2820184  12.0056445  45.1768476 102.8487150  11.7337758  45.5802232
  17.2227391  52.8288707   1.2675363  17.9470094  52.3317699   0.8873254
  17.3368164  53.7163408   0.9275133   0.1082969  35.3786761  21.0514814
  -0.4995894  34.8765380  20.5087549   0.9635234  35.2395827  20.6447107
  90.4856638  17.2994000  28.6514646  91.0841433  17.7071912  29.2773801
  91.0043840  17.2014911  27.8529912  54.4060775   1.8992370  83.2709312
  54.7404786   2.6968329  82.8607655  53.5215565   2.1290343  83.5556126
  79.4462117  59.5600922   6.8082220  78.7378510  59.1697653   7.3201829
  79.2413100  60.4949196   6.7896349  36.9749212  30.8528113  77.8349638
  36.4643431  31.6572428  77.9267931  37.4866986  30.8004975  78.6421680
  93.1081740   8.7219960  10.2349741  93.8214604   8.1112439  10.4205400
  92.3182504   8.2602555  10.5161268  77.6087491   0.4318148  19.7418863
  77.6160799  -0.2601903  19.0805894  78.2558851   1.0656316  19.4324953
  36.5445053  72.7385796   2.7063924  36.2924135  72.2110785   1.9484884
  35.7446158  72.8063835   3.2277471  29.3218827  32.6722145  28.1234646
  29.8332882  32.9794121  27.3749161  28.4133148  32.7103496  27.8246570
  73.8860015  12.5221068  52.0030195  74.3906878  12.1827657  52.7421934
  73.7854612  13.4554679  52.1899969  60.2126821  98.6552538   7.1161443
  60.9485253  98.9032902   7.6758367  59.9712118  99.4644178   6.6653997
  19.2610562  54.9095345  76.8673229  18.5754645  55.1663876  77.4839449
  18.9123654  55.1481724  76.0084248   1.8589278  58.3721733  75.4488659
   1.1820954  57.7181482  75.6231642   2.2286570  58.1149960  74.6042442
  28.4932566  54.2019844  77.5431585  28.7334847  54.8919296  76.9246960
  28.5530066  54.6192408  78.4025526  65.2987655  94.7233023   9.3592054
  64.7504791  94.3773521  10.0634271  65.3431829  94.0128769   8.7192422
  90.8209161   1.4348847   6.9764596  90.0015716   1.0668189   7.3072702
  90.7978026   2.3526675   7.2473127  24.0326118  56.5984917  60.1757336
  24.7321677  57.1953583  59.9100304  24.4247246  56.0612440  60.8641005
  98.6904772  88.2765688  19.3230325  98.4644803  87.3632325  19.4990331
  99.6432265  88.3085050  19.4095308  67.1663698  98.8543190  18.1981737
  67.4706539  98.2049574  18.8321859  67.0675405  98.3641495  17.3819620
  90.7182702  73.3272733  31.3665086  90.9792956  73.7331952  32.1931440
  91.2953003  72.5685228  31.2795431  60.1863965  78.3156551  27.6744348
  59.2434176  78.2366432  27.8185827  60.4600724  79.0209307  28.2608778
  40.6662091  96.0859503   4.2070848  40.7863947  95.1940264   4.5330698
  39.7534066  96.1152281   3.9204389  89.2311995  30.3740413   9.0048868
  89.4402997  29.5001418   8.6750299  89.9499921  30.9251983   8.6953813
  27.7434683  28.8774991  79.8826075  27.7077770  28.8789630  78.9260721
  28.5657430  28.4339929  80.0909233  28.4773278  40.8477068  71.3015890
  29.2222738  41.3491344  71.6330385  27.7789688  41.4945412  71.2009335
  49.4971796  83.5631646  14.8338205  49.2700931  82.7278222  14.4253332
  49.6521302  83.3459605  15.7530862  71.5646537  86.6315020   7.8177721
  71.9348486  87.4330057   7.4479276  71.0330804  86.2649335   7.1111661
  40.4431110  88.7373842  24.9243433  39.7567936  88.7261332  25.5914766
  40.0362532  89.1623773  24.1693002 100.0875614  34.0830612  50.0063181
  99.9668954  34.9991894  50.2560854 100.9089188  34.0749836  49.5148563
  16.6706268  84.3641867  11.3297349  16.6744606  85.1935424  10.8518392
  15.7433883  84.1745748  11.4729768  41.7976548  59.6898402   4.1764909
  42.5001933  60.3142221   4.3576509  41.0554155  60.0088622   4.6898538
  66.6430458  44.7276576   3.6205465  65.8282622  44.9437661   4.0740377
  67.0532306  44.0599139   4.1701871  18.7202394  55.1761913  74.2858505
  18.4508634  54.4866133  73.6790943  19.3327630  55.7124090  73.7823486
  55.4934164  95.2347578   8.8295537  55.6079765  95.1740993   7.8811723
  56.2692984  94.8074211   9.1923505   2.8193283  17.4168832   1.5575773
   2.1454406  16.9034535   2.0031053   2.7182198  17.1932704   0.6323701
  63.3795317  93.8877214  29.9188310  64.1733082  93.7379230  30.4323560
  63.6929139  94.2720283  29.1000921  23.8560677  20.1563263  74.1805315
  23.6314940  20.8615494  73.5735226  24.7674966  19.9463034  73.9770174
  41.0947879  56.5954985   9.3880636  41.3205226  56.8712504  10.2764589
  41.9288846  56.3307018   9.0002519  38.6658221  53.2260448   4.6783334
  39.0844252  53.7502785   5.3611166  38.0548688  53.8287334   4.2543870
  51.4450868  99.9169697  37.8211957  51.3939174  98.9744438  37.6622850
  51.3498291 100.0054897  38.7695200  38.9063573  37.6652932  82.2674942
  38.3068347  38.3957148  82.4201012  38.5340881  37.2027206  81.5167141
  33.2911372  52.7250051  37.5002217  34.1028905  52.9510641  37.9542994
  33.5785437  52.2783422  36.7039061  88.0721911  82.2028483  27.2220880
  88.2677182  82.8843106  26.5789682  88.7073000  81.5107001  27.0382577
  68.7653192  88.8741578  17.7938825  69.4697627  89.1532697  17.2090036
  67.9957875  89.3543686  17.4881822   2.7581444  50.9686899  62.8735971
   2.8618869  51.4086580  62.0298576   1.8326652  51.0815239  63.0903625
  61.6801977  28.5539341  74.6303272  62.4599886  29.0611315  74.8559666
  60.9530544  29.1632962  74.7574854  35.0324368  29.6050835  64.7476292
  34.2252254  30.0743055  64.5367527  35.4281974  30.1149821  65.4544592
  27.1264233  58.1644530  12.3440057  27.4026319  58.2151647  13.2590848
  27.7935072  58.6560453  11.8648798  57.9073906  30.6086779  66.4020443
  58.7131405  30.1079893  66.2743282  57.3183298  30.2934599  65.7165670
  13.0049658  42.6341772  85.5392170  13.9520264  42.6936007  85.4136086
  12.7842462  43.4035110  86.0642242  50.9851964  31.7979111   3.6667139
  50.2592309  31.3766052   3.2066041  50.7188769  32.7138485   3.7464983
  56.8773596  24.5077330  22.1475011  56.0831360  24.9233062  21.8117315
  57.4881463  24.5281226  21.4107782  63.5949167  81.7185391   8.5118372
  63.0249818  81.0050239   8.7987119  63.0032810  82.4593152   8.3797246
  65.6441887  72.6579870   8.1391889  65.2227386  71.8497242   7.8470880
  65.5089911  72.6696981   9.0867216  70.9929307  77.7961291  32.4207574
  70.9708317  77.1684135  33.1430608  70.1088842  78.1621875  32.3944360
  76.0818776  87.5265850  23.5182363  76.8690976  88.0556692  23.6470396
  76.1907824  87.1430863  22.6480085  18.6350926  75.9725775   5.5594236
  19.0921553  75.7495560   6.3703329  19.3029412  75.8928503   4.8783475
  29.7928333  62.6983261  78.5683775  30.6015563  62.4339533  78.1298542
  29.5232606  61.9233274  79.0612650  80.4476581   4.9436147  17.4184972
  81.2040905   5.5217749  17.5173551  80.7864265   4.1851861  16.9428331
 101.6727551  81.4765198  74.1191959 101.1209853  81.1604530  74.8346567
 102.5135787  81.0394365  74.2541218  92.5626477  74.4466223  38.4414751
  93.5100516  74.5204486  38.5564119  92.1957501  75.0632848  39.0749914
  82.9924401  88.7698735  19.4563657  83.3135088  89.5049466  19.9786836
  82.1290740  88.5757913  19.8212892  53.3282614  29.2195964  78.1558943
  53.3867884  30.1644230  78.2976866  52.4174023  29.0034175  78.3554697
  74.8191627  75.0485553   4.7007638  75.5696543  75.4299749   4.2452318
  74.3349060  75.8024515   5.0374681  18.2496953   9.0205562  82.0573330
  18.1720650   9.9745321  82.0456982  19.1530108   8.8570511  82.3284721
  75.7637485  63.8383020  33.6243040  75.1314124  63.7163211  34.3324739
  75.8488258  62.9715122  33.2272321  36.2093139  78.7924136   3.1945211
  36.1922018  79.0491070   2.2725374  35.3196558  78.4889425   3.3752042
  58.3299923  72.8511572  87.6210022  58.4303570  72.8857136  88.5723019
  57.9710627  73.7070417  87.3867798 103.0864231  24.7919995   1.1970789
 103.2885806  24.9241502   0.2708513 103.8796083  25.0669724   1.6569501
  50.2879485  92.2197784  19.7896272  50.7337960  92.5908865  19.0282232
  50.5092665  91.2887968  19.7665578  10.6321716   6.6403157   4.8089391
  10.2104044   7.3125035   4.2736703  11.5614081   6.8694217   4.7927648
  27.1643233  35.6576395  67.2108269  27.7480650  35.3111053  67.8856564
  27.7038550  35.6896424  66.4208174  48.4748316  25.1926756  41.1420393
  48.3460808  26.0472822  41.5535069  48.5243177  25.3829074  40.2052402
   1.3772917  10.9701545  31.0884458   2.3236108  11.0800797  30.9955675
   1.0821057  10.6929070  30.2211267  29.9481797  33.6482406  65.3376055
  29.4245291  34.2587924  64.8187113  29.9513316  34.0237355  66.2180758
  31.9662190   5.3321511   1.3206178  32.8809214   5.5608231   1.1555177
  31.4643526   5.9791762   0.8249170  93.7207035  41.3572645  86.1285591
  94.3454341  40.8580256  86.6545773  93.6519043  42.2010469  86.5752506
  54.8452139  36.9908810  83.9816761  55.1322889  37.8641868  83.7149143
  55.3252697  36.8179321  84.7915268  30.4731560  20.7465291  60.6620121
  31.0697174  21.3804817  61.0600710  30.7673717  20.6783509  59.7537088
  10.9276962   1.3689906   7.9896242  11.2559939   0.7977063   7.2953016
  10.0039911   1.4998109   7.7754289   9.5731723  64.2353249  78.6392260
  10.0232315  63.4375429  78.3613396  10.0742245  64.5421457  79.3948936
  24.1145563   1.2239367  14.3736059  23.3248997   1.2329251  13.8326818
  24.5827341   2.0216472  14.1272241  38.5975885  38.1098032  37.2527409
  37.8460455  37.6168442  37.5819874  39.2244506  37.4387598  36.9825983
  43.0190273  76.7156352  30.9873945  43.7992635  76.2928404  31.3461572
  43.1166830  76.6331448  30.0387651  31.5637851  44.8288631  68.4898853
  32.2387171  45.1392078  67.8862429  31.3422489  43.9535952  68.1719875
  17.8469992  37.7762771  71.6592216  17.0170689  38.2332063  71.5226078
  17.7010608  37.2431016  72.4406672   2.7917663  84.7762336   6.2193281
   2.9821626  84.2460455   5.4454595   2.2053663  85.4625882   5.9010870
  63.9872837  65.4532290  80.1216221  63.9070845  66.1573458  79.4781780
  63.0857944  65.1794291  80.2906704  38.1184483  46.5901232  85.5549335
  38.9331555  46.1889219  85.8574581  37.8568196  47.1697330  86.2703609
   0.4150287  99.9890436  10.0781232   0.0017158  99.4625248   9.3938810
  -0.2847584 100.5586876  10.3975469  61.7116388  77.7917470  25.5199415
  61.2729414  78.3422865  24.8713380  61.1578973  77.8512324  26.2984449
   4.0420866   9.5927340  11.2744218   4.7654009   9.0410811  11.5723020
   4.2129898  10.4467828  11.6714555  69.4844874  80.7404937  17.3008997
  70.4220041  80.6372370  17.4641019  69.1605862  79.8464717  17.1911413
 104.2806729  72.0872606  11.9357187 104.4924696  72.3139252  12.8412515
 105.1311406  72.0044388  11.5043527 100.7648079  11.6003758  18.6880476
 101.0616247  12.4246365  18.3023912  99.8202650  11.5899379  18.5332471
  92.3492869  79.3362059  24.8984033  93.1553420  78.9158834  24.5986825
  92.2886666  80.1369060  24.3774110  80.8339977  63.5737371  87.3241043
  81.4159298  63.1500530  87.9550362  80.3103161  62.8583145  86.9633198
  46.3909217  57.9454072  26.7213708  47.3394009  57.9589088  26.8495733
  46.2597831  57.3758651  25.9633047  46.7869186  55.5476665  80.0751400
  45.8354712  55.4984426  80.1675987  47.0276403  56.3664532  80.5085754
  54.7013052  98.6266483  28.4693319  54.1349991  98.6615290  29.2402536
  55.1779254  99.4566120  28.4845144  11.5266800  13.1794030  11.8051988
  11.2401199  13.8379104  11.1723596  11.9511414  13.6832816  12.4995882
   7.8712314  54.0379238  60.6177378   7.6496762  53.2712841  61.1463308
   7.8956562  53.7100744  59.7187662  91.4867695  77.2504105  28.2273275
  92.0508584  76.6757645  27.7098161  90.7934245  76.6760673  28.5523492
  67.4763998  81.6739477  15.4027921  68.1733426  81.3894452  15.9940321
  67.1971735  82.5204958  15.7515413  87.7232075  18.9384627  82.2456837
  88.0158615  19.8462749  82.3260498  86.8962669  18.9948940  81.7669106
   7.0320368   1.3476474  11.3581449   7.6386547   0.6107051  11.4299947
   6.4431429   1.2469155  12.1059972  17.2811596  88.7440075   1.6219121
  17.9131786  88.2589306   1.0913641  17.1156589  88.1770934   2.3752004
  67.1610101  84.0192617  13.2547647  66.8762549  83.5260381  14.0241033
  67.9071220  83.5246290  12.9158193  71.1955309  24.5834279  85.5951214
  70.5399561  25.0790620  85.1044083  71.9767809  24.6071434  85.0425625
  24.8764157  76.3109207  69.3045425  24.3423057  76.7835808  69.9429417
  25.2371740  76.9951296  68.7406778  39.2390966  20.4965615  64.7536802
  39.9440718  19.8898757  64.5274639  39.3188334  20.6141424  65.7002783
  11.0670328  22.3491341  48.5694391  10.4518175  22.9759986  48.1889421
  11.2828684  21.7576224  47.8484994  77.5983294  93.2659782  44.1839677
  77.3225411  93.2735170  45.1005537  78.5547360  93.2766594  44.2215330
  23.0777907  97.5942516  76.4919090  23.2061601  96.6645050  76.3039589
  23.8578534  98.0203438  76.1366987  51.1173534  41.3731194  81.0023785
  50.9016895  41.7953014  81.8339348  52.0742178  41.3677692  80.9775543
  91.1645182  78.4188188  15.2671320  91.5871294  78.9061607  15.9743196
  91.1006793  77.5230397  15.5983907  32.9249644  56.7756891  80.3402710
  32.5272465  57.5479364  80.7423782  33.3440351  57.1079969  79.5464277
  61.4079666  53.2385778  78.3461142  61.4594316  52.5685024  77.6645136
  60.6276941  53.0079269  78.8503075  81.9007472  20.7635600   9.3607980
  81.6876863  21.6066415   8.9607317  82.7825789  20.8819682   9.7137624
  18.8932252  37.7124023  69.1817474  19.7198439  38.1949687  69.1738653
  18.6183143  37.7232075  70.0985575  87.5384768  97.0135702  10.3388101
  86.7891844  97.3600687  10.8232957  87.5724133  96.0879053  10.5801088
  61.0249074  66.9300271   5.3755170  60.4111918  66.6961302   4.6791822
  60.9548124  67.8819944   5.4467660  40.8377981  35.7264090  42.8329754
  39.9628782  35.4191256  43.0703115  41.2848711  34.9461889  42.5049257
  84.0029304  11.4991004   1.7464143  83.4000353  12.2362954   1.8428117
  83.8931159  11.2170417   0.8383256  30.1114559  47.9909992  76.4878321
  29.1624379  47.9857635  76.3630581  30.4447722  47.3973751  75.8149719
  77.2370680  87.7389230   8.3594591  77.5873955  86.8608822   8.2092935
  77.2530659  87.8437127   9.3107683 105.2768080  25.4816110   2.5072080
 106.0797135  25.0980622   2.8600008 104.8864190  25.9441954   3.2487184
   7.5697517  28.7059474  72.4862337   6.6335040  28.5068011  72.4896717
   7.6238060  29.5970798  72.1409845  93.9998595  16.6237456   8.2043058
  93.0766146  16.5669639   7.9580862  94.0674655  16.1000544   9.0026838
  45.0467756 101.3453306  26.8263799  45.1706555 100.3979029  26.7692071
  44.6584543 101.4844145  27.6901418  35.5330897  44.6117217  30.6758100
  36.0190773  43.7889010  30.6208211  35.0590372  44.6658141  29.8459989
   3.4339786   1.7341287   2.2659856   4.1147852   1.1783559   1.8867094
   3.1029940   2.2452075   1.5274221  81.0757740  89.3073834   0.7029134
  80.2393254  89.5526565   0.3074152  81.2593993  90.0080003   1.3287336
  22.0907164  16.1778266  25.5984956  21.1759424  16.4551360  25.6486494
  22.2103167  15.9104401  24.6872121  79.2409714  92.7129187  19.3332464
  79.8403557  93.3663334  18.9726621  79.5446976  92.5788797  20.2310258
 104.0702971  94.0245451   1.6742784 104.5864304  93.2445158   1.4708406
 104.1551264  94.5772137   0.8973676  90.0909857  15.3655917   5.8043844
  90.4963748  15.0681598   4.9898798  89.3624942  14.7606236   5.9441930
  16.1578083  13.8991690  78.1080532  15.9951460  14.0714681  77.1806431
  15.2929533  13.7093556  78.4716845  57.5465946   5.4349429  36.0012609
  56.8518810   5.8943469  35.5295068  57.2916727   5.4957778  36.9218809
  24.8140168  50.4489613  56.7578745  24.0510058  50.6400156  57.3033524
  24.4465876  50.2155304  55.9053850 104.1803654  76.4484586  14.5168001
 104.8408898  76.8706907  13.9675600 104.5272501  76.5196146  15.4060918
  75.8245595  10.7569415  12.0775205  75.8136828  11.6836507  11.8380910
  75.0145493  10.6275041  12.5708372  36.8138719  41.0495329  69.4890022
  36.9087410  40.3615904  70.1477623  37.6365900  41.0281849  69.0002108
  36.4514518  36.5980554  85.8520317  37.3144031  36.4049888  85.4856014
  36.4619064  36.1894679  86.7175865  91.2143628  12.9455144  13.3182889
  91.7287092  13.4623582  12.6981718  90.4563825  13.4951169  13.5173780
  95.0027673  11.5542228   3.0728036  94.2003791  11.3480813   3.5523016
  95.1820318  10.7682330   2.5567514  82.7401916  66.2002039  86.9780922
  82.4600021  65.3390741  87.2882175  82.9251568  66.6939640  87.7769852
  75.4363450  97.4943460  11.4074117  75.2731117  97.0488419  10.5760747
  76.2431773  97.9879059  11.2602693   7.1960259  25.9272534   7.5835687
   7.7862835  26.4028746   8.1680376   7.6103687  25.9886891   6.7228776
  84.8838337  89.1082419  22.2701913  85.2339133  88.3409227  21.8175298
  84.0311631  88.8238563  22.5992948   8.2911861  58.1007910  83.8679600
   8.0099022  58.9773083  83.6056042   8.4794474  58.1795692  84.8031521
  74.3970927 100.4593147  12.7937490  74.6500739  99.5523085  12.9657060
  74.6504243 100.6100859  11.8830759  94.1921004  96.9619860  10.6364423
  94.9921902  97.3509706  10.2832014  93.4894808  97.3332085  10.1028234
 107.4579184  21.3554389   7.3037035 107.8061621  20.7264430   7.9356176
 108.1196682  21.3924844   6.6130907  89.3507012  88.5289253  39.1537839
  88.5273131  88.7984814  39.5607168  89.9901398  89.1732420  39.4574243
  17.3705411  65.2061129  84.7486210  18.3120263  65.1247931  84.5962238
  16.9754326  64.5717049  84.1505814  17.4284268  15.9933144  13.0810148
  17.7848339  15.1737792  13.4238893  16.5851689  15.7472426  12.7007562
  74.1457375  86.9131388  11.1861688  73.5740860  87.3104991  11.8430883
  74.5491251  87.6567782  10.7383806  13.7401390   0.8939702  28.0090505
  14.4168282   1.5429313  28.2018549  13.0043411   1.1415822  28.5689813
  22.4746609  77.3512888  71.2727213  22.6344371  77.4090338  70.3307199
  21.9587588  78.1314087  71.4764166  76.7432698 100.1165260  29.7242242
  76.9553336  99.3290533  30.2253706  77.1377476  99.9670805  28.8649923
  68.0648788  95.2578844  30.0562746  67.4499424  95.6022610  30.7039529
  67.7121242  95.5457796  29.2143041  42.8892326  36.5530205  66.9898605
  43.8344145  36.4054990  67.0229816  42.7555370  37.3615503  67.4844694
  34.8590755  50.2900839  53.1679773  34.0311384  49.9320698  52.8477001
  34.6330667  50.7111597  53.9973450  58.5350370  25.2083325  72.1883774
  58.5957050  25.0783610  71.2419844  58.7645197  26.1283922  72.3189783
  91.8405239  32.7740390   0.3797227  91.6289453  33.0946547   1.2564546
  91.1831514  33.1767280  -0.1876753  80.4063807   1.0302503  39.8847181
  80.5270313   0.7345683  40.7870752  81.1023633   1.6730649  39.7482282
 105.0005428  28.2806212  36.1058790 105.5384318  28.2233674  36.8955785
 104.7584979  27.3744685  35.9147340  57.9177920   2.6335532   6.4502794
  58.2302730   1.7455298   6.6235048  57.4476532   2.8815705   7.2463209
  40.7060688  84.6560730  27.2940141  40.8052122  83.7115373  27.4134046
  39.8746266  84.7528352  26.8297178   2.5575805  38.9796645  15.6437761
   1.6384816  38.9495952  15.3780920   2.9409146  38.1860167  15.2704126
  22.5106716  44.5888186  77.0932436  22.0190310  43.8339758  77.4168682
  22.8238654  44.3184805  76.2300730   2.2172904  23.3374650  39.6044332
   1.4290548  23.8273293  39.8388559   2.9249954  23.7873942  40.0658971
   0.3636718  26.2018496  26.5392095   1.0917854  25.5933911  26.6651517
   0.6086254  26.7119605  25.7671911  20.8153653  28.1858253  52.6937866
  20.2152133  27.8919673  52.0084476  20.5315685  29.0777016  52.8944159
  39.1107290  89.6255578  17.1517164  39.9941506  89.2606296  17.2029478
  39.2215409  90.4574098  16.6913110  41.2031937  53.3089018  86.0414886
  41.4057398  52.5095797  85.5554008  41.9754124  53.8623476  85.9248161
  41.3840771  26.3466477  75.9716129  42.2030878  26.8317771  76.0721397
  41.4013863  26.0321522  75.0677204   9.2815185  44.4944954  82.9761505
   9.4520682  45.1121378  82.2650528   8.4469110  44.7808981  83.3471394
  43.8975811  71.9096088  87.3920536  44.2478704  72.0122766  86.5071869
  44.2445183  72.6593876  87.8754807  69.5915016  63.2024146   4.9154169
  70.3788765  62.7148916   5.1574689  68.8678702  62.6577569   5.2251512
  37.0386487  68.1571151   4.6605760  36.6940541  69.0339829   4.8296720
  36.6928699  67.6220192   5.3749639  37.6499701  33.8296127  73.1461477
  37.9927230  34.6723080  72.8484631  36.7122889  33.8727379  72.9587364
  75.3689059  94.6387018   5.4464132  74.7914966  94.5984997   4.6840364
  74.8281058  94.3292297   6.1730463  68.7763937  78.8667621  11.4089757
  68.4154304  79.6605076  11.8038160  68.9337238  79.1040791  10.4950983
   7.1984760  93.5483892  86.7587852   7.6897613  94.2240394  87.2260761
   7.6190607  92.7271182  87.0134449  60.8216938  82.7172793  16.7981321
  61.0923847  83.2512249  16.0512334  60.7356628  83.3405699  17.5194818
  54.6210357 101.8667044  14.9861509  54.7466858 100.9576620  15.2583295
  55.2595707 101.9972671  14.2851144 100.0109236  17.0554931  11.5848905
  99.5021741  16.6929252  10.8596689  99.4579308  16.9234616  12.3549539
  26.5193081  66.5657282  77.5245380  27.3597956  66.9313431  77.8004646
  26.0683250  67.2956467  77.1002007  36.3564479  98.7388529  17.4619466
  36.3027272  98.1885160  16.6806108  36.9595712  98.2735933  18.0416090
   7.4692345  16.6872633  54.7280693   8.0352676  15.9480226  54.9502420
   8.0159432  17.2517502  54.1815329  99.4793550   1.2643582   2.3791582
  99.1978590   0.4563147   2.8081781 100.4047482   1.1205775   2.1811563
  24.6824002  30.3800726  33.4270954  24.9491763  30.0464535  34.2836928
  25.1950669  31.1800814  33.3113718  22.6246309  21.8174273  45.0971777
  22.2166443  22.6785857  45.0067026  23.0497599  21.6639716  44.2534048
  39.1327190  54.5843315  64.0752268  39.5846272  53.8087273  64.4075680
  38.2339048  54.2916584  63.9245415  13.7413979  17.0841891  19.1999799
  13.8022804  17.0382268  20.1541311  13.6036301  16.1777980  18.9248258
   9.1219235   7.0126778  11.7271501   9.3539333   6.9046361  12.6495058
   9.7998667   7.5898034  11.3756639  87.5659283  76.0526051   1.1524564
  87.4497231  76.8255438   0.5999166  86.9171103  75.4274405   0.8292944
  46.6213703  50.3476906  85.5517387  46.7624712  51.1319113  85.0213432
  45.9228802  50.5917454  86.1590195  14.6080720  56.2195492  81.5608311
  14.2620611  57.0575953  81.8677235  15.5545425  56.3542509  81.5130711
  74.2184337 100.4786934  17.7520639  73.7838467 101.3189949  17.6062757
  74.7062357 100.5994858  18.5667306 102.8892474  50.4293823  77.2296858
 103.5148747  49.7964811  76.8771791 103.4331469  51.1397409  77.5699806
  26.6874464  84.5665492  27.6332361  26.0218426  84.1070713  28.1451780
  26.3912137  85.4766120  27.6170618  17.2707951  60.4070425  70.6124544
  16.3431597  60.6414080  70.6406450  17.4959469  60.4318523  69.6824455
  44.5761156  44.7696447  74.3772411  44.4447136  43.8448763  74.5864487
  45.4708481  44.9549437  74.6624660   1.6387156  42.0145798  56.0643053
   2.5357175  41.8759823  55.7603168   1.7112012  42.0455170  57.0182562
  34.9539667  57.1229632   4.3745214  35.5886641  56.4466341   4.1379434
  35.0847489  57.8123952   3.7235147  28.1261754   1.3100678  81.4983559
  28.0842423   1.3043711  80.5420971  27.2663474   1.6278669  81.7739105
  88.0669002  13.6119611  17.9175741  87.9548077  14.3732697  17.3482973
  88.7914793  13.1244714  17.5256902  24.4074011   4.0587146   2.2604639
  24.6587849   3.6494691   3.0884534  25.1481724   4.6223409   2.0372564
  99.6753709  28.7923629  61.3815385 100.0123302  28.0821139  60.8354265
  98.8030617  28.9712960  61.0304052   6.3272393  56.5679646  82.7678967
   7.1125972  57.1028280  82.8835011   5.6453031  57.1935225  82.5232124
  81.6274349  12.1871573  11.3309366  80.8007030  12.0342833  11.7885191
  81.4892523  13.0052287  10.8535558  70.0206969  14.6593243   7.8798086
  70.0802119  13.9480931   8.5176450  70.2056491  15.4506928   8.3855325
   7.2188675  54.6065998  72.9973507   7.0579779  55.5341291  72.8240633
   7.8013325  54.6023703  73.7569237  18.4122801  60.2208233  75.2266073
  18.0734026  60.5509901  76.0587025  17.6514816  59.8310757  74.7958899
  51.5082232   0.6339747   2.8367216  51.4322464   1.3871486   3.4225446
  52.0217912   0.9571797   2.0964414  96.6308443   4.9565417  10.9454614
  97.2266952   4.2541701  10.6849462  97.0888392   5.4086882  11.6540033
  10.1264369  80.6623840  87.9002857  10.2682710  81.5324974  88.2731438
   9.8011279  80.8308697  87.0159721  17.2800350   1.7264039  27.8729612
  17.7965355   2.4173743  28.2877142  17.3552561   1.9014365  26.9349081
  42.9254665  92.9084886  24.9138147  42.1719661  93.4560026  24.6931535
  42.6138189  92.3469128  25.6235677 101.6292803  25.5978162  23.0953771
 101.5075128  26.0977322  23.9025194 102.5782244  25.5030305  23.0131990
   8.6792088   2.9807336  38.3708364   8.0981922   2.4283177  38.8937933
   8.5939741   2.6418025  37.4797136  35.6703663  13.2699019  34.2817766
  36.4307308  13.4810311  33.7400133  35.4379416  14.0981681  34.7015268
  67.9615482  58.8576682   7.1219331  67.7076229  58.0012698   6.7779333
  67.1672328  59.1943152   7.5366193  69.7897228  64.8434283   7.0338422
  69.6951517  64.4785417   6.1539823  69.7052511  65.7889928   6.9113523
  65.0248154  85.1562013  12.0297510  65.1801618  84.8135437  11.1495954
  65.7216867  84.7729696  12.5624258  67.8745413  26.9986534  87.0969009
  67.7611160  26.0721970  87.3091412  67.1232939  27.4311018  87.5029087
  74.0026906   3.6091525  17.6845724  74.1477664   2.6760823  17.8413183
  74.7643037   3.8878638  17.1761495  22.3972464  21.2317712  17.0947439
  23.0011797  20.4958064  17.1940214  21.7611599  21.1165292  17.8006822
  94.8306934  29.9104125  10.2564794  95.1964037  29.7811038   9.3813974
  94.2270271  29.1770083  10.3745634  68.5831793  98.3389152  26.8709165
  68.1623515  99.0603270  26.4032632  69.0143665  98.7561191  27.6167375
  20.3408170  36.2365484  77.3534489  19.5211470  36.1514950  77.8404188
  20.1760340  35.7839894  76.5262461  26.6156387  56.0593462  79.1036272
  26.2325954  55.3152180  79.5681524  27.4706674  56.1843443  79.5153713
  46.8552971  17.3225409  19.9128515  46.6181469  17.8059394  20.7042486
  46.7718887  17.9633767  19.2067319  28.1388855   3.3707768   6.1486799
  28.3582783   4.2625148   6.4186937  28.9140082   3.0657775   5.6770879
  11.3558436   6.2649638  15.9881383  11.7813015   7.1200902  15.9250719
  11.3554478   6.0661084  16.9244558   7.7049112  65.0856543  85.6976223
   8.4694326  64.5956373  86.0003185   7.9348713  65.3648615  84.8113918
  64.1297579  30.0567055  70.0073481  65.0040436  30.4455137  69.9812460
  63.6364508  30.5313993  69.3383598  53.1999262  75.1226081  10.9318716
  53.7493034  75.8443250  11.2377149  53.2099398  74.4921411  11.6520387
 100.6186970  94.8322739  18.7744028 100.6146677  95.6969608  18.3638650
 100.6061800  94.2184271  18.0400545  75.5708488  91.5267576  15.0097734
  75.7483872  91.6675438  15.9397680  74.8440464  90.9040178  14.9962789
  70.8114012  90.4967989  23.4867078  70.5926164  91.2294496  24.0625459
  70.4725369  89.7255124  23.9411527  36.3757976  99.4583286  28.8728887
  35.4688832  99.4955267  29.1767866  36.3079980  99.2446245  27.9423219
  25.2994204  24.9498749  46.2348604  24.7592330  25.1807332  46.9905949
  25.2744174  25.7268000  45.6762981   9.3178368   5.5876071   6.9600851
   9.4121027   5.9563262   6.0817987  10.1665259   5.1844842   7.1429712
  70.1022156  99.9960913  25.0136072  70.6153592  99.3155302  25.4492075
  69.9481138 100.6519712  25.6935293  95.6918971  10.7761056  27.0016080
  94.9271910  10.9769399  26.4620573  95.9505431   9.8948533  26.7319185
  52.4065681  84.6233906  36.8368322  52.7263888  84.5741023  37.7376730
  52.8814836  83.9318527  36.3758928 102.2774057  92.9549885  84.9610710
 102.7496139  93.1804562  85.7625771 101.3924466  93.2915783  85.1017189
  30.1906443  47.7661324  66.3237572  30.9669662  47.5508547  65.8068323
  29.8966026  48.6077166  65.9751844  40.7855082  23.3783555  84.2697906
  41.1970043  22.5141430  84.2762089  41.4860439  23.9752436  84.0067101
  98.6530940   5.4539449  17.7065450  97.7016274   5.5565364  17.6861173
  98.9295070   5.6027657  16.8022901  72.3615392  98.2672895   0.7776529
  72.2637804  98.9295401   0.0934774  71.4745458  98.1364693   1.1128503
   3.3822131  14.8870141  18.6215669   2.6590157  15.2687365  18.1240636
   4.1679239  15.2809770  18.2425005  14.6034908  16.8123490  21.8443090
  14.4524956  16.2040717  22.5677949  15.4610157  17.1956307  22.0286447
  38.3438206  23.0627418  46.1568975  38.8763213  23.8569045  46.2014008
  37.9734468  22.9731917  47.0349836  50.9715271   8.5215890  83.3368015
  50.0278521   8.6778319  83.3728886  51.2038279   8.2520705  84.2254162
  70.6328495  95.8115686  19.5250970  69.7251566  96.1021151  19.4361860
  71.1466011  96.4965547  19.0972215   0.3367607  83.7176336   0.5287820
  -0.4159506  84.2145814   0.2083093   1.0340540  84.3677606   0.6145269
  91.9261388  14.6590478  11.3319856  91.3243823  15.3293139  11.0081560
  92.6555387  15.1528603  11.7066366  61.6207369  62.3829545  59.0520555
  62.4786480  62.0572032  58.7798292  61.3836678  61.8363275  59.8012144
  92.5440320  85.7286014   5.5728704  92.3166140  86.5820087   5.9419328
  92.7135571  85.1753773   6.3353902  33.8937140  41.8694115  74.1259193
  34.8183227  41.7004776  74.3069983  33.5754991  41.0588503  73.7284803
  96.8391625  12.1684844   5.1766092  96.1183636  12.0656449   4.5552331
  97.3305742  12.9225070   4.8507387  76.7308529  83.2329573   3.8445360
  77.6804694  83.1229772   3.8931352  76.5695675  84.0946831   4.2287904
  13.1405831  16.0990006  50.8768446  12.6199913  16.0219724  50.0772935
  13.8483858  16.7001731  50.6448061  19.0432263  50.8346755   7.0566255
  19.5287228  50.5126387   6.2971384  18.1711483  51.0344321   6.7163164
  40.4939365  67.3617697  83.6521912  39.6554136  67.3139572  84.1113472
  40.8934116  66.5033913  83.7930202  36.1799932  53.6409712  80.8838940
  36.2155366  54.1863060  80.0980377  36.9864058  53.1261110  80.8548260
  78.9188727  79.7844328   5.3414518  78.5762604  80.0848068   4.4996625
  79.8339900  80.0651301   5.3415090 100.5204122  22.0520503  25.2399713
  99.6337478  21.8029315  24.9792081 101.0914175  21.5144164  24.6912176
  57.7429962  53.9265537  85.2733326  58.4157562  54.2905235  85.8487892
  57.3155928  53.2520819  85.8012009  53.8599014  43.9207077  72.1499968
  53.9646673  42.9738951  72.2438097  53.3426523  44.0265036  71.3515663
  28.0873680   4.3051249  14.3225557  28.4948015   5.0872380  14.6947462
  27.3447275   4.1246087  14.8988611  38.3887911  13.3549744  18.2432443
  39.1716767  13.8938338  18.1294328  37.7841377  13.6656720  17.5693780
  20.4087996  22.5889277  63.4478855  20.5651379  23.5037589  63.6821318
  21.2146378  22.3123264  63.0115938  58.5977173  32.0549822  79.8189306
  58.7184715  31.8716145  80.7506084  57.7480173  31.6685867  79.6069384
  19.0838814  55.6927211   5.0164777  18.5774183  55.5345542   5.8131677
  19.9115133  56.0593802   5.3276426  53.3119774  31.8027401  76.8470526
  52.4540997  31.9740462  77.2355556  53.1660557  31.8731785  75.9036636
  33.2140017  47.9521704  87.5018215  34.0653253  48.2667732  87.1976662
  32.9490566  48.5853720  88.1689644   3.6118722  24.5966489   4.4650919
   3.6279512  25.2685124   5.1466924   2.8677821  24.8344285   3.9119035
  27.4524737  26.9525439  24.1502840  27.4396658  26.1293895  24.6386320
  28.3822155  27.1556908  24.0476305  31.6896391  23.5679967   5.2742178
  31.8818331  24.5055396   5.2568513  32.5490046  23.1479651   5.3102380
  91.5568547  13.6105592  19.4305784  91.1676661  12.8963191  19.9351865
  91.3050394  13.4290463  18.5251123  28.5554123  32.0739467   5.7545740
  28.2708645  31.2948710   6.2323934  27.7565479  32.5880343   5.6372434
  74.5268154  19.8204529  65.0370836  75.1578283  19.7157347  64.3249846
  74.5876884  19.0040219  65.5330372  13.7910072  89.8446311  17.8489191
  13.0444519  90.2723969  18.2683450  14.4857113  89.8762120  18.5066587
 102.2682564  47.9348475  13.6865980 101.9204061  48.0474383  14.5712167
 102.9216711  48.6284549  13.5960943  48.3540869  39.5287085  86.6269875
  47.7648592  40.2457094  86.3925743  49.2294741  39.8664141  86.4375591
  10.8620215   8.6009986  31.5094930  10.1851273   9.1080481  31.0612184
  11.1751270   7.9829413  30.8490449  93.6925133  97.9367508   0.5018026
  94.5015439  97.4358858   0.3977090  93.8107975  98.7023748  -0.0603884
 106.5521042  30.2009398   8.9251024 106.2681310  30.6015498   8.1034547
 106.6318743  29.2689139   8.7221319  51.8247509  27.3899961  87.5101280
  50.9180832  27.6469278  87.3422813  52.1650076  27.1376657  86.6517735
  21.8989706  18.8684518   8.8551313  21.8810749  19.3080813   9.7052175
  22.4101210  19.4520146   8.2944089  23.3038855   2.9456860  24.8542100
  23.6636686   3.8325984  24.8673803  22.6393891   2.9465205  25.5431825
  74.6100887 101.3133730  31.2559778  75.4026230 101.1576046  30.7423097
  74.8573407 101.0867704  32.1524984  98.5230987  18.5694415  58.4678442
  99.2546098  18.7907655  57.8915292  98.4471814  19.3197019  59.0574056
  83.2543544  33.1582457  16.9926054  82.7701942  33.9292628  17.2881586
  83.7110273  32.8479297  17.7745134   0.9252668  26.6314322  41.1233312
   0.4952312  25.9054667  40.6713659   0.6592775  26.5354735  42.0378095
  73.0011564  17.2488696  11.9023496  73.7744327  17.0591170  11.3710577
  73.3528401  17.4938828  12.7582246  40.9964418  47.2198439  84.8259544
  40.5622196  46.5801334  84.2616367  41.9286680  47.1115971  84.6376133
  32.5951815  26.4134461   4.5943719  32.5646591  26.9714028   3.8172132
  33.0341864  26.9480664   5.2559549  16.8794966  35.0275046  35.1917726
  17.0680475  34.0911681  35.1288110  16.6768503  35.1693637  36.1164648
  78.6125469  56.8007135  87.2861958  77.7275038  57.1502066  87.1823406
  78.4810400  55.8884048  87.5443077  83.0409964  96.7125095  20.3882963
  83.8373431  96.2660994  20.1005918  82.8277405  96.3047327  21.2276155
  26.0867429  47.2211504  85.9106159  26.7078424  46.8879032  85.2629948
  26.2168908  48.1694174  85.9014797 102.2305815   1.0932452  24.3563921
 101.3542597   0.7189042  24.4467241 102.7277724   0.4271991  23.8816053
  53.3334208  62.2593880  87.8240776  52.8784513  61.9446421  87.0429420
  53.1788111  61.5806818  88.4811020  72.8813169  29.3346125  24.4124776
  73.3079211  29.5335395  25.2459413  73.3022155  29.9194629  23.7823755
  92.2782795  34.1525275  10.5601675  91.9443123  34.8117072  11.1685926
  92.7610080  33.5385424  11.1135370  25.7684493  76.3421249  82.7491093
  25.5229640  75.5541611  83.2339573  25.7068706  77.0481586  83.3925056
  30.0500155  24.7658498  16.8277914  29.9526978  25.0333793  15.9139043
  30.9421683  25.0241429  17.0592577  48.5266161  54.4286203  87.8360462
  49.4344234  54.1714907  87.6747990  48.5502625  54.8719168  88.6840725
   6.0150671  12.3214681   4.7795755   6.2748718  11.4093167   4.9088365
   5.1535463  12.3858363   5.1917249  88.2345160  99.6963324  43.0027086
  88.1611117  98.9858211  43.6398965  87.4047144 100.1681961  43.0734808
  18.1657445  39.0966797  56.6454601  17.5383008  38.5984683  56.1216974
  18.7103271  38.4303617  57.0646048 107.4182042  93.6023964  13.7592584
 107.4724396  94.5383610  13.9522821 106.6596945  93.2985844  14.2578393
   3.6732912  20.3648049  36.2384302   3.7478662  21.3190133  36.2508852
   2.7881408  20.1895530  36.5578348  33.4349680  35.3082663  11.8135435
  34.2882729  35.4296405  12.2299272  33.6378384  35.1637656  10.8893186
  31.9072318  43.3712435  78.8100004  32.0404887  42.6866341  78.1544209
  31.5818000  44.1205263  78.3111000  14.3313313  28.2945973  25.8991987
  14.3469954  27.5388677  25.3119546  15.0944662  28.8126380  25.6432802
  66.2943943  97.1513237  28.1329805  65.9076913  97.4240507  27.3009283
  67.2025236  97.4499334  28.0843336  84.0203818  86.6619076  13.2997877
  83.9941271  87.1336354  12.4673063  83.8976725  85.7437147  13.0587465
  66.4337540  68.6178732  65.2730370  66.2923670  69.5532942  65.1273346
  66.2586546  68.2139349  64.4230938  90.4630212   8.4657723  22.9262811
  90.3618018   9.0701110  23.6616498  90.4636924   7.5971562  23.3284551
  72.8964385  83.5625662  19.6156675  73.6271127  84.0062155  20.0463850
  72.7840885  84.0328659  18.7895757  67.4994755  83.1394768  78.2943821
  66.5490437  83.1277466  78.4073639  67.7797794  83.9559555  78.7079430
   6.4415312  25.3093345   3.8975126   5.5263090  25.1774222   4.1449052
   6.6648436  24.5335109   3.3832532  11.6903353   2.0670850  45.2493173
  11.9218111   2.8170354  45.7972509  11.3466120   1.4185674  45.8637315
   0.3794474  44.1051912  70.6777048   0.1723119  43.5000610  69.9655628
  -0.0503812  43.7279034  71.4452505  14.3568564  26.2247331  53.7248975
  14.9090862  26.8797356  53.2979948  14.1759443  25.5809028  53.0400735
  55.2900167  97.0390667  32.0627195  56.1291989  97.3306097  32.4190980
  55.1378509  96.1881460  32.4738199  56.4874458  75.4544020  76.2616587
  55.6169987  75.1804686  75.9726763  56.3200426  76.1291170  76.9196606
  32.4252272  54.7688627  87.3000622  32.5892329  55.3714180  88.0255032
  32.5516534  55.3002930  86.5140343  33.2315612  58.7624264  70.0402498
  33.9235210  58.1578875  70.3084898  33.4954286  59.6063471  70.4068518
  85.5873680  49.3166924  81.3875008  85.3704453  50.0558901  80.8193779
  84.8188114  49.2121029  81.9484138  36.9892931  14.6189744  14.1329748
  36.4485216  13.9469392  14.5478994  36.3912153  15.0765330  13.5420591
  10.2059412  22.8317172  21.7176038  10.5740070  23.6713273  21.9929487
   9.2884207  23.0242402  21.5244085  19.4135857  10.2748591  13.7371999
  19.0770388   9.5951945  13.1532270  20.2162981  10.5787570  13.3134824
  93.0419509  25.6624896  33.9965803  92.4992482  25.0806195  33.4644777
  93.5490767  26.1659104  33.3596975  93.1886157  85.6100811  22.2259122
  93.8740834  86.2151374  22.5092393  93.6289223  84.7626199  22.1612817
  35.7572473  91.2233652  24.1274625  35.4984843  90.3857936  24.5118505
  35.2735694  91.2679924  23.3026678  98.1892530  37.0754630  30.4335958
  98.9009015  36.6997725  30.9519083  98.2423512  38.0165107  30.6004697
  35.0090075  34.2942953  73.1207895  35.0985026  34.9856639  72.4648714
  34.5577741  33.5857439  72.6619053 100.7112654  83.5462059   5.4858762
 100.3506096  83.7218846   4.6168024 100.1736649  82.8321494   5.8284265
  77.1279764  42.9269457  87.0962620  77.9096889  43.3759785  86.7745113
  76.4154816  43.5478020  86.9442081  10.3242111  42.8819281  13.6992628
  10.0002384  42.6755053  14.5760042  11.2740612  42.9399688  13.8024313
  91.6157341  48.2840967  80.9118271  91.2111378  48.4043312  81.7709446
  91.7897701  49.1730738  80.6025219  31.7515755  44.8384101   5.3687364
  31.4573336  45.5019767   5.9927064  31.3709164  45.1096064   4.5334035
  52.1268797  84.3012047  81.7278481  51.3257694  84.6348667  82.1317387
  52.6037598  83.8878822  82.4475670   3.1300473   5.8221537  24.6011430
   3.6873007   6.2768275  23.9694959   3.0259538   4.9422747  24.2388994
  28.9941693   1.4697177  30.5630476  29.3014240   2.1412475  31.1720449
  29.0680790   1.8771417  29.7000391  69.3535995  81.7209053  73.4766912
  69.9718285  82.1564293  72.8898811  69.8882341  81.0966682  73.9673376
  83.6737879  98.3050741  30.2046186  83.5593327  98.5771908  31.1151582
  84.3327292  97.6118435  30.2428323 103.1674878  28.9360434  15.7025796
 102.6033966  28.4320170  15.1160699 103.9807264  28.4328706  15.7437212
  23.2533550  71.6910553  76.6469765  22.9008389  70.9586239  76.1415005
  23.6167264  72.2834444  75.9887457  36.8191447  87.3274530   3.7612993
  36.9063020  87.8163256   4.5796186  35.8785958  87.1727551   3.6737329
  97.5359361  33.5377128  14.6182138  97.6173560  33.7188441  13.6818391
  97.8918569  34.3171889  15.0447828  59.6242913  88.2306351  29.9413950
  59.9526366  87.5052132  30.4726106  59.6632417  87.9056252  29.0419084
   1.3575546  97.6884426  31.5900404   2.1032993  98.0518068  32.0676023
   1.5170089  96.7446817  31.5790540   2.1963024  25.7792193   2.4305421
   1.4328218  25.4757506   1.9393903   2.9435396  25.3900010   1.9762594
  31.9646073  13.7045485  21.6381628  31.4349175  13.0347402  21.2057096
  32.6994038  13.2215649  22.0163709 103.5834543   5.0603682  17.0820314
 102.8557722   5.6631905  17.2347147 103.2786362   4.4910581  16.3754922
  43.7032747  83.5569572  80.1637650  43.1871176  84.3601894  80.2319050
  43.5278034  83.0895042  80.9804249  84.8948924  14.9967582  25.7184583
  85.4847817  14.9580628  24.9656278  84.2739408  14.2829425  25.5731374
  59.1531285  96.1396946  21.1699277  59.3852266  96.8621267  20.5864412
  59.7748717  95.4456676  20.9508592  43.1078005  49.2277575  87.1949005
  42.1807289  49.0919590  86.9991302  43.3687162  48.4420919  87.6754093
  17.3224926   9.7133643  10.0966531  17.9529333   9.3917043  10.7411081
  16.4946747   9.3022639  10.3455431  35.6647778  35.9816003  71.0322189
  36.3657808  36.5186429  70.6628752  35.1666546  35.6819129  70.2717638
  37.4071836  44.6379900  81.8627739  36.8275571  45.1282310  81.2797451
  37.0325136  44.7641039  82.7345181  15.4128266   6.3769395  36.2014467
  14.7961426   5.8080537  35.7406885  16.0742045   6.5949065  35.5447084
  76.6246327  95.4178919  30.4532796  76.1180838  95.5994476  29.6616537
  77.3231371  96.0723175  30.4460126   9.8707724  27.3338515  10.4994661
   9.6989203  27.3758513  11.4401704  10.1742745  28.2126958  10.2719575
  63.0431271  31.4458568  63.2651121  63.8699246  31.6382701  63.7073881
  62.4032498  32.0120818  63.6965925  14.4698858   7.1960694  17.1388227
  14.6371222   6.5911967  16.4160615  14.8335362   6.7569310  17.9076845
   7.8301183  90.6040348   5.7210428   8.2470218  90.7642545   6.5676576
   7.3887912  91.4272417   5.5117780  17.5299001  83.6425495  80.9212112
  17.1132267  83.1750488  80.1972961  17.7774417  84.4889069  80.5488586
   5.8904076   9.0755946   0.1565630   6.8428850   9.0289456   0.0738317
   5.7405663   9.3036467   1.0740453  99.5521609  14.5451314  20.1109773
 100.1525132  14.6632058  19.3748647  99.1933743  15.4182059  20.2698595
  32.5468302   4.5176465  11.3967496  31.6942263   4.7053773  11.7892534
  32.7718687   3.6448438  11.7189485  64.2792606 100.7523823  84.9480915
  64.0973949 101.5041065  85.5120564  63.8756371 100.0110722  85.3995228
  23.4042502  39.2443568  37.3890478  24.1468382  39.1050727  37.9767496
  23.0991793  38.3625800  37.1754343  78.4044274  95.1576914  25.4140836
  78.4251269  94.8185982  24.5191938  78.4434994  94.3772472  25.9669000
  96.9645946   8.8859469   6.5759641  96.0117475   8.9656455   6.5316469
  97.1409099   8.6189086   7.4780923  67.1964216  45.3473949  84.9816799
  67.0050097  46.1040306  84.4275188  68.1339550  45.1949024  84.8633480
  15.2358162  59.3767405  80.4410076  15.8874822  58.9466000  80.9946632
  15.5029309  60.2958012  80.4265499  10.0846481  15.7728059  20.4093248
   9.7205687  16.3214499  19.7145826  10.9662628  15.5559642  20.1060564
  15.1015949  26.6946895   4.8027402  14.4546890  27.2668559   5.2155000
  14.6773005  25.8372552   4.7709066  45.2362633  63.3527756  81.4035892
  45.9832478  63.5130882  81.9802570  45.2179098  62.4020386  81.2941074
   5.1543657  85.8945168  25.3446371   4.2447082  86.1898316  25.3053266
   5.6288139  86.6309704  25.7303411  68.2564880   7.2843749  24.7413713
  68.9539932   7.9375560  24.7967607  68.6405279   6.5659005  24.2388422
  82.5765721  40.2423770  11.8226415  82.3788278  39.9891860  10.9209615
  81.9573419  39.7412974  12.3533994  71.7527723  55.9180498  78.6601353
  72.6386642  55.7710028  78.9914989  71.4019537  56.6144991  79.2152166
  66.9189215  23.3676791  62.3176622  67.7139997  22.8903484  62.0805264
  66.4038324  23.3906555  61.5111971  14.8682547   4.3453986  10.8318025
  15.1661635   3.4764726  11.1009580  15.1452923   4.4213874   9.9187261
  50.4536867  30.4692388  81.8081760  51.1794996  30.3974295  82.4280739
  50.7821083  30.0619364  81.0066319  18.6704159  44.2812545   4.3703825
  17.7150059  44.2869193   4.3121034  18.8527918  44.1984183   5.3063947
  78.9325428  44.4354057  84.7564507  78.9998484  43.5139179  84.5063400
  79.4623327  44.5074034  85.5504036  58.6372089  63.1892443  82.4239826
  57.9044437  62.6056242  82.6206398  58.2270765  63.9758635  82.0644569
   5.8241987   6.8923623   5.9172613   4.9348593   7.0189530   6.2478429
   6.2382269   6.3149650   6.5586835  63.5235985  16.7194761   9.4680006
  62.9321512  17.3519911   9.8758585  64.2601999  17.2460092   9.1574937
  62.6000643  59.1840315  86.5025902  62.6324129  58.5815954  85.7594490
  62.1524143  59.9590921  86.1632919  17.5494719  14.9681336   7.5551874
  18.3900976  14.5199782   7.4616891  17.4946070  15.1824958   8.4864599
 100.1375954  20.1865298  10.4729253 100.3365795  19.2975432  10.7667619
 100.2497832  20.7278211  11.2543661  46.5681585  82.6979054  17.6776487
  45.9711935  82.2003354  17.1188146  46.7767902  83.4807981  17.1679575
  85.4518946  99.8466696  40.8450967  85.1478251  99.8638452  41.7525465
  85.4749688  98.9171375  40.6177789  45.0446939  52.3338842  79.9898148
  44.1110468  52.5326633  80.0606632  45.1609230  52.0496082  79.0832233
  95.9400757  87.4159445  27.0229990  95.8316859  87.9670085  26.2478811
  96.3728865  87.9829039  27.6613218  10.2007127  58.1516361  66.5942574
  10.7448757  57.3766994  66.7342377   9.6145445  58.1725073  67.3507023
  44.6342134  51.7321587  86.5565205  43.9334154  51.0930920  86.4272404
  44.2651176  52.5586367  86.2451744  49.6543368  66.3647164   5.4848081
  50.0856729  67.0070208   4.9212247  48.9147337  66.0489429   4.9656660
  10.9425592  70.5093622  87.2248459  10.5582762  71.0329485  86.5217018
  10.6403971  69.6176910  87.0520687  63.1679497   9.7856957  21.3730222
  64.1216437   9.7631461  21.4517099  62.8851472   8.9098746  21.6360742
  94.6171085  21.1110265   3.5787851  95.1519696  20.4578454   4.0299017
  94.0376918  21.4565522   4.2578393  83.9058074  99.3106665  13.5976774
  84.1016921  98.4158434  13.3199102  82.9829033  99.2863811  13.8504392
  61.8944788  74.4506264  72.0112753  62.3866606  75.1642990  72.4170589
  60.9800053  74.6413088  72.2201109  61.3585377  35.8474994  87.3305511
  61.0983944  35.7165694  86.4187336  61.7569971  35.0160336  87.5876999
  22.4799776  32.1378524  25.6505853  23.1892300  32.6031501  26.0940916
  22.0158672  31.6828067  26.3532716 102.3854534   9.6873147  35.9689981
 102.2028558  10.6266457  35.9922773 102.4093978   9.4709975  35.0368673
   8.4059572  14.5069081  13.4283525   9.0020704  14.4473464  14.1748983
   7.9808998  15.3586728  13.5286218  65.7444143  63.3002281  71.8870020
  65.6455994  62.4857426  71.3939714  66.6899490  63.4000778  71.9975519
  98.8261215  23.3414561   1.4459974  98.5347692  23.5460431   2.3345357
  98.1110160  22.8266770   1.0720235  99.5217268  13.8705642   0.1652605
  99.6563212  13.4249122  -0.6711024  98.9554898  13.2804877   0.6626779
   7.7449417  52.9175758  58.2625341   7.7240437  52.0033360  57.9797602
   8.5556066  53.2648897  57.8904772   0.9857059   7.2540528  21.7272073
   0.6058240   7.9014975  21.1332876   0.3066135   6.5857465  21.8190462
  14.9009991  45.1269156  22.0316488  14.0233183  44.9463755  21.6950304
  14.7545529  45.4533965  22.9194528  67.5326570  96.4530291  -0.2055949
  68.0068382  97.2821058  -0.1422614  66.8105443  96.5419926   0.4163915
  42.9236364  52.3300266  76.8266392  42.5359488  52.8877640  77.5010681
  43.5128927  51.7481327  77.3066473  89.5856802  22.7035672  24.3326170
  89.2927842  23.0022580  25.1935655  89.0342776  21.9447190  24.1420061
  51.3744545  33.5464103   6.8041402  51.4993572  34.2936141   6.2190610
  52.0501232  32.9212100   6.5417654  18.0362225  33.0042750  40.6952745
  17.2106457  32.5450713  40.5410558  18.7095785  32.3937041  40.3952295
  85.4224126  19.1439301  15.8215505  85.9762184  18.7234742  15.1637155
  84.5849804  18.6846072  15.7586366  89.2232506  48.5756690  28.3545000
  89.0842299  49.4185168  27.9226285  88.4806852  48.0390841  28.0771905
  46.3124466  11.3042981  14.6509153  46.5970421  11.9899470  15.2551729
  46.1606789  10.5413587  15.2087003  58.1576347  63.7520981  70.4386044
  58.9015675  63.9606094  69.8735189  57.4449968  63.5511446  69.8319817
  41.5875912  36.9186313  18.3902437  41.1108732  37.7484805  18.3721429
  41.4024353  36.5548808  19.2560560  42.1186781  44.1976268  23.9531881
  42.6600456  44.7136790  23.3558351  42.3488951  43.2887370  23.7604314
  29.7532988  57.0651442  17.6864034  29.6164417  56.4702803  16.9490892
  28.9442492  57.0067794  18.1945974  34.8999643  33.7603576  21.1123830
  35.7015848  33.5170752  20.6492979  34.8868418  33.1926734  21.8829614
  23.3958531  25.6839473  14.4867212  23.8252020  26.2828833  13.8758451
  24.0764094  25.4611213  15.1218683  41.4457703  41.9375617  21.7872602
  41.2423563  41.3073546  21.0961134  41.3825417  42.7913195  21.3590890
  12.6834726   9.9132211   8.3457929  11.7838860   9.7501237   8.0622942
  13.1982994   9.8808247   7.5394804  95.0732605  22.2613294   8.7334520
  95.9912960  21.9910199   8.7528307  94.6730511  21.8032462   9.4725210
  18.5523558  31.6545779  11.1120779  18.8064861  32.3540122  11.7141038
  18.9642716  31.8921668  10.2813512  33.3168888  30.2507598   1.3578111
  33.6470175  31.0642917   0.9764844  32.4015427  30.4379660   1.5659696
  26.6089201  47.9458053   4.2564184  26.5611553  48.6768443   3.6403638
  25.7259083  47.5763232   4.2585832  11.4648628  67.1740246  86.9367504
  11.1433792  66.7021990  87.7050304  12.3323119  67.4868631  87.1934509
  83.5596180  72.5181055  65.2956533  83.5671234  73.2315254  64.6575212
  84.2457676  71.9216681  64.9961805  10.0198126  17.5611121   5.9331113
   9.1710997  17.1283299   6.0259611  10.1693678  17.9794557   6.7809660
  45.4786301  81.3026142  49.3761730  45.6272840  81.1014462  48.4522343
  46.3558340  81.3389587  49.7575235   6.5912724  16.5426976   2.5731260
   6.4309645  17.1751649   3.2735044   5.7209969  16.3389642   2.2305662
  39.3036543  28.9831202  85.9236622  39.2777862  29.7911208  86.4362049
  39.6624335  28.3298629  86.5242958  38.2266188  34.0035636   1.3072950
  38.0226135  34.9200637   1.1211854  38.6349774  33.6811644   0.5038435
  20.3550045  21.4486545  83.9352226  20.7184784  21.0066264  83.1679440
  21.1153404  21.8289702  84.3751049  45.2403450   1.6911609  25.5345708
  46.1886692   1.7378098  25.6559927  44.9230576   2.5567872  25.7919485
  62.1260929  71.9299269  86.7399406  61.3291645  71.8319321  86.2188530
  62.8011799  71.4798450  86.2320900  99.1728894  27.6112897  27.8119260
  98.8280646  27.8032166  26.9398576  99.9378602  27.0589501  27.6507741
  23.0054188  45.7533843  39.2125303  23.5004330  45.0020224  39.5391161
  22.7274275  45.4935843  38.3342058  94.2058945  84.5946217  85.9367085
  94.8853111  85.2094746  85.6599712  94.6516132  84.0013981  86.5413952
  56.3573694  85.5399132  78.5824060  55.6427813  86.1356544  78.8075304
  57.0985985  85.8468914  79.1044903   8.7598276  11.5931374   9.7813016
   9.4736767  11.2156112  10.2952272   8.4505987  12.3310334  10.3067762
  91.3223128  45.9869487  13.5093957  90.8512072  45.1634318  13.3824235
  91.8318634  46.0976130  12.7066881  53.2950258  55.1186419  86.9153976
  54.0369987  55.7145643  86.8125248  53.6791706  54.3168736  87.2701263
  18.6355639  54.7069938  33.8804227  18.9196444  55.6189448  33.9427167
  17.7067900  54.7291762  34.1109067  48.8295221  98.8187599  54.4393063
  47.9558277  98.5557938  54.7286844  49.4178057  98.4769917  55.1126194
   7.4701548  27.8733737  29.4666940   7.4590874  28.7353522  29.8827440
   6.9217444  27.3281056  30.0307542  97.0197765  29.3005854  11.8093187
  96.3673942  28.9001758  12.3840410  96.5050451  29.7799117  11.1600763
  40.9609127  48.5706241   2.6131231  40.7474661  49.2059523   3.2965261
  40.7254076  47.7235515   2.9915792  25.5057287  28.4568889  23.1455785
  26.3753605  28.1465060  23.3978254  25.2430487  27.8779704  22.4299699
  96.5221064  26.9856984   6.3959676  96.5731709  27.7580411   6.9590932
  95.8954231  26.4103848   6.8347341 104.5485036  25.3196628   8.9480192
 105.1268594  25.3787095   9.7084409 105.0365059  24.7913319   8.3163911
  26.0384178  25.4989440   3.5926706  26.6208887  25.9954984   3.0178720
  26.5621281  25.3293759   4.3757421  34.9039769  76.5884113  84.9531269
  34.5373225  76.6803360  85.8325291  35.7529449  76.1680984  85.0903320
 100.6438271  13.6427600  31.7608243 101.5476028  13.9420325  31.6615469
 100.6784431  12.7067382  31.5635854   4.7323942  20.2098615  16.0121805
   4.6106625  21.0682589  15.6065160   5.4502297  20.3376634  16.6323453
  36.9744515  81.7933273  72.6090860  36.8216562  80.9984493  73.1200314
  36.3787174  82.4397469  72.9878664  94.0222263  99.8526382  71.2696648
  93.7656212  99.8597050  72.1918011  93.4852791  99.1644096  70.8768988
  91.1568610  31.5510280  42.7406484  91.7402939  31.9285018  42.0823556
  90.3715531  32.0972258  42.7061063  13.8372994  27.4916465   8.0880910
  13.4448767  27.8908641   8.8645345  14.7571612  27.7541024   8.1227857
   7.1426471  81.8252087  73.0310106   6.3307555  81.3192844  72.9977608
   7.5606235  81.5538979  73.8482761  17.8924847  23.6875493  13.1123525
  18.0200529  23.8658387  12.1805936  17.0255041  24.0430838  13.3077413
  23.2152462  25.7332713   4.1379816  24.1157913  25.9448344   3.8920290
  22.7416277  25.6994063   3.3068544  21.6159582  38.5627562  17.0089513
  21.8790913  37.8712375  16.4016515  20.9321690  38.1624514  17.5459940
  93.8412245  78.9462317  47.3118478  94.6514615  78.5725488  47.6584131
  93.2144412  78.2231940  47.3360712  73.0187607  67.4078894  74.5724487
  73.9373016  67.6266193  74.7295380  72.7019453  68.1037760  73.9965963
  24.8102045  14.2513329   0.2893907  24.5949555  14.9040467  -0.3768366
  23.9617539  13.9161975   0.5792982  60.4658556  63.4914923  74.5841074
  60.8684826  64.1249752  73.9901209  59.6840286  63.1916523  74.1203403
  54.5492172  59.0522582  23.9220315  55.3245735  59.1462428  24.4754106
  54.8789311  59.1516024  23.0289156   4.3528032  58.0570418  22.1184713
   4.9509669  58.5467917  22.6829034   4.9194527  57.4602801  21.6295797
  80.3698349  73.7918425  58.5301542  81.2587547  73.7208223  58.8780117
  80.2242661  74.7331381  58.4352398  87.4302395  78.0593122   8.9735395
  88.3617266  78.0243315   8.7559492  87.4057969  78.0163301   9.9294549
  21.5621996   5.2671439  19.2304689  21.0342884   6.0205132  19.4949895
  21.2110090   4.5375163  19.7408945  59.2423248  69.9402714  88.3661366
  59.0299892  69.5043850  87.5408268  58.7051582  70.7325363  88.3636951
  13.2216549  10.0880486  29.8110944  12.9306698  10.0511844  30.7222539
  12.4346256  10.3185803  29.3174631  47.5001287  82.0920181  51.0050821
  47.5107861  81.8410110  51.9287205  46.8596411  82.8017426  50.9571362
  33.3987308  89.2219353  40.7638550  33.4187651  88.4602833  41.3432598
  32.9916668  89.9113464  41.2884998  79.8581553  83.6696053  87.0519161
  79.6707106  82.7319813  87.0960903  80.6227398  83.7343025  86.4796734
  88.8861275  91.7127800  72.6655912  89.4370079  90.9469414  72.5036049
  89.4929695  92.3814964  72.9830694  57.4825430  63.6603880  85.2415180
  57.4205828  62.8436470  84.7462177  57.0484924  64.3096495  84.6880913
  37.2145701   5.8860452  24.9489099  37.5411797   5.4306132  25.7248861
  36.3544607   6.2158448  25.2090532  55.6927156  76.1692715  68.2764196
  55.8618879  75.7154083  69.1020203  56.3853502  76.8274117  68.2186079
   2.6133871  11.0602528  25.5968648   2.4693251  10.2899939  25.0471574
   2.7530289  11.7750556  24.9757463  37.1080160  29.3795020   0.5987150
  37.0003128  30.0486857   1.2746030  37.9049349  28.9121682   0.8492071
  53.4787369   9.0880973  31.6692907  54.1963959   8.4771926  31.5019781
  53.3856869   9.0931613  32.6219446  71.8921041  75.6903791  86.1380482
  72.4461079  75.4343081  86.8754387  71.3968611  76.4432907  86.4606762
  27.2953653   7.9882199  10.9078771  27.0005131   8.5968358  11.5852815
  28.1633091   7.7083403  11.1986810  25.2591324  41.0565860  32.6191503
  26.0119820  41.2762362  33.1679613  25.5287886  41.3007647  31.7337686
  24.8804808  70.9704024  35.2453119  24.2274857  70.4498774  35.7131559
  25.7050657  70.5062777  35.3898126   5.8550072   4.4050032  -0.0002879
   6.3432932   3.9737851   0.7010442   4.9400616   4.1844088   0.1742059
  76.2849331  94.7996998  85.7406902  75.6054592  94.1638660  85.5164909
  76.0961056  95.0424290  86.6471386  86.9120312  70.3602123  43.6481142
  86.1562538  70.1228762  43.1107998  87.6694393  70.1565361  43.0993986
  34.0952158  53.1013781  27.8127939  34.7953224  52.5103957  28.0899602
  33.6435843  52.6269442  27.1148187   0.5265880  16.8466718   9.3640405
   1.0959411  16.2795741   9.8841077  -0.1210928  16.2527186   8.9846117
  18.8557196  22.1671969  22.0808393  19.1955042  21.5986735  22.7718908
  18.9364481  23.0519015  22.4372274  29.8464251   1.0385234   4.0214902
  30.0906038   1.9302136   3.7735063  29.4222260   0.6806857   3.2415945
  59.4572163  57.4794769  82.2842789  58.6685562  56.9378281  82.2548962
  59.7230005  57.5654125  81.3687420 100.7153003  30.2680022   5.4535848
 100.0613539  30.3554541   6.1470777 100.2126257  30.0071723   4.6818811
 101.7311804   9.2273480  24.4337827 101.0803024   9.8725421  24.1575414
 101.9717161   9.4945056  25.3209192  80.1944475  46.2489898  22.4126894
  80.2418725  45.5611045  23.0766183  79.7622029  45.8327205  21.6669637
  19.3441105  64.6110446  50.9694368  18.7498379  64.9221236  51.6523057
  18.9647246  64.9390227  50.1541311  20.8678103  30.2063662   2.9558069
  21.8168926  30.0993068   2.8924734  20.6523132  30.8414275   2.2728139
  32.8104115  22.6581246  39.3446428  32.1699572  22.2926814  38.7343103
  32.8955364  23.5746867  39.0821439  64.7942638  66.4137506  41.2962246
  64.8219681  67.2541571  40.8388662  65.0894403  66.6145563  42.1843576
  43.9983702  83.4880924  83.7620640  43.9527082  82.9600906  82.9649639
  44.3508816  84.3294716  83.4721565  78.9457273  89.2740440  66.6795540
  79.2644310  90.0546169  67.1327257  78.7949324  89.5641994  65.7799387
  75.6562074   1.9703906  76.7712784  76.5786179   2.2070830  76.6745090
  75.5224689   1.2644237  76.1388636   9.9931050  17.9831559  12.9471952
   9.0958691  17.6521689  12.9878122  10.0336409  18.4645278  12.1208459
  19.2073536  32.8814990   8.5645277  18.6663962  32.7522952   7.7854902
  18.9070511  33.7139708   8.9292795  72.1263599  40.4557896  79.6268415
  71.3834810  39.8703933  79.4796371  72.3702192  40.7579708  78.7519407
  29.4744778  28.8937241   3.8135892  29.3107319  27.9603679   3.9487154
  29.9545431  29.1682441   4.5948774  68.6523350 101.4574732  40.1033670
  68.7581190 102.4061407  40.0321085  67.9356106 101.2506784  39.5035535
  45.9939241  99.5625973  57.7934933  45.0759172  99.8280239  57.8486681
  46.1021328  98.9261818  58.5002470  17.2049236  43.3972365  19.7200662
  17.1667814  44.3477351  19.6135885  17.8079415  43.1037242  19.0371019
  12.3260546   8.4871442  17.8575498  13.2413292   8.2256228  17.7569944
  11.9336081   7.7888257  18.3815366  16.5627575  83.7337977  14.2149431
  17.2722101  84.0654570  14.7653181  16.8050146  83.9974315  13.3272344
  59.5010853  18.6579425  24.7779161  60.4224777  18.5511834  25.0143034
  59.5151138  18.8505799  23.8404066  61.3117456  91.6760159  63.9732409
  60.9893370  92.1952820  63.2365942  62.2648048  91.7093277  63.8908195
  27.2936010  66.3890266  81.5444183  27.8249502  66.8283939  80.8804512
  26.3985729  66.6760588  81.3633919  32.4522305  43.2055957  23.4346181
  32.7887678  44.0668399  23.1871587  31.9026566  42.9420764  22.6965314
  17.9391885  49.5274973  71.3214588  17.5389218  48.6615801  71.4002371
  18.3959186  49.6567535  72.1526766  48.4596729  30.1775844  23.1039220
  48.6935997  29.3349749  22.7146703  47.5173187  30.2565104  22.9557401
  28.6217356   2.8767783   9.9241239  27.7582455   2.5080115   9.7380239
  29.1544581   2.1230561  10.1777917  47.1796127   0.5137389  85.7736397
  46.3465937   0.4203933  86.2358093  47.4516161  -0.3846986  85.5863953
   9.9544716  54.4667918  21.5852434  10.2295256  55.1220233  22.2265226
  10.4147196  54.7099025  20.7819349 106.5130727  12.6047522   6.4914304
 106.2567179  13.3538682   5.9535295 105.8633224  11.9314534   6.2896234
  77.6011753  78.3860111  81.6507339  77.0819855  79.1830635  81.7574120
  77.6289558  78.2430983  80.7046700  23.7048674  36.0373504  11.1620218
  23.0637121  36.6770083  10.8522016  23.6385536  36.0746199  12.1161920
  12.9062605  39.5036227  57.3384172  13.5657168  39.7004706  58.0037004
  13.3106041  38.8292605  56.7925436  62.8705406  81.3822269  78.3247232
  63.5278320  82.0770931  78.3617878  62.2684956  81.5835667  79.0411234
  45.8789635  92.2433090  84.5443344  45.4671001  91.3807297  84.4936848
  45.4449892  92.6730347  85.2813816  60.3887033  78.4733677  75.5037975
  59.9588919  77.6426125  75.7071066  60.3471470  78.9707279  76.3205814
  75.6021404  96.2418652  59.0000153  76.1040211  97.0569229  58.9949083
  76.2485933  95.5637550  59.1962147  41.3547564  67.2375209   9.5111734
  41.0331440  66.3515670   9.3442136  40.5635691  67.7738196   9.5625764
  36.1270738  96.5206146  62.1037292  36.4698482  96.7129135  61.2309408
  35.8491182  97.3707962  62.4445581  61.8724203  91.1682510  79.9388313
  62.5642443  91.4709759  80.5270195  61.9493341  91.7314720  79.1687059
  92.4788245  85.1050509  14.9516660  93.4140309  85.3089417  14.9586088
  92.4420556  84.1520657  14.8698217  36.3394022  42.9735858  24.5514471
  37.2140789  43.0920607  24.1811258  35.7442379  43.2254989  23.8453657
  60.1502991  83.2723999  68.6898708  60.1476192  82.7909184  69.5171547
  59.2701960  83.1449795  68.3357334  35.6530905  18.4322411  12.9235918
  36.2811804  17.7245051  12.7792341  34.8033524  18.0449302  12.7134496
   4.0153551  34.8217875   8.4577734   4.2927504  34.9822719   7.5558168
   3.9105368  33.8718135   8.5106832  21.3054085   6.4584548  37.4124414
  21.6753912   7.1516711  37.9590684  22.0116139   5.8179385  37.3273260
  66.5132698 101.2037672  12.0008165  66.0536726 101.1209930  11.1652643
  66.4342006 100.3393759  12.4043256   6.4056254  30.7178409  21.7349035
   6.9249535  31.5207202  21.7786485   6.2992001  30.5521590  20.7981760
  66.8620014  90.8730602  71.2480354  66.3530684  90.8150673  72.0566511
  66.6288567  90.0826359  70.7610893  51.8025685  26.3634545   8.8278848
  51.7740345  25.9737594   7.9540712  52.3935986  25.7967860   9.3236715
  52.2650623  47.4103743   6.8329031  52.4987888  47.8452403   7.6529581
  51.4684296  46.9216067   7.0395738  75.0316890  10.4902308  71.1298513
  74.2202481  10.2102893  70.7062531  74.8795327  11.4077514  71.3561916
  13.9780092  12.1929080  36.0246736  14.7434378  11.6598851  36.2396986
  13.5964441  11.7657191  35.2577669 107.5294026   1.2930243  53.0269623
 107.1572360   2.1730655  53.0838919 107.1542319   0.9256213  52.2266531
   4.0883684   8.7547786  16.6561109   3.1705833   8.9275700  16.8659765
   4.1665793   7.8014094  16.6906911  12.2278357  33.4114367  14.1358453
  12.2351265  32.4739177  14.3288118  12.0085526  33.8260180  14.9702722
  54.2585369   2.6055663  65.4810333  55.2113935   2.6266425  65.5696535
  53.9529797   2.1780532  66.2810993  67.8921413  92.2063828  64.8439789
  67.2253180  92.5337124  64.2402935  68.4128094  91.5984821  64.3190050
  80.7121949  20.4175336  12.1663934  81.2219952  20.0080211  11.4673692
  81.0510830  20.0254924  12.9711896  22.5951290  66.1979014  15.4172689
  22.0925856  65.9682376  14.6356470  22.8509331  67.1097476  15.2781755
  74.8833942  85.6626415  84.3958187  75.6675100  85.1509380  84.1969299
  75.2186155  86.5048218  84.7033787  48.0032921  86.1564922  85.9541035
  47.8301001  86.5330982  86.8168926  48.7510109  85.5750656  86.0922718
 104.5094196  62.7203853  33.9673025 104.3885653  62.8823954  33.0316907
 104.5675795  63.5931880  34.3559629   5.2326727  24.5602710   9.2511350
   5.3757000  24.0966803  10.0762731   6.1065674  24.6463735   8.8701803
  31.4682722  26.3548333   7.6831419  30.8949757  25.5967147   7.5698930
  32.3528910  25.9892709   7.6765329  46.5914726  44.3050010  13.2509309
  47.4498940  43.9682872  13.5077459  46.6716099  44.4742019  12.3122198
  27.1059323  61.3401515  18.2415754  27.3699951  62.0520694  18.8243848
  26.1950016  61.5357119  18.0220491   2.2462750   1.4670188  15.6764204
   2.6557827   2.2955233  15.9256536   2.1302009   1.5328128  14.7285635
  19.0645266  38.0350215   3.9566022  19.1752339  37.7523715   4.8643953
  19.0645552  38.9911563   4.0017587  87.1255167 100.1849188   4.9967557
  86.9924029  99.4357075   4.4160635  87.1423014  99.8065866   5.8758527
  25.6266356  74.1398716  86.3344383  25.2582073  73.3957577  86.8106556
  25.1851344  74.1231441  85.4853058  36.0240841   8.3316476   8.5991842
  36.5548134   7.5884778   8.8859922  35.6017924   8.0283839   7.7954847
  69.5269108  24.2944152  24.9144632  69.4533634  24.8444850  25.6943685
  68.6978626  24.4209725  24.4530565  43.7715578  26.9555289  16.6554147
  43.9488459  26.2777812  16.0031396  44.1158104  26.5966899  17.4733049
  55.7288456  97.8273106  72.3229170  55.3818893  97.5305939  73.1642389
  56.6771507  97.8529263  72.4505329  33.8500881   0.1873738  10.5334837
  33.2497645  -0.2484601   9.9285871  34.3839073   0.7527978   9.9753076
  64.5600557  62.2078848  52.6394320  64.1721916  61.4217138  53.0237865
  65.0204945  61.8921995  51.8618870 106.3601486  26.5493256  43.6291868
 105.8528225  26.1655957  42.9139215 106.0748736  27.4624307  43.6621744
  83.2619476  62.0557308  83.0545616  84.1393661  61.9551992  83.4237003
  83.4117794  62.3702574  82.1630192  53.0643177  13.9715726  19.0904409
  53.4233856  14.8576981  19.0447885  53.2767487  13.5830457  18.2418233
  15.7418919  26.7004544  11.1919004  16.0042763  27.2892959  10.4843313
  16.5672684  26.3747985  11.5509683  19.1706562  26.4335973  30.3162462
  19.5173407  25.9105451  29.5934373  19.3301392  25.9009225  31.0953886
  26.5580034  49.3355185  58.7126237  25.9656763  49.4044024  59.4613725
  26.0725117  49.7267825  57.9863721 101.8651287  22.4609286  36.2254888
 101.9279830  21.7589528  35.5777914 102.5116579  22.2299773  36.8924982
  71.6078186  58.0423927  80.9756660  72.0998430  58.5681629  81.6063118
  70.7718515  57.8693438  81.4086246  81.4517879  56.3927126  72.0609856
  82.2120476  56.6667700  71.5480280  81.7656612  56.3777542  72.9651356
  87.8991155  20.0646312  17.3922807  87.9552929  20.7689340  16.7465002
  87.0093588  19.7243125  17.2987348  60.9424019  96.5922260  64.2232418
  60.6055021  95.7063293  64.0893602  60.3478098  97.1525097  63.7244701
  46.4130068  93.9049721  82.1162796  46.5450191  93.4214497  82.9317665
  45.5550289  94.3169117  82.2182846 104.2790191  49.7582347  18.1768781
 104.4744174  50.6245620  17.8197462 104.4629566  49.1552073  17.4566347
  12.6248447  99.5489944  15.8897764  13.1472007  99.7796596  16.6579992
  12.3466388  98.6474527  16.0512048  73.3715725  91.5690708  72.0445251
  73.4921408  91.0332584  71.2605572  73.9539385  92.3175907  71.9149446
  21.6391277  48.5652644  15.4939348  20.9981585  47.8792102  15.6802732
  21.1177206  49.3634612  15.4088003  46.8660069  90.9464169  88.2216358
  47.5260544  91.1234188  87.5513840  46.3302994  90.2451038  87.8509426
  60.7515343  98.2759632  14.1502744  61.1708888  98.2185806  13.2917482
  60.9266385  99.1703047  14.4430715  50.6471109  68.9273453  70.8578205
  51.3548899  69.4665527  70.5049181  50.6717968  69.0872145  71.8012524
  51.0399532  33.9418609  24.8944265  51.5101528  33.3228881  25.4530126
  50.1502896  33.9549357  25.2473527   0.3214932  36.1633880   0.6910593
   0.3023291  35.7813651  -0.1863879  -0.5739593  36.4672477   0.8396036
  28.1235790  32.3242576  17.8383714  28.7623501  31.8255145  17.3290140
  27.4016476  31.7124183  17.9822141   0.7638351  21.7528098  80.0914383
   0.4437582  20.9513038  80.5053997   1.6253845  21.5170806  79.7473431
  17.7619457  33.9299399  23.1294710  16.8727684  33.6524398  23.3498842
  17.7344752  34.0956218  22.1871168  69.1796303  79.3594790  42.3668957
  69.1042471  79.7324610  41.4885855  68.3920479  79.6574450  42.8220510
  67.8240395  93.8343525  83.3035755  68.3803749  94.5032215  83.7027550
  68.4385920  93.1895447  82.9531956  39.3997622  15.7517011  21.0428602
  40.1947594  15.3180320  20.7327920  39.4403029  16.6281897  20.6603033
  79.7671604  35.2113223  84.9410248  79.0105057  34.7469854  85.2989388
  80.3638077  35.3051853  85.6836128  53.8112927  20.5619676   6.6832525
  53.5244084  20.4978139   7.5941927  54.7616196  20.6625611   6.7379552
  83.6300858  82.0288099   5.8991510  84.3665274  81.5789951   5.4849607
  83.2727822  82.5884117   5.2096540  70.7420540  95.3641891  67.4658537
  70.9631920  95.8895683  68.2348204  70.7011938  94.4656849  67.7933502
  74.8439702  24.5174449  79.7925997  74.3467792  24.9095958  79.0747929
  75.7515510  24.7681182  79.6202993  70.2004528  39.1393614  77.8131676
  69.2957592  39.4442081  77.7436590  70.5307198  39.1626716  76.9150543
  46.4825630  23.4028298  10.3044111  46.0560894  23.5763986  11.1435873
  47.2356796  23.9935023  10.2917844  16.7580700  47.0032699   2.6757127
  16.1808157  47.6562507   2.2799474  17.3231077  46.7167766   1.9581586
   1.5533877  40.1564319   7.2954828   0.6210923  40.3111560   7.1434385
   1.9674301  41.0025603   7.1255762  97.8616135  56.4695842  12.3684389
  98.7240712  56.3538749  11.9696790  97.2665016  55.9841544  11.7971021
  68.1045818  66.6624260  78.5797739  68.3959150  67.4656868  79.0112019
  67.6308155  66.9649601  77.8050184  52.9925299  84.9048805  78.9986181
  52.9302788  84.3220711  79.7553825  52.2473717  85.4984665  79.0915155
  65.7563829  73.1108236  83.1937599  66.4972639  73.2981110  82.6173496
  66.0962009  72.4724674  83.8208580  10.2879620  45.8074672  -0.2126330
   9.4013119  45.8452422   0.1460630  10.7802296  46.4508063   0.2972871
  22.7415848  26.3680941   6.7884618  22.8278637  26.1218316   5.8675081
  21.9338083  26.8803603   6.8247396  62.2600174  52.1836955  20.9183294
  61.4467144  51.9139869  20.4916841  62.4660397  53.0323607  20.5264646
  16.2422323  19.0286071   6.2432367  16.4527607  18.6700446   7.1054060
  15.6634426  19.7686583   6.4264280  71.5634680  81.8412876  70.2364445
  71.4618874  82.7308273  70.5750275  71.5583515  81.9451523  69.2849112
  52.2054863  65.1802540  55.2062225  51.5309572  65.6648636  55.6820297
  52.2891140  65.6424522  54.3721914  25.7953167  49.6370227  25.8405096
  26.6177368  49.3009669  25.4842359  25.6982708  49.1902072  26.6814405
  21.8870783  30.3490931  23.4376031  21.2988472  31.0559470  23.7032777
  22.7611447  30.6672484  23.6634714   4.9343634  41.7773063  12.6780874
   5.4530859  41.6799456  11.8795377   4.5097208  40.9271819  12.7929956
  60.6402834   9.1680282  63.5211754  60.7516774   9.8328917  62.8416300
  61.2795719   8.4906238  63.3005762  48.8587379  65.3863192  81.2035656
  47.9333687  65.5728817  81.0450649  48.8559961  64.7556162  81.9235992
  18.0149889  34.4913775  20.2556211  17.7160168  34.8226172  19.4087869
  18.6796427  33.8384158  20.0362951  88.9779290  48.7170260  69.7118664
  89.7553357  48.6939280  70.2698421  88.4349688  47.9947036  70.0275755
  88.4177355  42.0695693   7.6994783  87.7344231  41.9205768   8.3530218
  87.9469482  42.1178443   6.8674547  76.2940454  97.1712208  78.6912727
  76.9402933  97.7339649  79.1177893  75.4751492  97.6639843  78.7443781
  84.5235634  78.7264538  75.8828497  85.4076576  78.4878922  76.1615849
  84.4243431  78.3160591  75.0238037  16.3620758  49.9145228  10.8544332
  16.2626267  49.6796805   9.9318296  17.2059870  50.3641803  10.8975011
  39.3107510  30.7280928   8.2450849  39.7314072  30.3684623   9.0260679
  39.3978453  31.6764552   8.3413202  53.4986210  92.8836441  29.5774317
  53.1687355  91.9972515  29.7247458  53.0502462  93.4180832  30.2328444
  54.1990471  81.0714054  79.7957277  53.2837820  81.3514423  79.7855854
  54.6872854  81.8573570  80.0409698  35.7315016  64.5241553  13.6273366
  36.0597515  64.3149859  14.5018274  35.8142281  63.7054736  13.1383020
  20.8355951  47.0404822  34.9732286  20.0664902  46.4915187  34.8204214
  21.4427281  46.8025405  34.2725069  36.5859795  64.6714312  20.0684148
  36.4336109  63.8596732  20.5522138  36.0259533  64.5983798  19.2955858
  19.2823267  69.2235762   7.2745210  18.7645340  70.0240142   7.1883756
  18.6430884  68.5479934   7.5007803  85.8801421   7.7925532  64.9971104
  86.5843161   7.1505111  65.0874090  85.9759530   8.3620780  65.7604599
  56.3488388  61.0416705  16.7987615  56.4093399  61.7027480  16.1091596
  56.8725395  60.3088958  16.4746839  60.9530544  63.5916567  83.9985180
  60.9602547  64.5213890  84.2260647  60.0649691  63.4298658  83.6801434
  15.1810837  35.9362800   2.4825937  14.8353577  35.7095916   1.6192800
  14.5055962  35.6451327   3.0951101  55.9367848  36.7765719   8.0879003
  56.8614960  36.7847926   7.8407651  55.9186840  36.3272387   8.9328844
  41.2443161  42.4410731   2.9310400  41.2600660  41.6402251   3.4550935
  40.6763315  43.0362994   3.4202558   1.6594339  31.3039595  43.3654958
   2.5442791  30.9720332  43.5174924   1.3066578  31.4557368  44.2422754
  24.0330744  40.4088408  27.9513532  23.0935621  40.4580600  28.1277830
  24.1094542  40.5760104  27.0119649  29.6327305  49.2043502  28.2439500
  30.2024746  48.5479648  28.6449224  30.2153540  49.7171218  27.6837236
  87.5968464   3.5017531  86.7208385  87.6934250   4.4078105  87.0140457
  86.9172438   3.1376021  87.2880745  72.2941335   8.1071990  87.1925926
  72.8689297   8.8151496  87.4835491  72.3730381   8.1113570  86.2386608
  35.9261274  53.0740172   1.9474966  35.2573919  52.5898272   2.4318391
  36.5125752  52.3979384   1.6080267   8.5027361  21.3255650  24.0643674
   9.3711853  20.9379537  23.9558107   8.6653567  22.2675616  24.1136819
  38.6891079  34.2946154  11.3616354  39.6060991  34.4660003  11.1471921
  38.5819960  34.6392924  12.2481805  96.6669329   6.6983645  79.2352629
  96.0857495   6.8317359  78.4864855  96.2251385   7.1368258  79.9624538
  35.5061674  45.3616912  46.0744173  35.5186987  46.1277110  45.5005724
  36.3245964  44.9043853  45.8813459  56.7457295  28.7474353  23.4267885
  57.3003102  27.9984290  23.2084543  55.8862114  28.5205943  23.0718118
  79.3051291  75.7889748  81.8740559  78.3800936  75.9153652  82.0851803
  79.3734837  76.0219574  80.9481621  16.9478655  35.5883700  12.9779703
  16.7426300  36.4598185  12.6393205  17.4758721  35.1824576  12.2904474
  44.0022946  44.2577750  19.9360639  44.1853523  43.5028941  20.4954130
  44.7287178  44.2759616  19.3129999  12.0424318  33.3555323  34.4617731
  12.7007389  33.9290339  34.8541433  11.2056446  33.7133986  34.7583467
  65.5613136  59.0999991  21.1394292  66.3486862  59.4532115  21.5535814
  65.1707459  58.5374648  21.8081838 107.4092309  43.4057910   5.4987699
 106.5047328  43.6689860   5.6686193 107.8939692  43.7039096   6.2684423
  18.7881899  36.6505153   6.4255888  19.4087029  35.9945018   6.1080247
  18.1147623  36.1434752   6.8790704  61.9843189  18.6652511  75.0861788
  62.9015152  18.4718841  74.8922634  61.5044395  18.3374064  74.3256140
  15.8871174  28.3360965   2.6102048  15.4301024  27.7688701   3.2311899
  16.7018795  28.5703570   3.0546266  22.0658398  52.9550940  14.7308618
  22.5604439  52.4042231  14.1241056  21.2547684  53.1569201  14.2643243
  50.3102398  59.7420604  26.5433008  50.6447506  60.5879313  26.2452394
  50.9039879  59.0994269  26.1550981  96.1837673  81.1748314  81.1522579
  95.9571743  81.8670654  80.5312061  96.3552856  80.4086113  80.6047821
  71.4911747  73.6276388  49.4464397  71.9222021  73.7171316  50.2964067
  70.5721140  73.8299084  49.6214771  18.2036877  18.2300813   1.4743406
  17.4289990  18.6707169   1.8235284  18.0500937  17.3015267   1.6487676
  54.4764805  52.2945983  21.2285978  54.3024349  51.8736369  20.3867322
  53.6088658  52.4896151  21.5827734  32.4672270  60.5999190  15.8767206
  33.4167433  60.5200107  15.9676439  32.1929360  61.0909087  16.6512758
  29.7637081  20.4494101  12.8481275  29.2042113  20.8979995  12.2141153
  29.8283482  21.0585267  13.5836679  42.4315357  88.4816742  81.2540627
  43.0550289  88.9143372  81.8373966  42.5650740  88.9036465  80.4053307
  85.8277702  28.0565984  17.2400457  86.5488053  28.6782081  17.1403390
  85.0652027  28.5158879  16.8882257  24.6913481  54.8139579  13.8754732
  24.0407038  54.9166781  13.1809598  24.2306471  54.3385989  14.5668680
  61.7337942  85.7532120  72.2731876  62.6275015  85.4901123  72.0534277
  61.2512350  85.6726170  71.4504623   1.8448854  21.8877036   5.8667356
   2.2662234  22.5343472   6.4329225   2.0402002  22.1842057   4.9778253
  16.7922870  15.4641860  71.6178370  16.4118950  16.3098185  71.8554163
  17.7361767  15.5904906  71.7145729  18.6792469  30.2444083   7.0881254
  19.4068861  30.6457335   6.6130430  17.9115009  30.4218394   6.5447027
  17.8165150  55.5598170   0.8516294  18.2815409  56.2314898   1.3504678
  18.0609703  55.7254702  -0.0588816  30.9905720  46.6431624   1.0344869
  31.1605215  45.8637053   0.5055124  30.1922989  47.0166785   0.6610281
  99.7112235  34.2839663  74.9582100  99.3549498  34.2168086  74.0723228
  99.8769291  33.3780234  75.2190399  65.4461575  82.6620579  51.5763712
  66.2644005  82.6854610  51.0802221  65.1280117  81.7653942  51.4714766
  42.4895048  48.2491977  11.2533838  43.1006813  48.1266696  10.5269605
  41.6321230  48.0396087  10.8829767  14.2555428  38.8801009  16.4465410
  14.0683842  39.8186023  16.4671690  13.9985132  38.6038882  15.5668432
  25.0147939  88.4261513  69.3926573  25.0309825  89.3465424  69.6550608
  25.7541537  88.3354378  68.7915325 106.8462769   5.1101500  19.5162946
 106.7143552   5.6596858  20.2888567 105.9641306   4.8403937  19.2607862
  21.7901325  23.8851220  16.0245687  22.3942995  24.4133336  15.5028421
  22.2913218  23.1017644  16.2512857  29.9805641  11.0290582   7.2621995
  29.7355175  10.4579312   6.5341932  29.1669846  11.4718158   7.5036127
   0.5753414  12.0986503  85.7330799   0.9327118  12.9340499  85.4320431
   0.2845565  12.2712844  86.6285515  17.5392008  19.7538049  19.9536878
  18.4091902  20.1312262  19.8236734  16.9848871  20.5013043  20.1777631
  66.9269705  80.1088810  87.6153946  66.4294815  80.2585411  88.4193420
  67.4773550  79.3508005  87.8119278  28.6082554  21.9320590   0.1253587
  27.6578856  21.8591077   0.0375730  28.7356329  22.5658185   0.8312971
  23.3338308  60.0806052  14.9875433  23.6653853  59.8364837  14.1234285
  23.0903673  59.2490680  15.3943616  42.4949885  37.3948199  25.5369550
  43.4089089  37.3051364  25.8070356  42.2080231  38.2178981  25.9324724
  76.0905035  13.6036342  80.7640076  76.6013678  12.9397052  80.3009129
  75.1860317  13.4388678  80.4975224  29.0732527  46.7296035  32.2156507
  29.2714119  45.7949550  32.2739584  28.2870388  46.8415362  32.7500421
  20.9413481  66.9242103  26.5590269  20.5715418  66.2848861  25.9501440
  20.5471945  67.7572257  26.3002664  16.4214754  54.9770076  20.9781248
  16.0747767  54.1775233  21.3741762  16.9410610  55.3823573  21.6723520
   8.3439398  11.9250018  18.4211332   8.7280321  11.1121661  18.0924970
   8.6179114  11.9660670  19.3373662  23.2898092  36.7340190  24.4814092
  22.9903555  36.8765838  25.3793127  23.7193728  35.8789451  24.5050985
  20.9917832  34.1585833   6.6495115  21.7985583  34.6582515   6.7747480
  20.7264662  33.9064700   7.5339777  21.5355396  42.3818786  25.2730161
  20.8855486  42.7784068  24.6929246  22.3748493  42.5567347  24.8473150
  58.4851360  99.1202641  78.2177448  58.3940935  99.9002457  78.7650728
  58.1927252  99.4007397  77.3505306  47.9643917  99.6809578  71.6049623
  48.6258650 100.2489471  71.2098980  48.4327888  98.8702679  71.8040085
  50.7026482  48.2316882   2.6197320  50.4444027  47.6872641   1.8759996
  51.5545178  47.8854949   2.8856069  13.6300612  41.5251548   3.3639604
  14.5318222  41.4061171   3.6621076  13.7053776  41.6533286   2.4183733
  68.1219196  97.1634197  75.8837652  67.3957872  97.6745701  75.5264330
  68.7832069  97.8157902  76.1147356  18.7306929  58.3180720  17.7697450
  18.6391354  57.3791034  17.9315359  18.3056212  58.4578807  16.9235689
  18.3408976  37.3782737  21.5917284  18.1017304  36.5694529  21.1391431
  17.8791332  37.3298842  22.4287874  84.2113876  89.8619652  87.8198719
  83.8964939  90.5791759  87.2697067  84.8852539  89.4333935  87.2921753
  59.1420746   0.1632983  11.1978418  59.9578953   0.1026494  11.6948205
  58.7524796   0.9917933  11.4771825   2.2774450 101.7368235   4.8300153
   1.7288725 102.4269737   5.2028257   1.7774383 100.9324230   4.9684412
  28.0068207  29.2131812  31.1891061  28.2850027  28.7258679  31.9645864
  28.7743855  29.7291190  30.9423429  45.4357338  77.6963186  62.0115566
  45.4275322  76.7463875  61.8940878  44.8099995  78.0230093  61.3650608
  22.9252140   1.2814372  53.0437613  22.7562610   2.2194522  52.9553080
  22.0791427   0.9079020  53.2904625   9.0249396  53.5011775   7.5062162
   9.1053248  52.7024466   8.0275518   9.5083380  54.1612059   8.0031282
  68.9500427  53.8842964  86.7988491  68.5098457  54.6538877  86.4380360
  68.2758331  53.2048941  86.8076801  67.5080872  49.9597651  11.4650423
  66.6949082  50.2748114  11.8596536  67.7087784  49.1539103  11.9410211
  43.0243540  55.1020057  13.9883310  43.6091185  54.5055301  14.4557745
  43.2147885  55.9636599  14.3591577  40.9961033  30.7064635   6.0699922
  40.6802416  30.3901679   5.2235681  40.2177334  30.7180888   6.6269762
  21.6400290  48.5709483   7.9007226  21.8535566  49.2946822   7.3117811
  21.5003157  48.9874370   8.7511617  39.8125744  43.7286288   0.2776414
  39.1601372  43.0293185   0.3165609  40.4560518  43.4933288   0.9460718
   4.9552806  94.8845291  86.1927223   5.2154716  95.8035374  86.2555981
   5.7735332  94.3969250  86.2872219   6.5692568  29.5407302  52.2462923
   6.1488533  29.3652446  51.4044553   7.4948502  29.6574408  52.0320684
  93.8556671  95.7775497  46.8145847  93.0519009  95.7477093  47.3335266
  93.6483479  96.3618279  46.0852861  48.5452461  29.6350200   8.8186819
  48.7635327  30.5386264   9.0468675  49.0420056  29.4633109   8.0187017
  18.4572315  43.4540851  22.8056127  19.1757918  43.9972216  23.1295091
  18.0032206  44.0101916  22.1724779  68.0764866  69.0337896  70.1372719
  67.6197958  68.7032127  69.3637180  67.3870707  69.1497612  70.7911015
  46.2086010  53.3102614  12.2710783  46.5156841  53.0071074  11.4166624
  45.3323746  52.9348285  12.3576910   6.6877031  62.2823722  10.3301508
   5.9139395  62.1584613  10.8798486   6.8576241  63.2237441  10.3644735
  99.9392796  83.8973045  72.1186113 100.8358288  84.2219734  72.2024345
  99.4186878  84.6777916  71.9287109   1.8898384  14.3194716  71.9193554
   1.1516658  14.3576377  72.5275326   1.6196529  13.6864036  71.2541819
  74.8633512  69.5927025  31.4751607  75.1645049  70.4978253  31.5544874
  74.8620041  69.2611600  32.3731023  48.3478256  62.7363051   7.0358736
  47.9580351  62.9802503   6.1963541  49.2329474  63.0992664   7.0034677
  19.5075023   6.2297922  83.8707542  19.1554511   6.7633677  84.5832062
  19.5696473   6.8315756  83.1289768  80.2927597  66.5517098  19.4831192
  79.3507691  66.6957552  19.5733273  80.3817459  66.0491831  18.6733174
  88.3335742  80.9041513  17.3627931  88.9351853  80.6487717  18.0621320
  87.8059872  81.6054763  17.7449304  33.3434176  10.7909429  64.3217945
  33.6450791  11.6722989  64.5418978  33.5768342  10.2606499  65.0837231
  70.9578814  87.8210527  82.8481770  71.4081664  87.0112831  82.6078701
  70.0452458  87.5600762  82.9715443  24.0096641  42.2012281  85.3331947
  24.4622898  42.9823923  85.0151730  23.8173270  41.6972637  84.5424652
  58.7621673  42.1094485   0.2815706  58.5158523  41.8405594  -0.6034487
  58.0597719  41.7732985   0.8382398  84.5222624  78.9176692   2.9373724
  83.7700327  79.1144074   2.3791009  84.3539484  78.0335273   3.2632524
  86.0552701  51.9589342  10.7188493  85.3049668  52.5287694  10.5498487
  86.1267766  51.9337606  11.6730482  10.1274526  11.3460433  86.7795277
   9.9622780  11.2575829  85.8408451  10.8138990  10.7047844  86.9634056
  77.0662793  62.4871661  14.6942789  77.2762116  62.0012309  15.4917890
  76.2028035  62.8639294  14.8636705  75.2345880  61.4177050   7.6578981
  75.1136025  62.3136605   7.3434812  74.7728141  60.8751388   7.0186693
  13.1715623  76.7473704  71.5736246  13.8713781  76.0999496  71.6592550
  13.5783140  77.5750644  71.8299580   1.7138332  24.5239449  78.6640215
   2.3444825  25.2032018  78.9030313   1.6634788  23.9612842  79.4367504
  77.2823628  30.7725777   2.1877939  77.2483309  31.0944189   3.0886251
  77.6068409  31.5161981   1.6798765  31.5618821  57.6117082  19.6048051
  31.1045449  57.6019139  20.4456312  30.9588846  57.1806683  18.9991457
  37.2607780  49.0555763  55.8617163  36.7897487  48.7749672  55.0770998
  37.2584820  48.2857704  56.4305973  76.8557461  55.8380256   4.2437250
  77.0314606  54.9734087   3.8725263  77.7198943  56.2392808   4.3357832
  29.6791434  40.6953955  84.3568611  28.7715554  40.8299065  84.6296692
  29.6456146  39.9308300  83.7819290  27.6605757  49.1704816   6.4260179
  27.9291280  50.0353143   6.1158926  27.5277068  48.6601837   5.6271535
  16.4301181  21.8139768  56.6980696  16.3829136  22.1958423  55.8216095
  17.2918820  21.3987398  56.7323160  29.2067051  52.0742035  50.5295706
  28.4119797  52.5021029  50.8482313  29.4761014  52.5997496  49.7762728
 107.2582066   0.5704078  59.6861601 107.1436937   1.3810095  59.1901350
 107.9730539   0.7603551  60.2937365  33.7968326  14.9883771  46.1909389
  33.5207152  15.9048724  46.1959934  34.4502687  14.9389398  45.4932213
   1.7710463  73.1113417  62.0258570   1.9957820  72.4738962  62.7036428
   0.8195464  73.0476887  61.9432354   3.8569987   2.4596055  64.0443516
   3.9849409   3.1519532  63.3958769   4.3000492   2.7817950  64.8292923
  66.7668732  74.2546524  21.1794645  67.5467285  74.1459431  21.7237360
  66.2317737  73.4844793  21.3711149  17.5425565  22.7944326  52.7083254
  17.0054960  22.5541830  51.9532871  17.6988113  21.9672918  53.1640148
  22.4326841 100.9047356  79.6134996  22.3263351  99.9717591  79.7991800
  23.2354394 101.1504734  80.0733185  81.0522505  95.7077355  86.1676502
  80.2566667  95.5661715  85.6545830  81.0799315  96.6538060  86.3105392
  28.2630086   3.8903707  84.1752911  28.4352088   4.3133989  83.3340836
  28.7794471   3.0848870  84.1484833  56.4505299  71.9429840   2.9152853
  55.8515795  72.6868929   2.8513223  56.6761144  71.7384089   2.0078165
  51.5269947  25.2315378  70.8858585  52.3329973  25.4168987  70.4039574
  51.8172169  25.0635290  71.7823935  83.9685984  78.0952699  72.0919800
  83.0687221  77.7734429  72.1456528  84.1000577  78.2851512  71.1630583
  43.7653609  46.9712157  16.0337335  43.1216743  46.6531379  15.4007036
  43.4570768  46.6384010  16.8766099  72.7756675  11.4797820  20.4189474
  73.2548817  10.6543840  20.4917985  72.2748645  11.3951768  19.6076089
  58.4534407  25.5652070  62.2269583  58.5596037  24.7070265  62.6374292
  59.2464781  25.6800175  61.7033672  24.4217324   0.3226926  55.1230907
  23.8059902   0.3052888  54.3904305  24.2051482   1.1244708  55.5989838
  10.5058157  14.9957931  45.2572823  10.4259741  15.4601359  44.4240713
  11.3260520  14.5081580  45.1820803  47.3303938  33.7589455  33.5073471
  47.1133089  33.0243731  32.9333162  47.5047016  33.3551598  34.3575287
  85.8024140  87.4943180  67.2893667  86.1743494  88.0549295  66.6084766
  85.2682622  86.8596584  66.8117428  38.8983727  27.1800494  53.3138657
  38.9980078  28.0747056  52.9884481  39.0067554  27.2565317  54.2618275
  53.3681103  55.0766532   1.4867479  53.4804495  54.2702903   0.9833700
  54.2374583  55.2596263   1.8431074  80.7637843  63.3422865   5.5098325
  80.1674279  63.3386291   6.2585527  81.5605553  62.9241265   5.8362085
  18.4649420  15.2430129  75.1940250  17.7402556  14.6588564  75.4172373
  18.2942545  16.0393822  75.6969118  28.5384154  10.1686466  56.9405556
  28.6222458  11.0053647  57.3978376  28.0738044  10.3832698  56.1316681
  81.5586944  93.0965055  86.9402790  81.1515578  93.8335694  86.4850807
  80.8540477  92.7232487  87.4697876  88.8806160  38.5182334   8.7018472
  88.0396613  38.2041050   8.3696634  89.0520056  39.3169047   8.2028657
  56.5199860  74.7096933   6.0278589  57.3276194  74.3730129   6.4159471
  55.8890530  74.7068705   6.7476827  85.0598351   1.1593506  50.7720709
  84.5018713   1.7286626  50.2421713  84.4624345   0.5003921  51.1257887
  38.9107752  16.5504539  84.2466736  38.1787491  15.9538424  84.0903950
  38.8956547  16.7058980  85.1910496  64.2009362  76.7637052  17.5333005
  65.0288733  77.2437753  17.5501806  63.6285051  77.2929062  16.9778711
  53.3202466  65.6790067   9.2014009  53.5575326  66.4117993   8.6331159
  52.7230867  66.0591628   9.8456937  48.7144669  64.2255606  18.8127214
  48.0434640  63.8807930  18.2235509  49.2023631  63.4531046  19.0982038
  54.1161164  52.3470555   9.5473653  54.5590147  53.0652758   9.9992830
  54.0894159  51.6392170  10.1911623  58.7570568  99.3417092  70.6005955
  58.6776849  98.3878154  70.6048775  59.6497281  99.5091292  70.9028196
  99.6062287  80.2435453  59.6852684  99.0721711  81.0296852  59.5712614
 100.2557667  80.4887373  60.3442192  29.4084287  65.3079653  50.3252172
  29.2237639  64.5108080  49.8285580  29.1070795  65.1125717  51.2124825
 102.5843533  81.0799367  56.8010426 102.4003061  80.2778775  56.3121080
 103.3141073  81.4843447  56.3318443  53.0819722  87.8574891  40.9635973
  52.4465032  88.2748897  40.3820610  52.8108867  88.1207902  41.8430376
  23.3492979  52.2364721   4.4777090  22.5598224  52.6459038   4.8317224
  23.3522888  51.3565380   4.8544485   1.7159764  66.3214261  85.0446510
   1.8290369  66.3939602  85.9923744   1.4780346  65.4054315  84.9012375
  17.1541440  34.9226499  53.5608816  17.6971602  35.3356719  52.8894806
  17.1038115  34.0040493  53.2965469  87.0879539  97.0504520  75.3714752
  88.0221411  97.2410984  75.2867460  87.0212634  96.5306831  76.1724901
  33.3591597  76.9689478  29.5089609  32.6389625  76.9195761  28.8803846
  33.2686045  76.1774649  30.0396139  48.0613883  62.7583124   1.5340597
  47.4427386  63.2360209   2.0865995  48.6666485  63.4287442   1.2171823
  30.3198862  45.0210381  77.1006966  30.8846045  45.0295210  76.3278723
  29.8865819  45.8744812  77.0900869  50.0206804  13.4527934  76.8155193
  49.3527222  13.1455576  77.4284363  49.5456982  14.0200043  76.2081575
  91.1389884  60.3345848   2.5980455  90.8016404  59.5657004   3.0576593
  91.4849146  60.8958126   3.2920152  66.3908657  79.4373359   2.4219495
  65.9862741  78.5708679   2.4640447  66.9350465  79.4095982   1.6349775
  23.4735084  -0.1653282  50.7374191  23.3324933   0.2640582  51.5812063
  22.7553797   0.1467877  50.1868677  63.5064538  38.4076001  16.0720712
  63.5172208  37.6268233  16.6256982  64.4264778  38.6610211  15.9974748
  49.5398140  16.2739778  86.5479565  49.8008394  15.5647612  85.9604931
  48.9520693  15.8583355  87.1788502  75.6611737  23.2742800  10.2905923
  76.2080534  23.5631837   9.5600492  75.0746854  22.6220144   9.9074251
  31.0702205  16.6347194  65.0612164  30.3298664  16.0282326  65.0780392
  30.8110595  17.3453665  65.6477690  43.5081013  57.2700931   7.9542619
  44.1724958  56.9234307   8.5497743  43.6085584  58.2203515   8.0103666
  44.4835091   1.9867262  86.2920856  44.7498512   1.6192256  87.1348381
  44.1928673   2.8749043  86.4992046 102.2182904  12.2679842  77.1730471
 102.7302245  12.8898954  76.6559553 102.0198570  12.7367067  77.9836988
  25.3845263   8.2580769  86.1082554  26.2299705   8.6967111  86.0130882
  25.3312993   7.6738918  85.3518677  18.1983399  61.5732718  65.6439924
  18.2729173  60.6707430  65.9540081  18.5454977  62.1026087  66.3619900
  79.1974982  31.6912641   6.5605337  79.5290240  32.1439148   7.3360521
  79.0872534  32.3830749   5.9082490   8.0401317  82.3337097  67.0806026
   8.0470602  82.7836377  67.9254389   8.2939855  81.4340002  67.2863054
  94.2827638  99.3496112  80.9987164  94.5700630  99.4286671  81.9083500
  93.9992317  98.4391762  80.9153557  75.0668027  99.7621771  62.3320341
  75.4369970 100.2732611  63.0517435  74.8279073  98.9253453  62.7306223
  28.7174797  11.0239601  29.7858334  29.4428945  11.5818071  30.0665641
  28.8295674  10.2155423  30.2859640  56.9911893  69.6304633  22.4136812
  56.4096673  69.3333353  21.7138368  56.6124900  70.4603852  22.7035886
  50.0978645  12.4729504  29.8013956  50.5435213  13.3187117  29.8494321
  50.7653280  11.8357314  30.0557119  26.1970854  14.4543338  63.2526207
  25.2919912  14.4510198  63.5641098  26.1736560  14.9817133  62.4541473
  11.5251768   0.9612432  81.1428452  12.1932006   0.5701625  80.5797863
  11.9966865   1.2068669  81.9388294  10.3141347  94.6442724  72.2485733
   9.8549215  93.8055301  72.2053432  10.8567516  94.5800234  73.0344915
  89.2536493  86.9852085  72.7362919  88.5975226  86.5512092  72.1909714
  88.7763115  87.2450442  73.5242414  80.7332565  88.8324184  55.3713846
  80.7110020  88.3648438  54.5364523  79.9300583  89.3530769  55.3758049
  32.4956470   9.7725834   3.8363821  33.4460085   9.6724714   3.7814027
  32.1575250   8.8782944   3.7900430  51.1656578  93.3430768  77.1522808
  51.2415489  94.0980298  77.7358198  50.2369769  93.3101977  76.9227171
  26.7206764   2.8774431  65.7191181  26.6631174   2.7764061  66.6692305
  25.8599281   3.2069471  65.4607153  79.4702681  86.7587222  11.7878133
  80.2061900  87.3554577  11.6516191  79.8225554  85.8929671  11.5814287
  17.7347195   7.2543955  77.5711727  17.2011185   7.0539188  76.8022060
  18.0884063   8.1265366  77.3965120  19.9866426   8.7452346  48.6425972
  19.8144984   8.3249009  47.8000355  20.9306550   8.6501873  48.7692451
  73.9886650  94.9438824  27.0993597  74.6239170  94.2283787  27.0721895
  74.4249662  95.6686701  26.6515237  36.5147352   3.8469639  60.7570410
  37.0094132   3.0279395  60.7839680  36.6910434   4.2611426  61.6017914
  56.1786159  55.8372636   2.4221593  56.1590441  56.3984199   3.1973726
  56.8372019  55.1726572   2.6241380  21.1732030  36.4604688  81.7655277
  20.8067203  36.8357635  82.5662041  20.7161903  35.6259108  81.6611862
  28.5010147  25.8262300  84.3094063  28.3570099  25.3217196  85.1100063
  29.1251564  26.5059638  84.5636559   9.9030399  12.3130846  26.1677670
   9.1298050  12.7847922  26.4773345   9.6936470  12.0768583  25.2641177
  97.2952263  10.0920951  58.6624336  97.0228104   9.2244923  58.3636284
  96.4877550  10.5039501  58.9700031  74.4424709  51.4059842   7.7172739
  73.6427291  51.1396017   7.2637540  74.6643241  50.6575204   8.2711870
  91.7566975  52.7853083   2.4036199  90.9289130  52.8961870   2.8712827
  91.5836485  53.1264831   1.5261919  35.4725957   1.3877571  76.5568018
  35.6864023   0.4781982  76.7647028  34.9419188   1.6840875  77.2962666
  22.8335309  20.2333903  79.3688726  23.5415173  20.8674121  79.4829178
  22.9429722  19.9104667  78.4744596   3.8894455  75.0948490  18.9975339
   3.6486141  74.9542536  19.9132043   4.0031091  76.0423125  18.9225275
   8.5522217  23.9218593  80.0320911   8.4422213  24.8225713  79.7273827
   7.8879106  23.8165975  80.7131481  34.1171265  54.9044085  72.2556925
  34.7794676  55.5953598  72.2667742  34.5919442  54.1219425  71.9754696
  22.9412961  38.7069583  70.5843687  23.8733125  38.7340117  70.3679276
  22.8648639  38.0009770  71.2262249  84.1391762  64.1173912  20.1292879
  84.8387345  63.7032594  19.6239740  83.8419398  63.4348012  20.7309133
  51.5820893  42.1188547   8.2544977  51.6802355  42.9020358   8.7960035
  50.7494911  41.7376961   8.5332948  28.9697695  12.0170069  40.4584217
  29.2017984  12.8272986  40.9120989  28.4925294  12.3061728  39.6806979
  63.0443382  19.3029499  66.8028259  62.8821898  20.0756025  67.3440695
  63.1038857  19.6438861  65.9103870  59.5908213  20.9957099  29.4454384
  59.6038294  21.9479322  29.5420504  60.0495243  20.6701016  30.2199101
  12.5169516  14.7128684  19.6317369  12.0354366  14.4120223  18.8611108
  13.4160471  14.4208629  19.4814378  31.1913252  31.2561202  66.0612726
  30.9308887  32.1055746  65.7051468  32.0438671  31.0806441  65.6630087
  78.9874419  56.2253041  23.9399511  79.9064978  56.4894237  23.8974458
  78.9778574  55.4890586  24.5515710  18.5144842  25.2818727  75.7227278
  18.6866760  25.3117132  76.6638422  19.0417540  24.5484948  75.4059029
   9.3438828   3.6005318  55.0674582   9.0587395   3.3627582  55.9497213
  10.2892816   3.4507808  55.0727892 107.2320517  88.3558948  69.8088264
 106.4122828  88.6156864  69.3884468 107.7573117  89.1559536  69.8243332
  37.5757837  29.8632431  54.7661638  38.4810376  29.9812579  55.0539398
  37.1174812  30.6370831  55.0938272  48.9342976  32.4461937  82.4985790
  49.5177221  31.8818498  81.9912720  48.4804583  32.9739308  81.8414974
  42.6455021   3.8038790  77.4495029  42.0972109   4.0978146  78.1769705
  42.3232079   2.9257897  77.2462368  36.8282000  56.2519117   7.4514562
  36.0680164  55.7309405   7.1927339  37.1321871  55.8453835   8.2629758
  45.7654810  19.1621828  59.2252588  46.6307163  19.4992924  59.4575453
  45.1543188  19.7159386  59.7111320   7.6256382   6.1473656  86.8980789
   8.3512419   5.5368030  87.0282555   7.6569515   6.7229819  87.6622295
 106.8152960  88.9264764   6.7977792 106.1119278  88.4529938   6.3535673
 107.5130471  88.9863385   6.1452467  83.8695820  91.1179079   1.4587003
  83.8820084  91.3691153   0.5351430  83.0463656  91.4741959   1.7927724
  46.9263764  77.8838600  23.5405141  46.9145401  78.8343014  23.4275800
  46.6919585  77.5374259  22.6795465  43.0570956  92.6162971  19.0277177
  42.6544341  92.8251995  19.8706037  43.9767577  92.8591360  19.1348821
  19.4257057  13.0757999  70.5403662  18.7032568  12.4572873  70.6487274
  20.0948143  12.5818944  70.0664663  93.5984953  81.8941845  12.8883726
  93.0909356  81.1041249  12.7028448  93.2840785  82.5359072  12.2515279
  72.1560987  91.4582838   1.7768365  71.7388924  92.2990765   1.9645578
  71.4500364  90.8171095   1.8581182  45.7783222  27.9556870  82.0475292
  46.3242483  27.3744583  82.5770283  46.4008474  28.4442449  81.5090084
  26.9960499  26.4909101  87.7822876  27.1765399  26.8129563  86.8991375
  26.8141842  25.5585289  87.6647091  21.7529249  25.2538466  69.5228767
  22.4760342  24.9638033  68.9668036  21.6734147  26.1906528  69.3431377
  20.4637551  26.5431380  33.1985021  20.0453901  25.6942797  33.0548358
  20.2605367  26.7593575  34.1085482  30.4478693   8.8936949  73.5861111
  29.8112226   9.0437359  72.8872538  30.4467702   9.7075891  74.0898991
  65.6332636   3.6216882  54.0945864  66.0694981   4.0665686  54.8212290
  66.3488865   3.3040851  53.5439110  75.7799967  61.5179337  28.4492761
  75.2883323  61.2829901  27.6623136  75.1386746  61.9523992  29.0115720
  62.6262236  28.0945277  84.8024750  62.1943188  27.5719047  84.1267776
  62.5799942  27.5528431  85.5902958  52.0407820  18.7272441  77.1783304
  51.1023474  18.8187814  77.3432255  52.4003601  19.5972896  77.3514080
  95.9743063  17.0893657  87.4679470  95.5441014  17.9302526  87.3128128
  95.2591757  16.4905059  87.6828575  50.3535303  58.8620557  12.7635652
  51.1315425  58.3599134  12.5211126  50.4353233  59.6811832  12.2751218
   4.6514896   1.8852928  68.5488892   5.5149931   2.1454205  68.8697100
   4.5415410   2.3745254  67.7335358  38.6843014   1.2936884  76.2049484
  38.2112932   1.0114866  76.9878054  37.9999828   1.4436378  75.5526781
  23.1821895  28.3568645  66.5698338  23.3858180  29.1436362  66.0641098
  24.0269709  28.0694818  66.9162273  37.8215241  62.1557903  56.8097878
  37.2991943  62.0711899  56.0121346  38.3771610  61.3763952  56.8160200
  17.0957661  12.9084265  86.4914703  17.6438022  12.6255298  85.7594490
  17.3943543  12.3807108  87.2321415  26.1328840  18.2940757  87.4679756
  25.9923315  18.7751353  86.6524696  26.3147545  18.9727032  88.1180763
  56.3350948  81.6402329  11.2894994  55.5431541  81.9536866  10.8526784
  56.0519203  81.4351238  12.1805460  75.2218183  93.9016022  18.7020380
  75.8508452  94.5957769  18.8987047  75.0342902  94.0055574  17.7691633
  66.5328845  92.1493925   3.0157739  66.7287620  91.2282623   2.8443605
  66.5869339  92.5695146   2.1574003  92.5315913 100.0853742  48.9601946
  92.4852212 101.0403350  48.9140320  92.2767433  99.8763707  49.8588610
  48.4712633  57.4262889  10.9983045  47.7091273  57.3970039  11.5766889
  49.0952607  57.9922177  11.4528257  69.6810182  86.1468090  15.6220037
  68.7852367  86.4099230  15.4108697  69.9852403  85.6845082  14.8410017
 106.3453008  29.8927999  81.7887306 105.6584921  30.0677443  81.1453629
 106.7814829  29.1046047  81.4651108  45.3212786  33.0159116  65.8473444
  45.7116652  33.1259131  66.7143631  46.0671568  33.0130768  65.2474356
  22.6606202  23.1495690  85.1441669  23.0141068  23.9070392  84.6777725
  23.0663490  23.1907582  86.0101414  40.2442574  77.9626955  13.1300146
  40.8586838  78.3130564  12.4850732  39.6640896  77.3939957  12.6238424
  69.4807681  89.9364342  20.2803403  70.4141267  90.1456679  20.3163034
  69.3065222  89.7774543  19.3526536  56.3864501  76.8198813  16.8141538
  56.6500791  76.6209902  15.9157259  57.1644791  76.6321553  17.3391897
  29.0070820  24.2495465  73.1122255  29.8252273  24.2753220  72.6160336
  28.9406514  23.3448458  73.4177351  29.6869493  56.0869169  72.5839949
  30.5781603  56.3984585  72.4261427  29.7174382  55.1547337  72.3687363
  45.1636553  40.3981113  62.3648214  45.7708788  39.6708465  62.2284317
  44.3169403  40.0613594  62.0717335  62.0363760  30.6730032  87.4586010
  62.7634096  30.4559422  88.0421543  61.6646338  29.8256230  87.2136879
  34.5960116  13.7590051  83.8641357  35.4241991  14.2306745  83.7754536
  33.9433837  14.3475306  83.4847355 107.7630661  26.0867023  72.8766060
 107.9112129  25.9925270  73.8175726 107.1608168  25.3759646  72.6566505
 106.9709524  98.1159724  69.6736717 107.3383244  98.2966263  68.8084364
 107.7098330  97.7826414  70.1827669  44.1154432  17.1788347  61.5281105
  44.7801304  16.9975507  62.1926069  44.5731020  17.0671964  60.6948519
  92.0137207   7.6906020   2.8134710  92.2259109   8.6236865   2.8370554
  91.0606615   7.6595265   2.8968030  34.0745425  11.6323519  81.5497971
  34.8072648  12.1112752  81.9370747  33.8122940  11.0079098  82.2262096
  63.9213356  98.8413013   2.9898531  63.3522089  99.0303768   2.2438127
  63.6804994  97.9539408   3.2559854  93.8940207   4.5555884   7.9895669
  94.3197958   5.0146729   8.7135679  93.1548469   4.1023118   8.3950216
  43.3284964  77.9535045  17.6153165  42.8805872  78.2836856  18.3941537
  42.6966389  78.0740417  16.9064695  18.0199933   3.2048541  57.9465866
  17.4956679   3.5808590  57.2395229  17.8358591   3.7613517  58.7033129
  62.7811607  65.7948150  22.5016290  61.9879826  65.2677990  22.5983602
  62.6618203  66.5216483  23.1129438  52.9690464  46.6707866  13.4800512
  52.7947756  47.4835260  13.0053789  53.8828083  46.4677550  13.2799322
 101.0799130  99.0658862  43.6273003 101.8538841  98.6082146  43.9555359
 100.9256538  99.7631026  44.2647409  65.4108199  62.6635624   5.6415826
  65.2989372  62.8037991   6.5818197  65.8471068  63.4570481   5.3313142
  43.1427288  45.9255695  80.7921314  43.2322788  46.7626381  81.2476921
  43.0888414  46.1614656  79.8660231  76.3658389  69.8662580  15.7435972
  76.4486130  70.5102779  16.4468938  76.8527325  69.1044427  16.0579187
  46.5762424   6.6811514  79.7650909  46.3088417   7.5984472  79.8225212
  47.0503569   6.6213524  78.9357138  64.0522099  36.3610315  86.1465931
  64.6640539  35.7256222  86.5182495  63.2229662  36.1828518  86.5902519
  52.0399904  34.1323185  63.1458855  52.0460606  33.3275580  62.6276636
  52.9552460  34.2652273  63.3926058  57.7880573  12.9414821  67.4564219
  57.0303249  12.6147151  67.9414940  58.4642076  12.2778428  67.5929451
  19.6921599  59.0928841  70.6651306  19.0314329  59.6065092  71.1297417
  19.5946395  59.3503380  69.7483778  33.9406109  39.3097043  80.8999634
  33.2727861  39.9046636  81.2409401  33.7847018  39.2904997  79.9557447
  54.4575119  34.8542118  72.5748110  54.7330379  35.5940461  72.0335531
  53.5121965  34.7951984  72.4365044 108.0265469   7.6162267  83.2915878
 107.3530521   6.9867927  83.5493660 107.9525836   8.3224678  83.9334488
  16.0207653  29.1276550  74.0833855  15.5125129  29.9371815  74.0326309
  16.1903143  29.0094995  75.0180101  29.5383736  60.3488113   0.9477598
  29.6122011  60.0416006   1.8513090  29.6147629  61.3008286   1.0114748
  72.6660307  78.5820807   9.4761449  72.6831635  78.7949003   8.5430604
  71.9460758  77.9577578   9.5662290  25.5716372  30.3191638  62.2453308
  25.5851912  30.9963989  61.5690136  26.4909029  30.2012467  62.4846601
  25.8780289  49.0924931  73.9670849  25.9551549  48.5046673  73.2155895
  24.9383187  49.2556238  74.0481138  76.1765154  92.2027983  10.7294351
  76.0499390  93.0877413  11.0716135  75.6887277  92.1923841   9.9059183
  43.3539750  51.0538443   9.3458826  43.7755450  51.0227324  10.2046854
  43.2899543  50.1373737   9.0771562  33.2298326  14.2375243  78.5921478
  32.3740220  13.8094699  78.6164141  33.3642793  14.4519758  77.6690197
  32.0006609  12.4407506  57.1555853  31.5500045  12.9926658  57.7947474
  32.1341968  11.6086864  57.6095295  13.5770619   7.9202980  82.9824924
  14.0026569   7.1159816  83.2794285  12.8614450   7.6198471  82.4222660
  27.4472785  30.8740973  51.7746830  27.2862434  31.6318536  51.2124491
  28.3947897  30.8737016  51.9105291 103.1397065  84.1064919   8.3260709
 102.3476132  83.5690845   8.3229715 103.7850436  83.5846700   7.8491289
  39.6658087  43.1343460  73.8254547  39.3309474  42.7186441  73.0309153
  40.6168699  43.1260395  73.7175179 105.7247504  63.0258311  14.0494806
 106.6373166  62.8554799  13.8161832 105.5182322  62.3629404  14.7083932
  60.3226026  68.1098701   2.5643713  60.3330930  67.9493095   1.6207963
  59.9728831  67.3022951   2.9408723  88.7923853  22.8499746  49.9177456
  88.6486320  22.1607995  50.5662823  88.6555390  23.6652517  50.4002714
  14.9250066  29.0516520  66.8915176  14.5748699  29.9425101  66.8948889
  14.4240475  28.5948515  67.5672436  99.2349967  46.1528338   7.2881300
  98.7015208  46.1243705   8.0823690  99.4851120  47.0726077   7.2004301
  62.8665813  86.5562858  28.5018617  62.4682935  85.6869615  28.5451395
  62.3259362  87.0364870  27.8746969  72.4857823  70.8139069  50.9295177
  71.9863176  70.5404908  51.6989374  72.7375719  71.7182953  51.1163759
  61.0285997  24.9890471  61.3308811  61.1621857  25.5064607  62.1250296
  61.5350723  25.4459214  60.6593275  33.6060834  34.1683817  83.5486412
  32.7931809  34.6684480  83.4754467  34.2296457  34.7807240  83.9390755
  77.9600334  27.7573180  81.3602448  78.2323074  27.0602965  80.7633686
  77.0494699  27.5503612  81.5706635  28.0386806  43.7341547  85.7453156
  27.5367618  44.0316629  84.9865055  28.9352226  43.6489058  85.4209995
  32.1665001  27.7121997  65.6989241  32.3596287  27.7971148  64.7652626
  31.2246251  27.5453377  65.7344723  79.0133770  65.5896295   3.9801008
  79.6032675  65.6398286   3.2279474  79.4992026  66.0034098   4.6935445
  31.2377191  23.1385899  71.7054224  31.9004655  23.7153554  71.3254976
  31.3393807  22.3126793  71.2323809  30.1513028  18.4309745  62.3504114
  30.0461078  19.0933371  61.6674471  29.8382163  18.8575721  63.1480503
  81.6265162  77.3920335   5.3913003  81.6213473  78.2973994   5.0806314
  81.5929850  77.4658932   6.3450605  96.2412270  82.9191817   3.8149339
  96.4620217  83.1930484   4.7051508  96.4648922  83.6735596   3.2698518
  13.1643808  24.9028277  87.0818233  12.6085186  25.6499815  86.8604469
  13.9599013  25.0350404  86.5661716  88.0467765  15.9407861  16.6970712
  87.9560523  16.4703423  15.9048730  87.4453096  16.3426263  17.3239595
  40.5251026  75.7480860  60.2505493  40.2763557  76.3194227  60.9771395
  40.3193426  76.2556076  59.4654942  75.5053743  72.4589147  11.8897230
  75.0256546  71.6757311  12.1594030  75.5076750  72.4208964  10.9332830
  59.9281009  58.9262004   3.7589819  59.9860056  58.9695002   2.8045160
  60.5586894  59.5771505   4.0669614  25.4663110  30.5876398  26.5628123
  26.3606381  30.7720280  26.8498874  24.9214363  30.8132076  27.3167777
  43.0440998  36.1426115  85.9564781  43.5823727  36.7861819  85.4957008
  43.6571217  35.4499125  86.2026596  28.9421797  55.4086256  69.4209290
  29.0104890  55.0155926  70.2910376  29.8439646  55.6261158  69.1848898
  81.4425238  52.9083188  21.4035207  81.3524493  53.6733766  20.8353597
  82.3349246  52.9670885  21.7446882  75.1092657  79.6628441  22.1296388
  75.0699266  80.0946201  22.9830152  75.6347688  80.2512182  21.5875227
  16.2206709  55.9579945  74.0096664  16.2571943  56.8118000  73.5784864
  17.1351504  55.7432795  74.1936684  26.7511940  61.1579323  88.2184124
  27.5354052  61.1527443  87.6695824  26.6564584  60.2509499  88.5093403
 106.8832148  91.3004589  73.3029652 107.0917390  90.5192089  73.8152122
 106.1975343  91.0149956  72.6991558  57.9729684  72.9523052  18.5993749
  57.3262580  72.2615422  18.4550077  58.7968977  72.4844231  18.7352354
  51.2426758  39.7532177  77.9362822  51.6874504  39.4778657  78.7378979
  51.7068243  39.2953324  77.2354698  22.8068924  27.4713922  84.9542332
  22.1555066  28.1107783  85.2425289  22.4917245  27.1770549  84.0996742
  50.8427525  28.4932899  84.3927574  51.4688730  29.1322303  84.0522385
  51.3820934  27.8540659  84.8583031  45.6586552  29.7568965  85.2240944
  45.5993366  30.2809501  84.4252968  46.4612198  29.2464304  85.1166153
  58.1201077  20.2462626  76.8477821  58.8254213  20.7352185  76.4238834
  58.0938768  19.4108260  76.3813210  39.9408817  56.3335133  55.5608654
  39.8134780  56.0723591  54.6488380  39.4510961  55.6848431  56.0664034
  79.2025765  68.1627597  23.1464559  78.4809931  67.5596179  22.9682237
  79.4755419  67.9524173  24.0394670  85.6562718  91.8418564   6.2476427
  84.9553832  91.6020550   6.8538457  85.4492100  92.7386774   5.9848196
  71.9244202  40.0903596  27.4463731  72.0221051  40.6847824  28.1902486
  72.4923929  40.4584111  26.7694837  59.5408821   5.9745789  58.5014725
  58.9349890   5.3496027  58.1033087  59.9930525   5.4715496  59.1787720
  23.1725526  40.9999180  66.1795998  23.7672806  41.6944885  65.8965778
  23.7222219  40.4088402  66.6941166  52.8314877  18.2441437  68.4448290
  52.7323723  18.1235921  67.5004387  52.0322514  17.8732133  68.8188171
  34.0127134  32.0147157  46.7002773  33.4351730  31.9662261  45.9384823
  33.4637308  31.7404795  47.4348831  80.4154261  86.5903415   0.5879289
  80.9415635  87.3880233   0.6437379  79.5233258  86.8777479   0.7822973
  15.3686881  17.9796159  75.8470964  15.1577985  18.2122207  74.9428558
  14.8294902  18.5664225  76.3773346  99.8857053  90.8602876  85.1945972
  99.4616946  91.0632820  84.3607807  99.3311985  91.2784118  85.8533192
  31.0221744   4.5384827  86.2263966  31.8952990   4.1826868  86.0611820
  31.0455871   5.4167265  85.8464336  21.5642643   2.3159118  80.7344341
  20.6846237   2.0158325  80.9633923  22.0263076   1.5214255  80.4669666
  33.5932636  33.4089637  76.6976404  33.6822367  32.8930211  75.8963156
  33.2115364  34.2375445  76.4078617  84.6167668  96.0982622   8.3233053
  85.1879700  95.4286636   8.6996061  83.7378748  95.8537973   8.6131555
  30.3184986  30.2226591  70.2221918  30.8490038  29.7442079  70.8592749
  29.4955730  30.3973818  70.6788063  30.1591301  14.6180844  86.1229706
  29.8015928  15.4816306  86.3295746  30.2050710  14.6003318  85.1670361
  44.5240831  44.0948057  84.7799301  44.3034840  45.0236750  84.7108936
  45.4275990  44.0394354  84.4687653  95.2467112  37.0753479  58.4910345
  95.5206875  37.6081753  59.2375326  96.0634105  36.8474245  58.0468655
  61.0468038  61.4640607  11.3373453  61.9867285  61.6409422  11.3758928
  60.7511719  61.5411998  12.2444803  88.0120925  51.3940907  61.9931698
  88.3534793  51.8322372  61.2136078  88.7848155  51.2311745  62.5340843
  85.3141078  69.4926907  21.6531354  85.9660824  68.8076962  21.8012792
  84.8871764  69.2437412  20.8333856   8.5734169  69.9280704   6.5496522
   8.3714000  69.5339061   7.3982126   8.1535999  69.3511607   5.9115583
  65.8258208  60.8314670  13.4025747  65.4607852  60.1468642  13.9632017
  66.6050418  60.4332270  13.0146963   1.6376926   7.1467859  47.3666143
   0.8869942   7.7007538  47.1525955   1.9341619   7.4642253  48.2195902
  65.6356772  87.7878179  28.3862287  64.6928462  87.6230468  28.3984548
  66.0269030  86.9616617  28.6702043  76.6849436  90.2620132  88.0912209
  76.0795291  90.2734370  87.3498917  76.1505946  90.5241055  88.8408947
  78.5932787  82.5898899  28.5503274  77.7840432  83.0039348  28.2504350
  78.5508069  81.6998733  28.2006151   8.6237079  53.7860060  83.1889534
   9.0848529  54.3982649  82.6156139   7.8970653  53.4610319  82.6573467
  72.9350027  63.3888794  17.2549325  73.8916977  63.3757616  17.2830755
  72.7244481  64.0055419  16.5537721   8.6602211  26.6972446  78.9372587
   9.0510315  25.9848881  78.4312487   7.8340542  26.8828821  78.4909153
  84.1003378  69.2959525   5.1105958  84.5631703  68.5907592   4.6581346
  83.2270535  68.9411189   5.2770216  34.3744230  63.7742662  57.3693562
  35.1100254  63.3253574  57.7860165  33.7227678  63.0872488  57.2294140
  96.7434176  57.7764596   4.9979002  96.2689122  57.3579688   5.7161886
  97.2590121  58.4637828   5.4197771  36.1531425  24.7036982  54.9435043
  36.7982578  24.1352320  54.5229101  36.6763687  25.3468561  55.4218531
  62.2830137  51.0909020  23.3811265  62.3836406  51.4184517  22.4873621
  61.6819867  51.7092769  23.7965948  40.7512999  26.2136555  79.2343092
  40.6722641  27.0872617  78.8511658  40.4585075  26.3216090  80.1392174
  62.1143254  78.2006420   2.3076993  61.5251382  77.4595655   2.4487478
  62.6837333  77.9208793   1.5909463  36.9887805  32.6826620  51.7405128
  36.2714481  32.0843482  51.9495201  36.9400406  33.3599496  52.4151516
  97.6363428  86.0921461  65.9108925  97.6206096  87.0424826  66.0242319
  98.5570558  85.8852739  65.7505131   8.0613726  45.9340239  45.3478289
   7.5869864  45.6182957  46.1169243   8.7611961  45.2938843  45.2186060
  68.8534164  29.9140739  68.5976744  69.1235685  29.0186167  68.8011599
  69.6726179  30.3778481  68.4243059  75.5246592  30.7104492  77.7505589
  75.4965734  30.1687169  76.9619083  75.3140259  31.5921235  77.4431324
 106.5429026  56.5842533  72.7636003 107.2872848  56.5459824  72.1630478
 105.7775442  56.4466381  72.2054577  67.8752573  64.7819747  17.9820520
  67.7251967  65.5495478  17.4301988  68.1275853  64.0917076  17.3687917
   1.7906419  75.6111897  35.4728776   2.3101370  74.8835005  35.1310712
   1.5064661  76.0892881  34.6938402  43.7014856  90.1665391  10.1222116
  44.1761681  90.9847559  10.2686006  44.3861862  89.5193709   9.9531251
  28.7715936  40.3750515  45.2814579  29.4050741  39.8200107  44.8266315
  29.3058252  40.9421873  45.8375072  25.7486057   5.8904839  69.9564934
  25.6225157   5.9738988  69.0113068  25.5989146   4.9624756  70.1371193
  61.4523753  31.0361804  34.5665151  61.2434729  31.3778974  35.4358942
  62.2925576  30.5916823  34.6794111  13.5133290   1.2926975  68.1538963
  13.6712885   1.7542644  68.9774466  12.5597620   1.2537323  68.0802536
  21.2392092  13.8339961  78.0625916  20.4791188  14.0668845  78.5957479
  21.5398788  13.0007267  78.4252119  24.7149420  63.6388826  69.7140789
  24.1820049  64.3956470  69.4701290  24.2290258  62.8855562  69.3784857
  41.0927010  12.2940660  64.7881889  41.2091589  12.0563877  63.8683128
  41.9745636  12.2572517  65.1585817  35.6596422  29.7007108  84.6973705
  36.3499832  29.2819548  85.2114773  35.6210136  30.5963683  85.0328445
 102.3095330  61.2175991  25.9064847 102.1388682  60.7643689  25.0808412
 102.7969988  62.0014454  25.6531126  41.6282225  22.4361825  68.3293581
  41.7627478  22.3504019  67.3855495  41.0699558  23.2081199  68.4225368
  59.0544510  18.6408877  79.7126579  58.1191301  18.7320137  79.8945951
  59.0956306  18.3903348  78.7897491  15.7158422  54.6359682  84.0476990
  14.7684824  54.7560692  83.9819908  15.9017956  53.8852978  83.4836483
   7.8323025  35.1058912  43.1306171   7.3269075  35.8021235  42.7110100
   7.8043938  35.3185630  44.0634775  65.3743668  90.3142089  78.6575794
  65.0153991  90.4759855  79.5300484  66.2921162  90.0915105  78.8136959
  77.9754742  98.0429949   3.2866365  77.0541104  97.8522123   3.4624750
  78.1715497  98.8028826   3.8346845  23.7844133  37.1143007  79.4942904
  23.3594346  37.1628881  80.3505993  23.7768841  38.0154681  79.1716862
  15.8792973  34.8746872  30.0846076  16.5799689  34.3981242  29.6394348
  15.6939459  35.6186080  29.5114970  58.9442301  20.0076699  58.9841843
  58.5999537  19.6194005  59.7885132  59.0716124  20.9315610  59.1996574
  30.7762003  33.8421345  87.5962067  31.4344192  34.5363855  87.6277351
  30.5563092  33.6787343  88.5133648  46.5003586  18.7979913  76.4132690
  46.9969893  19.5437956  76.7499685  46.2444973  18.3081353  77.1948099
   6.6387415   5.6594331  15.4009992   6.1750269   6.2365205  16.0077650
   6.2288761   5.8254201  14.5520669  24.7488689  69.0394926  85.6348705
  24.5321751  68.1151772  85.5127048  23.9573550  69.4231939  86.0123730
  29.9365115  34.0747905  41.5778208  29.8219347  34.4433498  40.7018852
  29.1289616  33.5871553  41.7400122  94.2201742  87.9160780  66.7870855
  94.2416342  88.8696773  66.7069626  94.2015656  87.7553482  67.7305126
  69.7974070  97.2995008   7.6874620  69.8873933  97.1532597   8.6291391
  69.1537770  96.6499056   7.4046213  40.3609514  29.9572420  36.2877560
  39.8786688  30.7610416  36.4815140  40.6510067  30.0644207  35.3818798
  22.2586226  47.5337839  59.6171522  22.5807905  46.7756033  60.1045990
  21.9432664  48.1356287  60.2913713  53.5604354  77.8409900   1.0930997
  53.4617074  78.7908353   1.1585123  53.8973447  77.6955308   0.2090341
  48.1364485  71.3612331   9.4927293  47.4682911  70.6831135   9.3929750
  47.8660961  72.0542993   8.8903982  33.4749556   2.1795709  12.4351388
  34.2819834   1.9442708  12.8929311  33.3808518   1.5110070  11.7566091
  42.6418447  39.1753030  87.7810383  42.3990822  40.1011467  87.7916241
  41.8072033  38.7094116  87.7305412   2.1904725  35.3248262  57.2336483
   1.2391140  35.2204776  57.2175121   2.4636328  35.1713133  56.3291883
  24.0252447  64.8696852  82.3998260  23.3006215  65.4432011  82.1503735
  24.7814918  65.4530382  82.4632835  99.0729574  40.5798101  70.3055000
  99.7165303  40.3541470  70.9771538  99.5938460  40.7377958  69.5181322
  71.2130594  28.8857818  65.9765482  70.9167719  29.6306539  66.4996290
  71.9396925  28.5152483  66.4774847  57.5212765  31.8739772  31.5375352
  58.4484291  31.8267250  31.3043213  57.1788597  31.0032034  31.3357091
  39.7063947  42.6099586  86.8264675  39.6681905  43.4357357  87.3090172
  40.0486708  41.9784498  87.4591351  31.6590714  22.8827739  88.0399990
  31.7355013  23.7808967  88.3621311  31.4220381  22.9785275  87.1175671
  66.3583358  78.2044543  17.8818685  66.3306602  79.1445483  18.0598814
  67.0627435  77.8755726  18.4403307  52.5809332 101.3703073   4.0606958
  53.3771010 101.8905271   4.1689474  52.4473020 101.3312019   3.1136686
   7.3177044  90.9834255  11.3161737   7.9004709  90.3588761  11.7480928
   6.6248218  90.4422344  10.9376794  48.1714010  31.1972165  87.5440502
  48.2411861  31.3805318  86.6071606  47.2407246  31.0238171  87.6854992
  14.8638475  34.0875196  67.7916908  15.2724314  33.9271379  68.6423206
  14.1086686  34.6414757  67.9893541  14.7994602  31.7233896  74.6458960
  15.0679433  31.7112875  73.7272024  13.8563371  31.8845057  74.6177006
  41.1478519  66.0854483  49.8585224  42.1020412  66.0662603  49.7851276
  40.9753227  65.9133673  50.7841825  72.3049450  34.8445845  75.1334524
  72.7266598  35.1152754  74.3179083  71.8094444  34.0601945  74.8979950
 106.3093464   3.3148820  10.8171064 105.8427231   4.0027577  10.3424245
 105.6277244   2.8615577  11.3132078  30.1065040  19.6362400  46.9278526
  30.4784322  19.9667382  46.1101294  30.8606577  19.3121421  47.4202442
  35.5816722   7.2695279  76.8586206  35.1804066   7.5322181  77.6870012
  36.3263321   7.8619117  76.7547226  87.7282246  75.9339060  26.6229230
  88.6698588  75.8495845  26.4730913  87.3913296  75.0420107  26.5377313
  54.6749258  35.0721478  63.9932394  55.3639746  35.5727506  64.4300938
  55.1398993  34.3665791  63.5435677  59.3523026  26.0287929  65.7495213
  59.6474028  26.2124586  66.6413832  59.4134903  25.0770164  65.6682205
  56.9905615  14.7107685  86.3348961  56.7569447  15.1522624  85.5183506
  56.1588287  14.6058369  86.7968941  83.3324727 100.9264912   5.8038789
  82.9735049 100.9320845   4.9165613  83.2169255 100.0247063   6.1033231
  52.4221277  42.7100801  85.2355671  53.3398151  42.9740906  85.3017426
  51.9464254  43.5294151  85.0991058  36.9156122  60.8238792  47.8116894
  37.3931837  61.0417843  47.0112705  37.5243092  60.2819967  48.3137703
 104.8851975  65.5572881  14.5254785 104.7714909  65.5213679  15.4752142
 105.4859169  64.8384704  14.3288213  88.6600789  96.2129606   5.1188547
  88.2672795  96.2599863   5.9904748  88.5327490  95.3039087   4.8474866
  58.5420036  17.3671138  77.2095442  58.2018852  16.7298198  77.8375626
  58.6205149  16.8778908  76.3905621  60.4017528  69.5544888   5.6961519
  59.5923432  69.1656972   5.3645975  60.1821168  70.4741110   5.8454401
  49.8262787  41.8098354  73.8875055  50.2868700  42.5822830  74.2152405
  49.1167641  41.6700268  74.5146227  49.8771667  52.3273897  74.0948820
  50.3885603  52.0978642  74.8707867  49.3881607  51.5314150  73.8862467
  31.5659833  55.4747581  43.0864716  31.4476657  54.6230793  43.5070324
  32.2686911  55.8922911  43.5845709  55.3770781  21.8358183  84.7938061
  55.5395555  21.6961598  85.7267189  54.6250582  21.2778115  84.5954990
 102.7489241  80.7400454  10.5496484 102.1426495  80.1318802  10.1268083
 102.5092515  80.7119168  11.4759332  46.6039086   8.4020907  24.2880231
  47.3773384   8.3475501  23.7267190  46.8993473   8.0701215  25.1358110
  93.4626873  90.5014481  18.2840139  93.1623372  89.9374045  17.5713522
  93.1916007  90.0455274  19.0808088   4.3427813  44.0838337  59.7991276
   4.1731355  43.1417942  59.8026752   3.6310878  44.4573212  60.3189611
  93.6782464  94.8138203  12.3365099  93.3287962  94.2141928  11.6772920
  93.7614068  95.6505407  11.8791086  51.8425266  94.7829992  49.3819714
  52.3018447  94.0440590  49.7810030  52.2175876  94.8522914  48.5040379
  57.6402521   6.8417352  82.9156208  57.4121857   5.9143299  82.9799366
  56.8744326   7.2492170  82.5110149  40.3228712  41.1977720  45.0708771
  40.1412630  41.7890406  45.8013964  41.2747049  41.0966778  45.0754929
  55.5640459  40.2939272  77.0092010  55.0722122  39.5551062  77.3676348
  56.4319897  39.9359727  76.8227196  32.5913405  49.3612576  76.3208628
  31.7798448  48.8550091  76.2832355  32.3223162  50.2213812  76.6434336
  27.4637222  32.9490757  54.2975950  27.0053506  33.1276751  55.1187086
  27.6628375  32.0134854  54.3330383  47.5467396  42.5123739  70.4402447
  47.8151560  42.7100754  69.5429707  47.3852921  43.3687782  70.8361530
  68.3145412  88.1016649  21.9845468  68.8802942  87.4168743  22.3412210
  68.9072617  88.6699213  21.4926130  72.3284849  86.3946546   0.3330308
  72.2673591  85.5030860   0.6759531  72.9791792  86.8215455   0.8903390
  35.0329494  68.8286352  86.9075966  35.2324796  69.7117472  86.5969086
  34.5401955  68.9650440  87.7167988  11.2254763  20.5043895   3.6621362
  10.3489208  20.5331380   4.0456182  11.4677286  21.4235074   3.5491258
 103.6853369  72.8158702  19.7277051 102.8983077  72.6498188  19.2088205
 103.6301239  73.7437190  19.9563581  49.5095110  37.2264433  45.2260971
  49.0546322  37.2275639  44.3838882  50.4362488  37.1542168  44.9976778
  85.5306713  30.1167018  10.7065851  85.4643075  30.9140117  11.2320692
  86.1792581  30.3261001  10.0344831  54.0821648  36.5918279  87.8533936
  54.7523403  36.3717365  88.5004330  53.4135771  35.9154129  87.9614830
  73.9379471  99.4052232  58.1304646  74.2979579  98.6487565  57.6674509
  74.4627628 100.1450992  57.8248739  34.5571947  22.8973103  77.6989412
  34.7083116  23.8267112  77.5268650  35.2327704  22.6582789  78.3335257
  45.8419418  45.5197525  79.8470783  45.2550697  45.2077246  80.5358887
  45.8767653  46.4679337  79.9734354  23.5272503  11.5703303  20.3095418
  22.7394438  12.0940120  20.4556924  24.0666294  11.7276961  21.0844881
  38.4366083  18.2001770  76.5530491  38.1970358  18.6198759  75.7268000
  39.1547751  18.7337387  76.8933153  99.3636092  61.7190875  16.8002016
 100.2010354  61.7618586  16.3385564  99.5470818  61.1970593  17.5812608
  12.5458193  17.3547656  12.8407365  11.5959215  17.2804219  12.9323751
  12.6913119  18.2659776  12.5862676  46.7438602  29.0285587  52.7465963
  45.9373379  28.5937095  52.4697208  46.7851591  29.8204970  52.2105360
   7.9206610   0.0723225   7.0964319   7.0472336   0.3931100   7.3210508
   8.3422709   0.8119399   6.6588956   0.3557307  50.2864408  52.6038408
   0.5634967  49.3697834  52.7849388  -0.1571169  50.2607155  51.7960262
 106.4392285  23.0770206  80.2119541 107.3508823  22.7868700  80.2424908
 105.9297123  22.2835732  80.3764820   0.9359066  70.7674755   6.3062173
   0.0056450  70.5426766   6.3237936   1.3474123  70.0470866   5.8287889
  58.4498119  28.0616641  72.9260588  57.6407671  28.3765769  72.5229311
  58.5591841  28.6095738  73.7032747   6.3161603  85.5379278  81.2460136
   7.0221368  84.9645073  80.9476566   5.5773345  84.9487693  81.3985252
  85.4256018  82.0202078  10.4589063  86.2852152  82.0206965  10.8799726
  85.2789696  81.1063374  10.2148420  75.9298070  65.0640596  15.6158811
  75.1683243  65.6001533  15.3945619  75.6520732  64.5567931  16.3786203
  34.9349427  47.3694658  65.7980776  35.0477958  46.5709829  65.2824068
  34.6537066  48.0274343  65.1623011  25.5339408  38.1576276  51.3138485
  26.3414431  38.6684251  51.3709545  24.8721552  38.7082076  51.7323399
  53.1840464  92.5940479   2.7158338  52.8833159  92.9324688   3.5591966
  53.1773802  93.3556236   2.1360189  64.0701231  92.1313156   1.2284738
  63.8782319  92.3865665   2.1308309  63.2309826  92.2077335   0.7743341
  85.1830109  73.6392917   3.9976102  84.5643433  74.1968430   3.5257894
  85.7304772  74.2515625   4.4891817  12.1552777  48.5132265  58.2133722
  12.0358789  49.4095135  57.8992939  11.6090035  47.9817390  57.6342869
  63.5773615  24.4753701  32.5053865  63.7766413  23.5572774  32.3220331
  64.2422692  24.9659116  32.0221693   8.1024122   2.7275521   6.4918787
   8.1429672   3.6768300   6.6079122   8.0832911   2.3779637   7.3827535
  52.3906708  32.5784779  80.4772377  51.8974257  33.1742167  79.9132967
  51.8094730  32.4157143  81.2201691 106.7737262   2.4644954   3.1306058
 107.0541279   2.1552808   3.9920026 107.0433990   1.7714888   2.5279027
  24.3442297  35.0821948  87.4611855  24.8798847  35.4009509  86.7347527
  24.2264318  35.8464837  88.0252934  49.0901470  38.2839608  72.9567575
  49.8675203  38.3099222  72.3988628  49.4338560  38.1536269  73.8405609
   9.1653162  34.8681831  75.9396172   9.1864461  34.8331714  76.8959427
   8.8772231  35.7586479  75.7388496  49.7203255  47.6330996  82.5673199
  49.0215540  47.0874023  82.2065449  50.4787540  47.4482775  82.0133781
  68.9285326  32.8731346  85.7377148  68.7252378  31.9562387  85.5527592
  68.3058977  33.3685541  85.2056217   6.6963911   0.3785331  26.5193731
   6.5764332   0.5961091  27.4437601   7.6009894   0.0710494  26.4611227
  47.0890284  45.1102734  84.6564484  47.3646593  45.2571344  83.7516308
  47.2517729  45.9454155  85.0949478  28.6400151  41.4215469  77.3836565
  28.2495499  41.5966415  78.2398748  29.4119048  40.8894348  77.5767231
  85.0573834  65.3218497  12.1504671  85.2104243  66.2497868  12.3286420
  84.1304406  65.1895071  12.3491937  67.5395425  89.7293247   5.0221998
  66.8940004  90.4231824   5.1566202  67.5831851  89.2763723   5.8643133
  49.3267961  50.6254793   2.4676973  49.9052294  49.8630625   2.4868566
  48.6393269  50.3889584   1.8450624  50.4948278  71.9712676  12.8703958
  50.2578481  71.0774030  12.6232511  49.7772070  72.5100888  12.5373441
  48.6063337  29.3701291  63.9745378  48.2432699  28.5285854  63.6984539
  49.4842291  29.3888116  63.5935163  28.0781078  70.9151888  61.9146776
  27.2397232  70.4645443  61.8133974  28.5181928  70.7942963  61.0732841
  13.0652762  14.0415866   6.2784273  13.6739206  13.5361583   5.7396013
  12.5459242  14.5413024   5.6485063  92.7419003  92.3304428  10.7526952
  92.3948630  92.7023233   9.9418241  92.2318610  91.5317263  10.8874017
  35.0398970  37.4005413  64.8874903  35.5239248  38.1384873  64.5168352
  34.5623875  37.0302081  64.1451454  47.5019646  39.4469213  70.8323336
  47.9284859  39.3151188  71.6790533  47.5096607  40.3956318  70.7053709
  28.5304928  45.4062366  52.1222448  28.2658243  46.2350225  52.5213671
  28.0395579  44.7407246  52.6042271  72.6291847  33.0516791  77.6276112
  72.1474171  33.6655116  78.1819963  72.4951601  32.1991038  78.0416012
  90.2908333  53.6176489  29.2204267  90.3225478  54.5430328  28.9777547
  91.1568030  53.2801704  28.9914304  18.6691237  21.3788993  14.6076376
  18.7984181  22.2149712  14.1598588  17.7207899  21.3105447  14.7181779
   9.8253433 101.6946617  82.7053928   9.3618194 100.8632705  82.6045609
   9.1573612 102.3619290  82.5479698   6.4851457  53.3168125  79.1629267
   7.3325759  52.8728390  79.1315842   6.0571796  52.9613352  79.9418449
  15.9401369   2.4036080   4.1545755  15.7927561   2.2145087   3.2278806
  15.1876545   2.0152671   4.6008855  30.4096389  52.9414272  82.6866817
  30.8691931  52.3125792  83.2430935  30.5712581  52.6346827  81.7944813
  74.5380934  62.2810532  12.1075040  74.1326912  61.9974519  11.2880880
  74.5276745  61.5011479  12.6623708  59.9577093  25.4114389  78.2760429
  60.3898144  24.5623612  78.1834078  60.6742287  26.0461259  78.2757902
  23.5521674  41.1782694  80.2118492  23.9816904  40.7599068  79.4657230
  23.7552476  42.1085882  80.1143932  20.2042723  45.2511597  69.8888159
  20.8875632  45.9112597  69.7721481  20.6757069  44.4182110  69.9021578
  82.1126708  79.2878260   1.3477212  82.2805747  79.1885914   0.4106027
  81.2095841  79.6011890   1.3973791  34.4325352  52.0852566  83.2468224
  34.6307182  52.5636578  82.4417782  34.6062517  52.7135563  83.9477444
  30.2079654  38.1051397  82.6892948  30.6439090  38.5890985  81.9878864
  29.9546099  37.2749162  82.2858429  37.6118612  11.6413999  79.5827818
  36.9198298  11.1269140  79.1672945  37.2501826  11.8854797  80.4347420
   6.6429655  83.6280097   6.0618383   5.9738962  82.9803814   6.2835390
   7.2943823  83.5475339   6.7585546  53.3015823  65.7432604  82.4438572
  53.2118225  64.8058701  82.6155281  52.8009605  65.8887529  81.6410828
  45.2620506  28.7400150  65.6115580  45.6781721  28.0449724  66.1214495
  45.0683832  28.3340597  64.7666168  53.3063126  26.6481423  69.0112066
  53.4909439  26.4051294  68.1039667  54.1669083  26.6880322  69.4283628
  81.3510664  91.7868723   2.3909742  81.5859421  91.9856705   3.2973653
  80.6405743  92.3955549   2.1886426  25.8727336  23.0153680  85.3092384
  25.6955409  23.9295912  85.0878048  25.3220367  22.8428316  86.0729122
  11.3075936  22.7010727  62.3623133  11.6962767  23.5257435  62.0706415
  12.0562077  22.1556568  62.6038361  45.0952673  32.2242045  74.4211817
  45.7921696  32.7792740  74.0712500  45.4103088  31.9606996  75.2857924
  55.3143883  57.2535086  87.3724937  55.6071949  57.3459148  86.4658737
  55.0088882  58.1274176  87.6157761  49.8343404  60.4713596   2.6679975
  50.1394411  61.0488857   1.9682771  50.1968726  60.8520432   3.4679204
  49.8952389  44.1590166  71.6778946  49.4832277  44.8591185  71.1715984
  49.2007256  43.5119581  71.8011570  45.1948595  38.3422637  70.4767084
  45.0485659  38.1312203  71.3988209  46.0399246  38.7916708  70.4650068
 106.3095720  27.7362680  86.1746597 105.6926700  28.3487129  85.7739449
 106.1095537  26.8936729  85.7669163  63.5986789  81.6673721   0.1837999
  64.4271883  81.7974390   0.6451971  62.9459032  81.5933265   0.8799631
  23.9042473  60.5588436  47.1767855  23.4671187  60.2365589  46.3885689
  23.4316087  61.3601303  47.4021292  66.0072430  79.5205845  14.5783311
  66.3578256  79.7787632  13.7258894  66.3907941  80.1450099  15.1941377
  79.1627173   5.0953633  27.3045332  78.9004193   4.9134929  28.2069475
  80.1135538   5.1969106  27.3473245  40.3149939  34.0097666  46.6887140
  40.3867149  34.7894144  47.2393799  40.7989979  33.3349609  47.1647501
  38.3872581  46.3591528  54.5169592  37.5210524  46.5914869  54.1823864
  38.2125854  45.7332039  55.2197504  30.3478026  42.8150702  72.0312643
  30.3474879  43.7627649  71.8967104  30.1159072  42.7039862  72.9532814
  11.2621105  20.1546049  72.4308729  10.5398953  20.6589317  72.8054285
  10.8665156  19.6731269  71.7042971  47.2642517  56.9549751  66.2581921
  46.3902712  57.0213032  66.6428852  47.6292372  56.1519527  66.6299057
  33.2931542  42.2842884  70.5531645  32.7399969  42.9518986  70.9588003
  34.1410780  42.7132893  70.4382038  24.9592924  58.8360500  67.8968334
  25.4340410  58.6461210  67.0876503  24.8002863  57.9772186  68.2884502
  46.7873096  44.6373415  71.7272902  47.3778009  45.1237869  71.1520243
  45.9870148  45.1620626  71.7480469  24.5330640  96.3074840   6.7582971
  24.1663428  96.1592735   5.8866388  24.6779676  97.2527517   6.7996198
  16.7558813   5.6870181  12.7260953  17.6165819   5.6841761  12.3072607
  16.1795283   5.2604777  12.0919687  10.4260818  96.2448849   7.4826986
  10.8295242  96.5250935   6.6611463  11.1610309  95.9586014   8.0250246
  56.8395615  10.6837142  86.5959167  56.2218761  11.2620616  87.0433712
  56.8305588   9.8779720  87.1125698  30.2144051  29.9165297  75.9478664
  30.6901097  30.2205086  76.7208672  29.5058632  29.3773890  76.2993288
  84.7267151  32.0285630  57.2117805  83.8405704  31.7068601  57.3775578
  84.6033287  32.7868867  56.6408634  44.3000031  46.8808174  84.8407364
  44.4340992  47.5001621  85.5581379  44.8053265  47.2438097  84.1133308
  39.0273595  46.8896770  72.4989033  38.4669447  46.6235447  73.2278347
  38.4854484  46.7603683  71.7205429  78.9180525 100.0048937   5.1616174
  79.2333230 100.1152147   6.0586435  78.3663949 100.7714333   5.0056535
  30.2051187  26.0115147  70.7741022  29.7940850  25.2541304  70.3573847
  31.1175489  25.9770918  70.4868412   7.1140051  10.1163060  12.9828817
   7.7104092  10.6318242  12.4399549   6.4488840  10.7423932  13.2689935
  42.9117584  33.6534929  73.9929914  43.6684608  33.0827045  74.1265154
  42.3706007  33.5197520  74.7711277  44.4574451  52.1004009  57.2362614
  44.9652100  51.8206406  56.4745903  43.6110687  52.3649549  56.8758535
  42.2715950   8.5783029  67.6759720  41.6920996   7.9099190  67.3103428
  43.1068325   8.1281060  67.8021908  60.0668240  15.4502428  69.7139597
  59.4653559  15.9347367  69.1485119  60.9011889  15.4656458  69.2450953
  52.3356696  96.9457973   5.9839517  52.3391267  97.5879206   6.6938097
  52.7282341  97.4064411   5.2423746  43.7104702   4.1313419  66.0306692
  42.7562141   4.0618536  66.0023975  43.9999819   3.3010259  66.4088106
  24.5195293  29.0107489  46.1739779  23.7746954  28.5478473  46.5576124
  25.0009584  29.3548918  46.9263220  81.6361435 100.2108015   0.6082708
  82.0753010  99.3720592   0.4672510  80.8629473 100.1739754   0.0452119
   6.0052101  81.7866100   2.9939729   6.7367593  82.0674385   3.5437089
   5.7942001  82.5558103   2.4647886  46.8503666  16.2363446  61.6451216
  47.6132107  15.6709373  61.5242147  46.4843750  15.9678197  62.4878359
  46.4827919  37.5139546  86.5259743  47.0101690  38.2945919  86.3565159
  46.0365391  37.7010250  87.3518562  25.9126019  58.8944912  79.6538258
  26.2376547  58.6522675  80.5209446  25.7477665  58.0585194  79.2176962
  47.6594349  98.0002321   3.5976297  48.2688530  98.7336887   3.5146600
  47.4961289  97.9297365   4.5381528   3.8111192  51.2876320  77.8869820
   4.3201953  50.7329512  78.4780836   3.1156579  51.6485739  78.4367847
  37.0011544  17.4822938  58.7506676  37.6243114  18.2077539  58.7104797
  37.2954178  16.9546342  59.4931030  54.3629360  24.2204094  65.5326414
  54.8164082  25.0340128  65.3120899  55.0629997  23.5750318  65.6307602
  17.2150374  22.2629649  27.6194841  16.2822056  22.1836573  27.4200803
  17.6133490  22.5418383  26.7949754  98.3742484  81.3328256  32.3624689
  98.3678778  81.9248022  31.6102964  98.7313183  81.8587078  33.0781347
  65.6874903  84.4729318   1.8665678  65.7068404  83.6182512   2.2971231
  65.8120140  85.1019873   2.5772077  59.3250608  28.0633044  49.4071484
  60.2679157  28.0778646  49.5716000  59.0461588  28.9704514  49.5317698
  46.8392467  34.2914963  77.0989609  46.0947227  33.6903167  77.0767450
  46.4792681  35.1056600  77.4507952  54.2970037  41.4416122  71.9634295
  54.3141508  41.5282869  71.0103130  53.4841061  40.9705305  72.1465015
  41.6109991  31.6579175  59.4586563  41.6083336  30.7701588  59.1007328
  42.3256302  32.0991516  58.9994717  35.1947878  95.1477970   9.8782712
  36.0063379  94.7722734   9.5368082  34.6310770  95.2386393   9.1100198
  55.7201052  42.8188133  77.9123497  55.4739666  41.9681120  77.5490952
  55.4755926  43.4486055  77.2342634  48.0902481  20.9572387  77.4408579
  47.7085495  21.7891645  77.1607876  48.2573557  21.0732126  78.3761930
  37.4471211  47.9488325  66.1132574  37.7539682  48.7904358  65.7759380
  36.4928913  48.0035782  66.0614634  41.6427755  44.5786619  55.4680634
  41.6592932  45.4535818  55.0801563  40.9650040  44.1124439  54.9786758
  83.3454188  84.3865050   4.1184408  84.2726811  84.3848933   4.3559724
  83.3350237  84.1453184   3.1921846  47.4119854   6.1243230  82.9723358
  47.7984381   6.9988936  83.0171776  46.8528557   6.1490619  82.1958065
  79.5778712  85.4957427   3.2650262  80.0596007  85.8454050   2.5154192
  78.7582167  85.9900130   3.2746774  49.1685899  89.7055925  22.1165067
  49.6080073  89.2507376  22.8350145  49.1553482  90.6237496  22.3867685
  89.5184430  95.5158295  26.3798505  89.3282135  94.5858683  26.2564832
  90.3498038  95.6525625  25.9255678  35.9168744  35.3378534  35.2591348
  35.1956367  34.7151113  35.1683664  36.5441585  35.0778341  34.5844960
  51.5495300  42.8259659  78.0849218  51.3083744  41.8997478  78.0989027
  52.1980810  42.9151678  78.7832499  86.8508967  93.9244194  39.8055029
  87.2396525  94.5281947  40.4383993  86.1913367  94.4472671  39.3496037
  67.5878247  90.8227672  22.4243146  67.6904615  89.8722781  22.4719698
  68.4481581  91.1432947  22.1535379  21.6852856  11.2148005  12.2312624
  21.1524058  11.0849721  11.4467794  22.5868988  11.1046130  11.9292909
  12.6657105  10.4280526   3.4170419  11.7440605  10.3672559   3.1658536
  12.8043032  11.3580806   3.5961229  68.8995123  61.3177824  86.7699242
  68.0407810  61.3991880  87.1848774  69.4372082  61.9829273  87.1996880
 105.2827080  90.6918014  17.3480207 105.0483616  89.8212923  17.0262605
 104.4442519  91.1038317  17.5564844  45.9977865  28.6511564  48.6546993
  45.1384497  28.2377195  48.7374401  46.4467478  28.4361196  49.4722700
  46.2384415   9.5383174   2.9287893  47.0833111   9.2179353   3.2446748
  45.8322048   9.9399144   3.6968500   6.2074375  12.4346549   1.6940099
   5.6373406  11.6860015   1.8693239   6.3933516  12.8016955   2.5582773
  -0.1712584  12.6299626  32.4015123   0.4668689  12.0477111  31.9891912
   0.0764084  12.6404292  33.3260519  30.7532525  38.8319659  79.5578671
  31.3579559  39.3878365  79.0663671  30.4349089  38.1978011  78.9154339
  75.6444701  88.5711063   2.5851423  75.5436595  87.8837623   3.2436449
  76.2501200  89.1967000   2.9827005  83.7361010  98.6779465   7.2909338
  84.0865859  99.3213858   7.9068643  83.8504275  97.8365053   7.7326757
  54.8663807  63.9018393  84.1391659  54.9854612  64.5432949  84.8395824
  54.0959740  63.3989525  84.4033718  86.2281426  90.6248797   2.5504381
  85.4227074  90.6721033   2.0353872  86.8179043  90.0853480   2.0238287
  65.6409264  55.3132725  87.7564812  65.7233763  54.4594240  88.1811810
  66.3586521  55.3362751  87.1235657  48.8107014  16.5989673  82.9183865
  48.7863302  16.3989508  81.9826317  47.8974867  16.5416074  83.1994247
  66.5383005  24.9489689  75.5112982  66.4567280  24.0090895  75.3494263
  66.5565681  25.3416228  74.6385336  56.5048409  47.8291130  74.4522905
  57.0876646  47.6405144  73.7167740  55.6658220  47.4451733  74.1976023
  51.3009024  54.8410940  74.1213703  50.9875202  55.1687241  74.9643898
  50.5932522  54.2797899  73.8045073  81.5606507  68.9327790   4.7015459
  81.4596089  68.1301881   5.2132780  81.0975560  69.5998408   5.2082998
  46.8001938  40.1945782  74.2542362  47.0898104  39.3157816  74.4993353
  47.1709585  40.7653618  74.9272680  70.6274414  76.9005966  58.3575249
  70.1278496  76.1043167  58.5380125  71.5184116  76.6934061  58.6394310
  18.4719896  39.5511157  12.1753484  18.7854433  38.6684615  11.9781095
  19.1248751  39.9081809  12.7774030  57.7957010  66.4277840  67.8429842
  57.0841503  66.9237280  68.2479143  58.5924768  66.8721676  68.1326532
  90.0678444  56.2163591  78.4717178  89.1253567  56.3571405  78.5618210
  90.3078747  55.7016134  79.2422104  90.7346018  98.0413832  28.3530313
  89.8774346  97.6309647  28.4672720  91.3598593  97.3253502  28.4652025
  23.5808555  61.4633180   0.8108026  23.3192722  62.3221148   0.4787332
  22.7823059  60.9371675   0.7695371  67.4019869  95.3170504   6.7718870
  67.4596723  95.0514902   5.8540708  67.4467000  94.4960798   7.2620279
  24.5964050  15.9973294  21.3608533  25.5171490  15.8548934  21.1413461
  24.3570900  16.7927987  20.8852560  30.9994126  42.4871356  21.2983781
  30.5157185  42.7212626  20.5062562  30.4300213  41.8654544  21.7517358
  20.3414393  10.5579001   9.7611028  20.1111317   9.8289925   9.1850072
  19.6255398  11.1840350   9.6530324  90.6187439  78.7164450  42.6326466
  90.3135681  78.8166952  41.7309570  90.3530598  79.5270157  43.0669451
  57.5095940  80.0889683  70.1201391  56.7793036  80.5192566  70.5648375
  57.2620010  79.1647625  70.0922441 101.1639079  92.7722277  12.4286729
 101.0412606  93.1850733  11.5738374 100.7550677  91.9113125  12.3397523
  92.4070843   0.2919429  41.7607069  92.3780449   0.8866446  41.0112333
  92.5641354   0.8623736  42.5131512  22.3634887  49.4853878  83.7405586
  22.6679516  48.7542772  84.2781639  21.5749907  49.1543818  83.3105183
  23.3024597   3.3690745   6.0768777  22.7983427   4.0821750   5.6849844
  22.7911997   2.5822455   5.8878118  27.1960354  38.5218055   4.0250570
  27.4189425  38.6372668   3.1013662  27.7846241  39.1167266   4.4896585
  40.0828743  77.7265453  62.0817089  40.5332041  78.5382271  62.3153925
  39.3585753  78.0070019  61.5222740  29.6246457  67.6102066  83.3465576
  29.5455337  68.0779839  84.1779137  28.8987660  66.9862747  83.3527756
  67.2976255  34.7914529  84.4916153  67.5491714  35.5785775  84.9747276
  66.4159107  34.5897174  84.8048496  57.3464298  72.3115349  80.9315395
  57.4220991  71.7539215  81.7058659  58.1373024  72.8505468  80.9463310
  55.1811457  63.2060003  76.7238760  54.6532393  62.7230597  77.3597336
  54.8876381  64.1131401  76.8086338  74.0063095  31.4727902  72.8269196
  73.5183334  31.6402960  73.6331797  73.3325148  31.2815571  72.1744919
  56.3793993  47.3805094  77.3495674  56.9014788  48.0448294  77.7993917
  56.5060806  47.5658989  76.4190769  39.7923589  64.3392658  86.4077187
  39.1145921  64.9319220  86.0827255  40.4878998  64.9185419  86.7189980
  31.3576961  97.0908070  87.1520710  31.4003658  97.6066303  86.3468742
  31.8298268  97.6159668  87.7982426  72.9707956  68.8860226  71.4896202
  72.1459055  69.3215752  71.2749624  73.5998297  69.6004868  71.5900803
 104.7411577  19.5040376  24.8409063 105.5739681  19.7343547  25.2527410
 104.4505398  20.3128917  24.4195634   4.5115566  13.4014899  22.8727514
   4.0558672  12.6989324  22.4090749   3.8746572  13.7181575  23.5133058
 103.8927762   8.6113936  50.3268987 103.6639897   9.1982657  49.6061498
 104.5350496   8.0094153  49.9509412  40.0290442  20.6262643  13.4207517
  40.4366493  20.0298888  14.0487844  39.3137503  21.0350139  13.9080984
  53.0870152  31.5838051  87.5589943  52.9383564  31.0159135  86.8029308
  53.0674887  32.4708390  87.1998024  68.7459310 100.7117618   1.4314634
  67.9576071 100.6181396   1.9662553  69.4688066 100.6151070   2.0514089
  97.0933477  21.2817199   0.1625711  96.1393802  21.3452346   0.1162511
  97.2560565  20.4902703   0.6757623  73.3952745  93.7952293  13.2648450
  73.4331878  94.7433056  13.1385690  73.5172184  93.4317221  12.3877889
  38.6392069  39.4222927  85.9320641  38.8998985  40.0575447  85.2651882
  39.4556284  38.9906788  86.1838531  73.4248956  85.9851541  15.1991350
  74.3574198  86.1988653  15.2300817  73.2260927  85.6531228  16.0746175
  41.1655903  24.1265876   2.1957857  40.6595707  23.3145244   2.1688444
  40.6530762  24.7096879   2.7557451  90.4127797  99.1283001  22.9520589
  90.2136477  99.0073265  23.8804704  89.7896012  99.7927011  22.6580221
 103.1752889   3.8470847  30.1582414 102.9972045   4.7371776  29.8545152
 102.7300422   3.7888915  31.0035879  25.0452518  61.1022758  84.2992592
  25.9621859  61.3226175  84.4633007  24.9225068  61.2684202  83.3646107
  34.3571520  24.8254115   3.5366327  33.7379790  24.3734605   2.9634077
  33.8359833  25.5055482   3.9632875  86.1790856  91.6731323  31.6405469
  85.4154356  91.4928068  31.0923177  86.9018610  91.7691387  31.0203821
 101.1427117  40.1317126  23.9493639 101.7813206  39.4198233  23.9896566
 100.3256607  39.7381408  24.2555696  69.5202065  32.9634482  13.9273054
  68.7728024  32.7055079  13.3877832  69.2148876  32.8534324  14.8278028
  58.1222916  73.9516258  63.8313961  57.7234221  74.5140505  64.4953346
  57.3838949  73.6334753  63.3119917  48.4007645  20.4094798  22.3263246
  49.3215466  20.1528079  22.2763139  48.3918381  21.1532838  22.9287511
  77.1295786  88.0199528  68.2166004  77.5604916  88.2736397  67.4003983
  77.8383493  87.6908684  68.7693930  39.7913504  12.4379784   6.6653711
  38.9608050  12.0573813   6.3797647  40.0821591  11.8702084   7.3790247
  58.0970669  64.7134161  87.7164650  58.6238337  65.4622698  87.4372387
  58.0386257  64.1584063  86.9387913  70.7836485  62.9902124  87.7480412
  71.2424707  63.8248873  87.6530170  70.4580402  62.9970026  88.6481285
  61.9126415  51.2997913  82.8193665  61.2524939  51.9142532  83.1400967
  62.3669100  51.7771149  82.1250820  53.3771753  84.1857243  66.5210772
  53.7620020  84.8332500  65.9304428  52.6473951  83.8136768  66.0258675
  14.5091534  15.9123666   3.8862974  15.1258564  15.9017331   4.6182710
  13.6512470  16.0182006   4.2974264   0.3273336  89.6904577  15.5173952
   0.5329935  90.6018962  15.7252866  -0.5365856  89.7274817  15.1069051
  61.6517925  14.5855195  22.0364362  62.3206902  14.1476495  22.5628263
  61.4769459  13.9779908  21.3177091  66.9459724  68.0416250  81.9292545
  66.7000723  68.8214922  82.4268150  67.8079081  67.8021669  82.2697830
  74.9050522  81.6240215  70.1119757  75.7081509  81.1912155  70.4017115
  74.2239857  81.2747574  70.6867695 101.3841057  85.1956272  55.7030344
 100.5374050  85.4791451  56.0479212 101.1694336  84.7271824  54.8963737
  39.7681999  97.3792362  75.1268721  39.7393274  97.1803379  74.1910076
  39.4677091  96.5759087  75.5518436  54.6655607  84.3652916  63.8263845
  55.1010704  84.9949455  64.4009256  55.0527191  84.5196629  62.9646969
  65.1136589  64.6416473  87.1945095  65.1637077  65.5061245  87.6024342
  65.5920506  64.7373533  86.3709736  53.5216522  31.5644843   3.1559927
  52.6316643  31.7609794   3.4484750  53.4041214  30.9793193   2.4076540
  57.8607273  68.1978607  58.3121872  58.5207033  68.5696745  58.8973522
  58.1006336  67.2742987  58.2366514  75.9005865  99.1419805  37.2933847
  75.1448329  99.4967665  37.7615720  76.6508540  99.6094097  37.6605875
  77.0999146  66.4413404  70.2515078  76.4340878  66.8725634  69.7158289
  76.7487097  65.5652571  70.4107761  12.0516014   3.0978591   4.6470624
  12.6943112   2.5841004   5.1361448  11.4225435   2.4516780   4.3261701
   9.6967983  17.2029693  17.9273969  10.5374909  17.4790866  17.5623876
   9.0468216  17.5283582  17.3045904  80.7256699  60.1967669  76.1576319
  79.8987103  60.5448723  75.8241844  80.4703045  59.4489479  76.6978025
  43.7375164  13.5532576  29.6003610  43.9854336  14.3943173  29.9842721
  44.0268994  12.9031474  30.2405530  46.6623211  32.9106242  16.6731626
  46.2238598  33.3304984  17.4132234  47.5947666  32.9735286  16.8801290
  58.0332375  77.8262949  68.5962725  58.7401533  78.4652948  68.5058451
  58.4558392  77.0528221  68.9696074  35.2038050  15.6156928   1.8345720
  34.6760321  15.5087001   2.6259214  36.1038494  15.6804568   2.1538812
 107.9426472  62.2693641  61.6387445 108.3006803  62.0724780  60.7731325
 107.0402114  62.5395305  61.4688856  85.2140816  95.0238098  19.7457868
  86.1549624  95.1536478  19.8646146  85.1478775  94.2504991  19.1855794
  97.3934754  90.4461492   5.2405340  96.9843777  90.4834641   4.3759710
  97.5716408  89.5162667   5.3812677  91.4706612  73.5887909  73.4771633
  90.9454155  72.9072142  73.8964367  92.1106911  73.1086922  72.9517031
  86.4884528  17.8358024  77.1785736  86.9216689  18.5001700  77.7144575
  86.3007983  17.1217101  77.7877569  74.6909142   6.7467696  20.2832490
  75.2362442   6.3066012  20.9352476  75.1522541   6.6128308  19.4553262
  84.3177986  36.1374289   4.9028665  84.6829033  35.3326423   5.2706319
  84.7060871  36.1996562   4.0301782  21.7998696   9.7678096  18.9068586
  22.0903444  10.5429513  19.3875009  22.4123049   9.0802867  19.1685373
  23.3549071  37.4698932   2.8250009  22.7976704  38.2282645   2.6501256
  23.0078888  36.7817122   2.2573549  54.7932720  55.3519535  82.8772926
  53.9078903  55.7060957  82.7941036  54.8087168  54.6031904  82.2811794
  64.9531364  49.7281885  82.5708389  65.8582067  49.7128630  82.8820324
  64.4255257  49.7433043  83.3693504  15.6591749  12.7287013   6.5116579
  16.5060806  12.4485690   6.1645109  15.8721686  13.4345300   7.1221239
  92.7871037  71.5870190  65.5708218  92.6237774  70.8183956  66.1174250
  93.2990074  71.2527466  64.8343086  48.3848572  33.2029540   1.1426050
  49.0470791  33.8314254   1.4302045  47.5937748  33.4533603   1.6198045
  71.8796921  64.6052074  83.3471394  71.3438892  64.0587902  82.7721882
  72.5390911  64.0074682  83.6994648  84.1704273  50.3162622  86.5135098
  84.5613480  51.1837006  86.6181850  84.3153477  49.8850250  87.3556900
  17.5734854  21.8360144   3.9435083  18.4168911  21.6058499   3.5537416
  17.2990561  22.6231629   3.4730703  25.8916712  27.4564559  26.9950849
  25.6594896  26.5645844  26.7364484  25.3290320  28.0154044  26.4591390
  72.2542763  47.4881458  81.2185860  72.9280758  47.4135065  80.5428314
  72.3189449  46.6708326  81.7126083  92.2446156  59.9491644  78.2005501
  91.7054176  59.8519373  77.4156618  93.0891514  60.2595949  77.8740168
  75.4238653  90.4020119  53.0958986  75.7638264  89.5846558  53.4600115
  75.5745649  91.0512447  53.7829399  69.7990036  75.5486059  81.6766453
  70.6392765  75.5702162  82.1345806  69.8645020  76.2447643  81.0229588
  60.5887794  87.0741081  83.4161568  60.4880667  87.6384258  82.6495838
  60.5799198  87.6765823  84.1599083  38.3452463   1.3604266  25.1516134
  39.2349005   1.2072141  24.8333723  38.2522822   0.7677276  25.8974725
  27.1092463  25.3963858   6.2803728  26.4844847  24.8623330   6.7709714
  27.9590368  25.1882321   6.6686422  33.9083838  80.3312111  60.4711533
  33.2736897  80.6914902  61.0905075  34.5496655  81.0315704  60.3507662
  25.1455641  23.9090068   8.2840711  24.1886425  23.9087970   8.3071882
  25.4018259  24.5143039   8.9799005  63.7057495  64.9278831  73.2869291
  64.0837479  64.2402840  72.7386999  62.8019238  65.0075626  72.9819965
  22.1550656  12.0895154   1.8647844  21.6259670  11.3325459   1.6132146
  22.2321558  12.6052529   1.0620958  21.7536307   1.0339124  27.0563489
  22.3848915   1.2731082  27.7349741  21.3414383   0.2344424  27.3837358
  94.9108028  48.8304996  50.4662895  94.7264957  47.9191685  50.2388191
  95.1920414  48.7969685  51.3806248  32.6659250  92.1057510  49.4841623
  31.9068623  91.5741539  49.2444468  32.4467587  92.4616528  50.3452826
  66.1335659  78.7297821  76.7296362  65.3121281  78.5822248  77.1983576
  65.8889294  78.7067080  75.8045149  68.1844998  39.3642718  26.2429029
  67.4966717  39.4314010  26.9051916  67.9810143  40.0576217  25.6151277
  53.9262152  79.0377045  55.5731535  53.8121080  79.6355820  54.8344040
  54.8722601  78.9028120  55.6281948  55.7216454   3.4863717   1.8246824
  55.0525665   3.8745887   2.3884660  55.3721523   2.6249987   1.5963918
  72.5742292  82.9746819  58.3128357  72.6725054  82.5935268  57.4403095
  72.7068996  82.2397423  58.9115810  33.1698442  75.9194088  79.0209484
  32.3110986  75.8922005  78.5989952  33.3535194  76.8524361  79.1303062
 107.2899683   1.8193572  48.5590553 106.4627512   2.1897357  48.8669062
 107.7191170   1.4993041  49.3525457  56.6838217  55.3482389  80.1737499
  57.5242758  55.1453018  80.5844593  56.9068623  55.9283400  79.4457626
  66.1686563  66.2849379  70.7611322  66.1894703  65.3589869  70.5194283
  65.2656317  66.5555573  70.5951643  91.8706131  79.4121170  82.1320057
  91.0044765  79.2013454  81.7832756  91.7173481  79.5963621  83.0587196
  57.3353195  49.6461112  18.9827138  57.5823498  49.8710639  19.8797113
  56.6225243  50.2492816  18.7721616  74.4655132  40.9239912  86.7057705
  75.3182983  40.7895517  87.1191788  74.4840956  40.3629732  85.9304333
  81.8825150  95.6777954  82.9920483  81.5966606  96.2843704  82.3089790
  81.0695839  95.3436375  83.3711433  33.2487726  15.7034070  32.6201517
  32.8524161  14.9325425  32.2140676  33.7566996  16.1096198  31.9178468
  18.9519882  13.3775575  13.5707933  19.8970747  13.3044345  13.4377748
  18.6287165  12.4801595  13.4907991  62.5991154  90.3185463  20.1046753
  62.1652317  90.2550602  20.9555244  61.9955444  89.8930264  19.4956887
  66.0205555  92.0541573  84.2756271  66.2574530  91.3022804  83.7326717
  66.4842796  92.7916241  83.8789654   0.4580140   6.1700351   6.6443903
   0.2684856   5.2887065   6.9662172   0.3859091   6.7283637   7.4185449
  34.4247420  42.8704977  82.3400688  34.7026141  43.3107042  81.5367985
  35.0287135  43.1908894  83.0099869  62.3156500  64.1002131  67.0162821
  63.2060385  63.9644527  67.3403311  62.3832750  64.8636103  66.4427996
  76.5463734  76.4291811  83.0333138  76.7646646  77.2672796  82.6256657
  75.8235121  76.6326189  83.6268711  33.0251980  10.5396182   9.5292741
  32.5667572  11.2575395   9.9659139  32.9693985  10.7513768   8.5974580
  19.2583172  92.3576273   2.2815115  19.9247924  93.0418838   2.2195894
  19.7292988  91.5465321   2.0903760  61.4223289  85.4711056  78.3881378
  62.0668268  85.3609562  79.0872288  61.9251585  85.8182430  77.6513290
  76.9933701  64.2184591  83.0541611  76.9639921  63.4109735  82.5409985
  77.8183460  64.6329403  82.8014851   1.4438136  69.8883820  74.7213268
   1.1620887  69.0095806  74.9754381   1.3605483  70.4072809  75.5213547
  76.5306997  70.1962709  78.0602360  76.4820242  69.8127556  78.9358950
  75.7297468  69.9033499  77.6256037  63.1921673  43.2596213   4.6137411
  62.2783756  43.0236632   4.7735578  63.6153889  42.4336154   4.3795759
  50.6168461  71.6336107  56.3039017  49.6818209  71.7687750  56.4578104
  50.8183527  70.8150721  56.7573547  76.5354156  67.9667854  58.7156105
  76.8075705  67.7730989  59.6126318  77.2768402  67.6925611  58.1758690
  11.2119190  83.1350721  22.7682191  10.5411140  83.7875570  22.5669462
  11.9827167  83.4257854  22.2807962  64.3797588  80.6812191  46.9160318
  63.8354063  80.6301975  46.1303425  65.0975275  81.2658310  46.6725731
  75.4034901  88.8326073  71.8720484  75.6401730  89.3583584  71.1079788
  75.0612640  89.4665527  72.5023079  43.2731009  14.9522883   0.6517774
  43.9681101  14.6787316   0.0531465  43.1721592  14.2153985   1.2542993
  32.6673961  88.6536312  76.1313009  32.0548987  88.1201649  75.6248569
  32.1999002  88.8492298  76.9433498  54.4629288  86.5336132  68.5317850
  53.9270258  85.7698345  68.7454987  55.3259516  86.3289547  68.8917017
   1.3157225  16.1905391   3.5033971   1.5574002  16.9480092   4.0363771
   2.0389390  15.5745656   3.6207372  80.2188492  90.3311634  84.6673584
  80.6253433  90.0316620  83.8541603  80.2989864  89.5866203  85.2635574
  30.7724857  30.5482299   2.0876104  30.3627157  31.3251216   2.4680883
  30.3100777  29.8125846   2.4891454  82.1556664  63.9624929  60.6221008
  82.7621651  64.7007847  60.6796980  81.3937378  64.3138170  60.1613712
  46.8783855  83.6525726  36.7010427  46.0721254  83.1429958  36.7817521
  47.5332308  83.1417370  37.1769190  45.0077152  14.5855958  11.4496976
  45.0778771  14.4669301  12.3969251  45.5743504  15.3332097  11.2593538
  57.9102135  68.3967018  80.6967735  57.1092510  68.3405256  81.2178612
  58.6153984  68.4224129  81.3435173  -0.1342201  37.7318103  22.6344949
   0.5901671  37.4557025  23.1959707  -0.2472210  37.0094306  22.0167333
  40.9509516  19.2503173   2.2570402  40.5184126  18.5768277   2.7819711
  41.2923336  18.7790973   1.4970094  24.7656242  87.3137988  12.9069883
  24.3280689  86.5251030  12.5864584  25.3777305  87.5483693  12.2094709
  49.7287750  14.3215806  10.1080972  50.3833294  13.7733228   9.6754247
  48.9246082  14.1720349   9.6109087  80.8827591  91.0879040  45.8449507
  81.6894627  90.6586933  46.1299706  80.1872826  90.4774857  46.0897779
  70.9867287  89.9303722  81.2198067  71.1743498  89.3880367  81.9859028
  71.7673779  89.8491573  80.6718731  66.0479403  79.0377378  81.9438076
  66.9752264  79.2393637  82.0691776  65.8647871  79.3033695  81.0426235
  69.4254923  66.9156218  61.9541168  69.7839737  66.7650318  62.8287840
  70.0056887  66.4271927  61.3701248  41.1660957  23.1886203  28.9074880
  40.7053089  22.3838765  29.1447526  40.6692791  23.8847310  29.3374044
  27.3010111  85.3512294   0.4323465  26.3835621  85.2000338   0.2050573
  27.5500536  86.1223418  -0.0771445  39.3303585  26.1487824   2.8928358
  38.3802891  26.2648064   2.9045469  39.5237589  25.6748397   3.7016660
  62.6306725  64.4495249  49.7047615  62.0638418  63.7229109  49.4459820
  62.5739431  64.4690704  50.6600809  57.8495503  33.5426337   3.6510068
  58.3373737  33.4553248   4.4699270  58.0869293  34.4096381   3.3220846
  79.0195608  56.7012978  50.4718161  79.7213364  57.3468256  50.3879213
  78.3354855  57.1539402  50.9651613  12.1896736  85.5369295  15.0490648
  12.7302734  84.7796358  14.8243505  12.5950042  86.2675823  14.5820600
 104.1432874  26.6102034   4.5965749 103.9640324  27.5239522   4.8183137
 103.6384479  26.1055142   5.2342683  22.8996229   3.2873303  21.6304094
  22.6133156   3.2528407  22.5431425  23.8502836   3.1843001  21.6735441
  64.5938063  79.0030241  49.0453291  64.5578432  79.3562698  48.1564236
  65.2289629  78.2887840  48.9937115  45.7459831   5.6970126  22.9118616
  45.2457524   6.3570601  23.3917982  46.2488651   5.2403981  23.5862905
  43.1798887  88.9742184  72.3977852  43.5103846  89.6233559  71.7768002
  42.2274971  89.0352631  72.3239136  59.2295122  77.2382212  71.9063234
  59.2882967  78.0391598  72.4271631  60.0600672  77.1994209  71.4320755
  27.2167349  98.5354996  58.7670231  27.9746246  98.2501316  59.2773151
  27.5430560  99.2660713  58.2416534  60.8985424  17.0169789  48.8021165
  60.3490162  16.4555795  49.3490011  60.5807877  17.9034621  48.9736253
  62.8785276  63.2244873  61.8826580  63.6105776  63.1406975  62.4936533
  63.2015991  63.8139296  61.2011766  36.8109799  13.5372407   4.3258268
  37.1406555  13.2497699   3.4744150  36.9976521  12.8057868   4.9143487
  83.1688456  12.7968461  13.2880575  82.7116780  12.5961310  12.4713880
  82.6164691  13.4500939  13.7174493  39.2277575  91.8188763  64.9310064
  39.6328855  91.0527420  64.5246220  38.5644007  92.1013165  64.3013859
  43.5077763  57.8978545  14.1283876  44.4069195  58.1612403  14.3243677
  43.0030060  58.7092406  14.1840059  76.2800360  57.1175003  73.0589962
  76.5094948  56.3098097  72.5994110  77.1180820  57.4671936  73.3616924
   4.3438625   5.9222943  17.5260622   4.7783566   5.6272084  18.3262998
   3.4572220   5.5673224  17.5900823   3.8179088   7.5280053  30.7496625
   3.9870620   6.6767556  30.3459341   3.8013148   8.1421525  30.0156385
  91.3566494  61.3013744  74.0280819  90.5988407  61.5444756  73.4962320
  91.1010361  61.5213537  74.9239063  64.8408508  87.2465611  87.7270222
  64.6890736  87.8320026  86.9850922  64.8959017  86.3743687  87.3365402
  64.3864775  86.3185501  78.9605188  65.2897882  86.6315079  79.0086269
  63.9750338  86.6509247  79.7583151  36.7289066  42.1382625   5.9170705
  36.5556669  42.7141292   6.6617757  36.8181610  41.2671382   6.3035947
  38.3438206  42.7040297  22.4472696  38.4178829  41.7565448  22.3331911
  37.9482794  43.0132014  21.6322977  10.6227382  74.9240208  81.8068027
  10.5058845  74.8316526  82.7523422  11.2399181  74.2307615  81.5728855
   3.0619121   2.7880198  11.0200101   3.4009218   3.0914313  10.1778394
   3.5666800   3.2754619  11.6710359  83.7402248  53.6879110  75.7107639
  82.8714561  53.9138699  75.3784943  83.6774635  52.7590275  75.9331751
  70.0280857  72.2169304  71.3976526  70.1037312  72.2893429  72.3491096
  69.7082281  71.3269424  71.2498569  13.9095394  83.1789411  21.7383462
  14.0678493  82.6879801  22.5446493  14.7047512  83.6968364  21.6132242
  45.9382629  71.7384434  66.2195635  46.2752533  71.0215187  66.7568636
  45.5072403  71.3040209  65.4835463  55.2876568  50.2100563  74.2746210
  55.9999323  50.7410622  73.9183474  55.6602907  49.3319798  74.3543768
  91.5396214  50.7773781  66.5337849  91.1656952  49.9770021  66.1652708
  92.0565414  51.1509562  65.8200121  67.7422285  83.1740475  50.0674963
  68.6077642  83.2171345  49.6610165  67.9075336  83.3198833  50.9989643
  52.4887228 100.8258438  83.1860542  52.9681253 100.2634907  83.7944698
  52.8917456 101.6879940  83.2885551  20.6232214   9.9497992   1.5017206
  20.5584288   9.6618039   2.4122697  21.0850048   9.2385060   1.0578233
  19.8985005  38.7400443  25.0316984  19.6564293  37.8992373  24.6435339
  19.0624666  39.1605670  25.2328092  80.1247120  62.9943275  79.0709305
  80.7516289  63.5859013  79.4871664  79.2747164  63.4138680  79.2040825
  63.3222008  76.8722773  58.1865263  63.7485504  77.5854969  58.6616945
  63.2959318  77.1719408  57.2778225  35.3948879  23.0288655  11.1492425
  35.2573538  22.3285157  11.7870695  35.3118944  23.8355929  11.6577035
  36.6876030  26.4616591   2.9186136  36.2704373  27.2085912   2.4893171
  35.9579849  25.9320599   3.2401926  65.9457874  76.6843135   2.0200044
  66.5974426  76.6053016   1.3233358  65.7790852  75.7828624   2.2953970
  88.8840961  34.3809462  74.8358727  88.5723305  33.9687419  75.6415558
  89.2594147  35.2135301  75.1225233  42.2546625  23.8429219   9.6361620
  41.3985443  23.9533908   9.2225248  42.1367073  23.1082875  10.2383501
  76.5701294  74.0717745  77.6827860  77.4327660  73.7622356  77.4065971
  75.9919071  73.8530636  76.9519949  93.1043243  63.7372255  87.3060989
  93.0154228  63.9340973  86.3735962  92.3929405  64.2238140  87.7225018
  68.7032318  97.3324490  86.2611675  68.3638382  98.1853008  85.9897137
  68.0883026  96.7004108  85.8888435  51.2706232  68.6587429  73.5461044
  52.0113850  68.6406755  74.1520596  50.5222082  68.9042854  74.0899992
  30.0190926   4.3934876  12.2992498  29.5080280   4.2028100  13.0858118
  29.4631815   4.1030461  11.5761739 102.5576457  92.7570547  14.8004610
 102.0272883  93.1814016  14.1260129 103.0592736  92.0927252  14.3279439
  85.9003448  97.7168369  87.4720669  85.4657364  97.4064255  88.2664204
  85.3465557  98.4325695  87.1601677  88.3952713  83.3840942  47.4131203
  88.8684654  82.5927544  47.1560144  89.0242195  84.0932274  47.2797441
  74.8537636  61.8272734  69.8853827  74.2925119  61.7612600  70.6579542
  74.2541885  62.0448017  69.1716433  52.6307698   7.2249453  78.4617376
  53.3700176   6.6317313  78.5953331  52.2833045   7.3763602  79.3406963
  31.7265368  28.7691028  25.7918149  32.4869299  29.0593154  26.2956029
  31.2985516  29.5795924  25.5158216  96.0820293  49.7031021  59.2983294
  96.0295105  49.3505716  58.4099627  95.8305073  50.6220961  59.2065859
  56.0860729  36.1940677  13.5763628  56.9334126  36.1525351  14.0196783
  55.4961395  35.6934363  14.1398889  83.3608341  83.8880634  68.1454945
  84.1747952  84.1643143  68.5666752  83.6248779  83.1849766  67.5520420
  47.9912853  34.8429210   5.7236749  48.7778759  34.3363006   5.9257680
  47.8234482  34.6656520   4.7981245  64.2461920  88.7614822  85.6820011
  63.7652302  89.5699215  85.8589935  64.5405483  88.8514423  84.7756386
  54.8526764  70.8611727  76.0152721  55.7742500  70.9103775  75.7612944
  54.8617029  70.4217100  76.8655777   0.1433611   5.0092751  31.6566259
   0.6231141   5.0429923  30.8290178  -0.3273153   4.1763217  31.6268617
  80.0479031  67.6995182  86.1416054  80.9285831  67.3298359  86.0786533
  79.6450043  67.5039148  85.2956486  63.6951780  70.4516602  85.2165031
  64.5718384  70.8336067  85.2591324  63.8435555  69.5067501  85.2533722
  62.9806614  24.4052655   7.2466547  63.9085388  24.4448573   7.0149023
  62.5536442  24.0525014   6.4659769  25.6414056  84.8878574  75.8768129
  25.7499409  85.7857323  75.5633307  24.9094319  84.5425606  75.3657246
  86.5468693  84.0177727  86.2145805  86.0382175  83.2919216  86.5760326
  85.9553146  84.7691154  86.2566662  62.3915100  28.3959872   1.7435056
  62.9075432  29.1001994   2.1359712  61.7064095  28.8472897   1.2503606
   4.1642554  50.2632809  84.5991325   4.8444637  50.0632381  83.9560604
   4.2992290  49.6228695  85.2976227 107.2171871  19.2319829   1.6601545
 107.8740446  19.4967133   2.3041135 107.1620719  18.2807404   1.7514020
  58.2304478  68.8934517  86.1393070  58.5823441  69.2746878  85.3349113
  57.2805738  68.9369631  86.0294056  72.6765585  86.7088318  72.9723740
  72.5138760  86.4288044  72.0716238  73.5402775  86.3531590  73.1814718
   4.8785440  93.9159407  13.4376985   5.2651397  93.2456745  14.0011770
   5.6158582  94.4724811  13.1869775  77.8732920  49.1132307  69.0902662
  77.6138496  48.2076311  69.2600107  77.1694899  49.6392107  69.4700527
  36.4031553   9.0861279  15.4095727  35.6257773   8.7380559  15.8463365
  36.4193344   8.6437375  14.5608884  30.0535298  15.3094346  12.1312601
  30.9782314  15.1878936  12.3466283  29.8790312  14.6604115  11.4496786
 101.4864691  88.5384978  19.4839078 101.8415936  87.8213419  20.0090772
 102.1222552  89.2468966  19.5848066   3.1657338  22.2992761  34.2155534
   2.5601578  22.9072673  34.6396524   3.5215330  22.7922828  33.4762460
   9.7743980   7.5899928  81.6827202   9.2364589   7.5530284  82.4736023
   9.2539303   8.1008189  81.0627174   5.6475353  11.4798982  19.3298990
   6.4843464  11.6638286  18.9031106   5.2011919  10.8792359  18.7330610
 104.9453839  13.4236854  86.2250519 105.5461558  12.9120105  86.7668056
 105.4758986  14.1515487  85.9010124  91.4356899  57.1684217  56.1299229
  92.2517586  56.6950274  56.2916470  91.7074108  57.9659176  55.6756067
  42.9686403   8.6440951   2.7261526  42.7149725   9.3373019   2.1167738
  43.9219475   8.7105090   2.7810937  38.5972691  17.4402673  12.2025281
  38.8233709  16.7320067  11.5996343  38.9641476  18.2260281  11.7972929
   1.2144605  18.9657634  60.3266478   1.3979761  19.3284648  59.4600439
   2.0679609  18.9344638  60.7588387  16.3084030  24.1350371  33.2513410
  15.9572458  23.2840640  33.5135728  16.3129997  24.1077048  32.2945386
  56.0714674  76.8340826  82.3481846  55.3608465  76.1928034  82.3444462
  55.6332493  77.6778412  82.2374249  46.8934393  79.7729063  69.8741961
  47.5288963  80.4709339  69.7155046  47.2452021  79.0172482  69.4035769
  71.7537928  60.1631832  50.5463457  70.8951998  60.2523375  50.1327038
  71.8752432  60.9830427  51.0252094  28.0279589  30.1810653   9.9295026
  28.5643864  30.6377036  10.5775339  28.1254530  30.6987101   9.1302663
  33.8600445   8.3288342  16.2351781  33.3417320   9.1329343  16.2034399
  33.2905865   7.6615388  15.8522016  89.0634537  98.6249352  67.1597767
  88.4307384  98.4749889  67.8622150  88.5528278  98.5377979  66.3548565
  65.2797842  78.2702255  63.2583523  65.1530743  79.1798306  63.5281563
  65.6359816  78.3307219  62.3719549  73.6570930  78.0034685  64.4216537
  73.7340832  77.4279785  63.6606550  72.7381897  78.2714605  64.4272852
  55.1205873  91.4917183  62.0481396  54.6833277  91.7971611  61.2533236
  55.2535391  90.5549049  61.9034338  81.3963127  70.5452967  53.5074568
  81.7620468  70.8466578  52.6758003  81.9372177  70.9683561  54.1742945
  43.4872151  21.5427167  15.9774667  44.3280220  21.8363768  16.3282377
  43.3990336  22.0080764  15.1456625  58.7145376  66.1670446  49.9961996
  59.5832109  66.3314676  49.6293211  58.8330793  65.4017639  50.5588007
  75.7588053  67.7792883  74.6462011  76.0663939  68.6658859  74.8347759
  76.4086723  67.4242449  74.0396976  81.0331726  85.4404163  56.4026737
  80.7909679  85.5768013  55.4867172  81.0971260  84.4897842  56.4945126
  65.3063488  66.8348503  74.2714357  65.7131195  67.2773409  73.5264730
  64.6966887  66.2117100  73.8761616  81.8169880  69.2360592  56.9861889
  80.9932709  68.9117098  57.3502302  81.6190434  70.1291132  56.7042255
  42.1311283  82.0517159  69.3759155  42.7207804  81.3560295  69.6667004
  42.6602602  82.5799084  68.7782001  92.2195911  37.0306110  85.5674553
  92.3690319  37.8272438  85.0582600  92.7117729  36.3536382  85.1030159
  45.9370995  55.9685141  12.2536737  45.8063698  56.0708720  13.1963617
  45.9855747  55.0219447  12.1199686  74.9576473  57.7753353  75.5317926
  75.5863810  58.2312107  76.0913563  75.4984236  57.3092079  74.8942089
  56.1916256  26.7607791   8.8318807  56.6819954  26.3326270   8.1301290
  56.8463230  27.2790439   9.2998582  44.6556473  30.0546843  27.8067762
  44.7387314  29.6122176  26.9620592  44.2008591  30.8724410  27.6051027
  73.9398336  73.9573622  84.1469383  74.7721577  73.6268902  83.8089180
  74.0310907  73.9076424  85.0984859   5.0940935   1.1318534  80.4396725
   5.0322811   1.9711440  80.8957481   5.4495756   1.3526767  79.5788002
  41.9727182  91.1744690  84.0926933  41.2484455  91.1627960  83.4669781
  42.5933743  90.5299377  83.7527084  87.3505497  67.9677677  70.0936890
  86.6582584  68.5856152  70.3286886  86.8890858  67.1495533  69.9098492
  78.8413668  90.1296616  76.8207312  78.0734777  90.6854725  76.9535875
  78.4946775  89.2374611  76.8239021  51.2882042  61.5733725   0.6486208
  50.9000492  62.4456794   0.5804044  52.1582699  61.6673762   0.2608377
  24.8058319  17.8707702  32.0715887  24.8243952  17.9916150  31.1222345
  24.6855879  18.7529666  32.4230272  11.1775676  13.8163226  87.0761681
  10.8329860  12.9235118  87.0567036  12.1260444  13.7085860  87.0052814
   8.9900351  47.4138839  16.5523225   9.4088411  47.3975093  15.6917650
   9.6022177  47.8968722  17.1074659  73.1231682   0.4560416  72.1107483
  72.7110187  -0.3921754  72.2746992  73.6690036   0.6101458  72.8818178
  36.1242199  61.4832694  21.0457784  36.0182572  60.7398803  20.4521734
  36.8308544  61.2201220  21.6354066  97.4174976 100.4255199  59.9768448
  98.1853485 100.6424522  59.4480944  97.2995663  99.4837475  59.8528051
  67.6489449  88.1591511  76.7245674  68.0636692  88.6425877  76.0100555
  66.8743658  87.7615738  76.3268375  42.1489811  91.3697249   5.8978063
  41.6569138  91.5191943   6.7051202  41.4814758  91.1515433   5.2473718
  62.3482704  82.2693539  72.4303722  62.3493481  81.9495392  73.3325672
  61.4218855  82.3812962  72.2170496  49.3072224  42.6297576   0.4992181
  49.6091366  43.1905658   1.2137586  48.8612080  43.2266337  -0.1016444
  92.7072048  93.9977551  65.0440693  91.9324303  94.3302631  65.4972696
  93.4261036  94.5392990  65.3698635  21.1751557  52.1739394  35.6420785
  21.6796160  52.8599746  36.0792333  21.5513992  51.3559920  35.9670908
 101.5149403  77.3153687  71.0104752 101.6713715  77.6316214  71.9002771
 100.6088066  77.0071030  71.0216856  49.8057365  78.8220072  77.6089239
  50.4459763  78.9879990  76.9169950  50.1851416  78.1069422  78.1197786
  72.2419977  85.8964729  62.0994425  73.1813145  86.0192013  61.9621420
  71.9855499  85.2525997  61.4392233  17.6316539   5.5801623  54.7279596
  17.3367111   4.9639266  55.3984118  18.5058777   5.2728503  54.4881248
  73.1547976  80.7593536  55.1587152  72.7966785  80.1560879  55.8099127
  74.0063095  81.0159874  55.5126858  90.7193279  64.0250063  62.9790783
  90.2067757  63.2229042  63.0798912  91.3381290  64.0071678  63.7091446
  68.2317495  82.8798771  81.5881538  68.9499807  82.4329948  82.0361233
  68.6633110  83.5252762  81.0282898  75.2066835  22.3869746  77.0484257
  75.9557017  22.8592246  77.4119854  74.4599708  22.6866763  77.5669098
 102.3837034  42.6154143   1.2505895 102.8887693  42.2358901   0.5314809
 101.6617696  42.0017058   1.3862402   1.2102206  35.4900360  79.0310383
   1.9142612  35.3894997  79.6716928   1.6575702  35.7277203  78.2188702
  20.8013201  29.5970351  14.9772054  20.9980440  28.6967046  15.2359182
  21.6589403  30.0010974  14.8450548  34.5910406  30.1510627  30.8655626
  34.2842770  31.0167701  30.5959684  35.3970385  30.3234107  31.3522798
  34.4713593  47.0128829   3.2795888  34.4602108  46.1280352   3.6444932
  33.5838461  47.3419101   3.4220296  19.0212051  12.1781486  84.6522903
  18.9666359  11.2498992  84.8795033  19.8902313  12.2789710  84.2638874
  77.7892447  54.5973492  84.8808575  77.5799370  54.6752357  85.8116436
  77.3804855  55.3636789  84.4785118  98.2974625  50.8279133  87.7030087
  99.0620995  50.7729912  87.1298218  98.6461639  51.1391020  88.5383511
  57.2753048  89.6616554  81.5111637  57.0994186  89.5982838  80.5723953
  56.9193316  90.5132961  81.7645836  28.1180573  63.2360846  20.0290185
  28.5548687  63.8635547  19.4530756  27.6460505  63.7789256  20.6605035
  49.7046662  30.6176860  25.4800397  48.8630867  30.6542594  25.0254518
  49.9524307  29.6935565  25.4513341  61.4060211   7.0489270   3.8181192
  61.8636036   6.8412787   4.6328241  61.3108826   8.0012710   3.8328821
  54.6602249  92.2767639  75.1682329  54.0509892  91.7965889  75.7290268
  54.2459726  92.2720242  74.3053293  98.6643219  88.7175941  48.4791946
  99.5054531  88.9951706  48.1163263  98.0788422  89.4579697  48.3202028
  83.9021778  96.5469551  84.8172379  83.9767647  97.4819660  84.6263981
  83.0433178  96.3002491  84.4741440  45.9716606  95.3806496  73.9402342
  46.7600965  95.2670383  74.4709826  45.2499676  95.1911926  74.5398140
  23.3735363  25.5310004  66.6654730  23.1790916  26.4168017  66.9717169
  23.4865181  25.6240218  65.7195282  82.0109844  82.8819847  57.0276928
  81.0803127  82.7088261  56.8859625  82.2268105  82.3950386  57.8230190
  28.7748194  25.7084090  30.0330621  28.8720703  26.3658435  29.3441850
  29.6287537  25.6859023  30.4649526  85.8356094  88.3492470  86.2176704
  86.2690163  88.0710316  85.4108334  85.4229450  87.5539112  86.5543938
  65.1461792  96.7079067  70.7625532  64.9394989  97.0538998  71.6307735
  65.6069374  95.8868790  70.9353638   0.2791007  90.6766415  76.3510466
  -0.0703255  91.3714695  76.9090271   1.0034736  90.3060913  76.8552303
  64.6720123  93.1260777  79.6820354  65.5021191  93.4215355  80.0560093
  64.0408659  93.7983418  79.9388170  67.9038429  69.3096399  74.9724054
  67.6510477  70.2214193  75.1172781  67.2866678  68.9917946  74.3133879
  57.8005552  90.9966373  65.6464052  58.3944750  90.4923916  65.0903177
  58.3766508  91.4560890  66.2573481  30.5666781  52.4721057   1.1509115
  30.5889177  52.5725181   2.1025735  30.4880095  51.5283973   1.0114271
  83.9672947  82.0586681  66.2769556  84.6009159  81.3591003  66.4362001
  83.5073376  81.7888355  65.4820585  79.6733904  61.3556528  86.4462376
  79.0643167  61.1288261  85.7435226  80.5255222  61.0542536  86.1311913
  79.1188391   4.8376124  62.1234465  79.8151549   5.4922908  62.0707607
  79.2943343   4.3663066  62.9378748  27.5343410  92.8824724   7.2385484
  27.8299514  93.6407389   7.7424032  27.6440326  92.1414198   7.8343946
  76.4761448  59.6093369  80.1362419  76.6454840  58.6675453  80.1604939
  77.2317123  59.9768162  79.6776485  55.9002590  32.4343688  19.7986204
  56.2610340  32.6930911  18.9505941  56.5573979  32.7168471  20.4347116
  39.1123533  51.8463332  35.8581716  39.6836519  52.0640952  36.5946657
  39.3224859  52.4995047  35.1907617  90.1992893  77.5884056  48.1052303
  90.0010967  76.8740845  48.7107849  90.9667492  77.2851992  47.6201487
  50.3232289  54.7687156   1.3607389  50.5916596  55.6269938   1.6886694
  50.5527496  54.1611583   2.0638925  62.4311924  61.7074442  69.3144512
  63.2717514  61.5269709  69.7353077  62.6583338  61.9308233  68.4118271
  32.6351547  40.5813319   0.7379991  32.3930788  40.7221324  -0.1773184
  32.5292301  41.4395244   1.1484987  68.1196499  84.1688824  71.5363836
  67.7892971  84.1926861  72.4344540  69.0697336  84.2399311  71.6287041
  77.2145748  98.8565540  80.7908821  77.9250431  99.4780731  80.9495449
  76.6329813  98.9602470  81.5440273 105.5751475   6.4481204  47.4418068
 105.1574381   7.1956580  47.0140982 106.1959799   6.8398135  48.0561161
  69.9592161  73.8744640  87.5079918  70.8508873  74.0516186  87.2083759
  69.4557190  73.7531376  86.7030048  61.9060421  69.6456814  83.0159378
  61.9899893  69.5605040  82.0662403  62.5502396  70.3122616  83.2544994
  36.2581158  84.6163559  75.9890318  35.9951425  84.4823456  75.0784731
  35.8599949  85.4520035  76.2328053  83.7210751  71.7322063  70.4442787
  84.3605518  72.4201107  70.6288862  84.2337036  71.0297203  70.0443316
  55.4426384  39.6786124  16.4231187  55.3661919  39.2233474  15.5845911
  54.5593167  40.0010688  16.6019804  64.7914314  57.1356589  16.7459852
  65.4353905  56.8998820  16.0781747  64.2319584  56.3627822  16.8226701
 100.5675952  25.4555280   1.7489893 101.4941995  25.2170140   1.7216951
 100.1034634  24.6284348   1.6196424  33.8316012  49.9086673   9.0026456
  33.2019186  49.2309195   9.2483884  33.9327145  49.8097426   8.0559618
  41.1131573  43.2496077  16.9742185  41.9304800  42.8507239  16.6756994
  40.4272413  42.7522094  16.5288621   3.8946295  39.3475444  12.7494699
   3.0120135  39.2031485  13.0906087   4.0544558  38.5993487  12.1742422
 107.7804375  86.4562798  63.6565351 106.8498230  86.2437248  63.5857296
 108.1867027  86.0020351  62.9184008  63.9508867  57.2546768  82.8710651
  64.7131586  57.8323936  82.8334713  63.2066917  57.8468275  82.9795265
  19.1118979  86.2051582  58.7589025  19.0570593  85.2705193  58.5596800
  18.5038829  86.6169930  58.1449461  76.7773342  59.5776558  84.7309494
  77.1634436  58.7045240  84.6617985  76.9399977  59.9797440  83.8776684
  75.9049940  51.2457371  78.0453777  75.8756208  51.0243940  77.1145868
  75.4554939  50.5200386  78.4784460  78.9309978  72.3410273  60.7191801
  78.2888460  71.6676283  60.4946566  79.2372274  72.6710939  59.8744822
  17.8237772  58.0735213  14.8171312  17.4418640  58.9512259  14.8192865
  17.2014666  57.5427539  14.3199045  91.5522194  83.3080482  82.4062157
  91.2132931  83.3044529  83.3014011  92.3059273  83.8972473  82.4378395
  51.4151096  41.1249072  12.2143442  50.4878140  41.1215693  12.4517137
  51.4681244  41.7167956  11.4639455  51.9166183  84.8199463  53.7945366
  52.3663712  85.3365803  54.4631481  50.9861422  84.9431515  53.9823389
  54.4319630  59.5244217  79.4300795  54.6477079  58.7304163  78.9409637
  54.5739889  59.2872334  80.3464890  16.2385607  33.9707381  10.5468065
  15.4066754  34.4363315  10.6329233  16.3258267  33.4827906  11.3656599
  99.8230370   5.6954711  63.6906290 100.6760081   5.3151267  63.9004183
 100.0201519   6.5936034  63.4246731  84.9120235  83.7693119  81.7451096
  84.9217796  82.9687500  81.2204838  85.8257198  83.9009762  81.9981956
  44.8083782  23.1090361  24.6820909  44.1407108  22.8598935  24.0430337
  44.3365288  23.1618029  25.5132371  78.5107899   8.3517939  22.7011663
  78.2129288   9.2559535  22.8012067  77.8331185   7.8277356  23.1282026
  97.5322970  11.6474288  66.2018919  97.8502663  10.9212058  66.7382908
  97.6097163  11.3319533  65.3014898  86.5221596  77.7751637  81.6716385
  86.4978886  76.8767595  82.0010471  87.4538803  77.9912043  81.6334915
  88.2745171  96.8100548  82.9946995  87.7095604  96.1394978  83.3786488
  88.4037113  96.5251350  82.0900726  91.9502314  11.7378180  77.5592375
  92.3352488  11.9576972  78.4075546  92.4544247  12.2503417  76.9273043
  90.9550953  72.0426273  60.9076691  91.8386364  72.3831320  60.7675076
  91.0859394  71.1201429  61.1270809  70.9728527  35.4621989   5.7916051
  70.0476456  35.6209571   5.9787447  71.3931275  35.4536731   6.6515714
  94.9012947   9.0587831  81.7428017  94.2477798   8.8487810  82.4099255
  94.4671059   8.8635838  80.9123707   4.9348585  15.6484454  69.6679783
   5.8840315  15.5248588  69.6731138   4.7301475  15.8937686  68.7656784
  77.1681889  18.9012473  61.6441202  77.5945242  18.8677829  62.5004816
  76.2380894  18.7794822  61.8346930  51.3307714  65.9110689  80.2760029
  50.4186869  65.7585144  80.5231285  51.5393019  65.1950788  79.6759224
  62.3967648  69.7516870  63.9826632  61.5876293  69.9794579  64.4405460
  63.0935049  70.0918102  64.5440054  13.2936716  45.7346541  12.1469194
  14.1161013  46.1851889  12.3388940  13.4625769  45.2656562  11.3297636
  61.5643883  31.5726191   7.9902154  61.3907623  30.7252700   8.4001905
  60.7812309  31.7518813   7.4698526  90.7986259  75.0201082  78.7648010
  90.5968761  75.6998348  78.1217670  89.9432278  74.7152710  79.0674686
  93.9655304  78.1521177  83.1988716  94.7709942  78.6594915  83.0987453
  93.2684612  78.7565899  82.9440403  39.5209122  60.5766589  16.6393549
  38.6956549  60.7740600  16.1964017  39.5043945  59.6278674  16.7648584
  90.5775070  68.0608511  63.4867811  90.2955055  68.5161018  64.2801571
  89.8764992  67.4339628  63.3083630  29.9962513  37.2811072  76.8171453
  30.7543079  37.1759265  77.3920631  30.2099125  38.0409663  76.2756729
  28.3626795  57.7725036  33.5352308  28.6450005  57.1724803  32.8449327
  27.4066591  57.7558810  33.4907991  48.3435678  90.4764366  44.9767447
  48.3899212  90.4834461  44.0206909  48.6817455  89.6165371  45.2266359
  22.6063347  27.7023417   0.8926088  23.0372334  28.2667834   0.2507669
  21.6713810  27.8582579   0.7592374  67.9433918  75.8622026  70.9017324
  68.3558941  76.0687160  71.7404366  67.6751757  76.7115545  70.5511665
  47.9878330  59.3997390  18.8157827  48.8428497  59.7397620  18.5520250
  48.1514836  58.4817702  19.0320856   2.4888364  98.1623138   3.0740720
   1.8823091  97.9449953   3.7819749   2.7686969  97.3142113   2.7296430
  64.3227768  24.4737918  27.6444513  64.9161244  25.1264626  27.2727090
  63.6233616  24.3892772  26.9964391  55.5673838  89.5057964  70.9856558
  56.2391520  89.5210075  70.3039455  54.7929096  89.8816776  70.5671692
  52.9564953  17.0530755  33.8313180  52.8274155  17.4820859  34.6771986
  52.1984291  16.4762647  33.7371522  80.5104065  80.6625652  77.3751926
  81.4382744  80.8475590  77.2300243  80.3767300  79.7947216  76.9941282
  76.5872240  90.9684181  79.8226357  76.7675018  91.3077927  80.6993103
  76.6866350  90.0202084  79.9077463  63.7105513  98.0364418  72.7213049
  63.3248615  97.7330399  73.5431433  63.5601997  98.9817619  72.7207661
  82.9531574  73.3598375  68.0664110  83.4034634  72.5628996  68.3463144
  83.1202221  73.4113789  67.1253109  38.9718723  33.3934218   8.2321245
  39.1873264  34.3259246   8.2478410  38.1752014  33.3227736   8.7580186
  99.2453957  98.3593655  62.9127073  98.6251926  99.0790081  62.7957153
  99.7893238  98.6298084  63.6524582 105.8141534  45.5824668  22.3834306
 106.4021604  46.0703761  21.8068677 106.3555376  44.8757655  22.7351553
  81.2160969  55.7005882  84.1110039  80.6283665  55.6085253  84.8608971
  81.1328602  54.8723888  83.6383724  25.9984875  12.6906354   5.0170785
  25.5367279  13.4680468   5.3311521  25.3071404  12.1221549   4.6778184
  86.9845581  63.4331846  45.1252556  86.6935635  62.6227999  45.5433798
  86.2405872  64.0289164  45.2137947  85.4783019   1.9136470  57.0979452
  84.7153672   1.3456290  57.2052336  85.1113804   2.7652400  56.8604612
  40.4267454  34.4153315   4.5879346  40.0328303  33.6653335   4.1423303
  41.0126114  34.0271861   5.2378065  47.3541546  21.6370255  30.9114152
  46.9581032  21.5599257  31.7794210  48.2343292  21.2758929  31.0168249
  29.7066069  43.2968718   2.8826601  28.9089251  43.2372863   2.3569376
  29.5793104  44.0762717   3.4235555  11.7078193  58.6108065  59.3638802
  12.0754703  59.4324446  59.6894169  11.6815742  58.0394268  60.1313829
  42.0705938   2.0818145   3.1440431  41.3972616   2.7577502   3.2213003
  42.7164889   2.4546344   2.5440008  38.1570713   0.0715201  40.4699707
  38.5727874   0.9055083  40.2511787  37.7454845   0.2248996  41.3204384
  27.3198128  39.2435748   7.9523546  27.9820538  39.6215827   7.3737508
  27.8210688  38.7367160   8.5911542  55.9928608  39.8579223  27.4285013
  55.5974865  40.2700145  28.1966859  56.4812088  40.5628402  27.0032579
   1.7984756  91.0448551  67.0543575   1.6628059  91.5061951  66.2267113
   2.7232345  91.1849594  67.2578621  62.6499510  72.0144796  46.5720797
  63.3121061  72.6540232  46.8343115  61.8215847  72.3927355  46.8669844
  86.4115620  49.6886641  13.2390768  87.1725369  49.6931369  12.6584512
  86.4580345  48.8447101  13.6883337  60.9717369  83.6597633  61.4014482
  61.7203999  83.3693218  61.9223928  61.2543535  83.5492897  60.4936218
  21.9627849   6.0079806  66.9205379  21.9245331   6.9528811  67.0686388
  21.4215366   5.8651488  66.1440849  87.7779675  75.1809168  69.1927862
  88.6602688  75.3958607  68.8901806  87.4327374  76.0072422  69.5307684
  75.7374334  60.5208778  54.6598911  76.5974379  60.1027679  54.6174383
  75.7595587  61.0326099  55.4685163  94.7584152  90.4550743  80.7671642
  94.3240929  89.7305107  81.2172794  94.6498775  90.2585030  79.8366737
 103.7575158  99.3032183   4.3371946 103.9624556  98.4081043   4.6073801
 102.9910954  99.2129339   3.7709028  84.7066498  96.2806034  58.8812733
  85.3591061  95.6028748  59.0579700  84.6170998  96.2842178  57.9282808
  24.4600773  46.5149981   2.4425680  24.6477699  45.7067592   2.9198152
  23.5300541  46.6764457   2.6013738   3.8822500  22.6215308  54.7192907
   4.3134157  21.7700618  54.7923136   4.1854421  22.9725020  53.8819599
  56.6599941  59.3865967  75.4443836  56.8742466  59.4334698  74.5126438
  57.0097876  60.1983500  75.8117104  81.7545796  39.0061385  19.1194135
  82.5440598  39.5006091  19.3395406  81.5104389  39.3199355  18.2486898
  70.4015017  63.2676268  72.4748516  70.4867649  62.3154259  72.4271679
  71.2577295  63.5698986  72.7777338  65.0123819  14.8527282  73.0047226
  64.8385247  14.0735095  73.5327625  64.2031749  15.3615420  73.0549622
  54.1334629  12.7592427   2.2384244  53.8346291  11.8553454   2.3379118
  53.9499092  12.9728658   1.3236028  79.1609621  90.8908749  58.1832838
  79.1895199  91.3610172  57.3499870  79.5178986  91.5100956  58.8199949
  70.1795864  66.0745573  85.0903034  70.6361961  65.9643650  85.9243298
  70.5840874  65.4306793  84.5088959   8.0415137  31.0727262  67.7389956
   7.5389083  30.4906440  67.1690845   7.8972705  30.7282352  68.6203289
  48.7103558  46.1339003   1.5152437  47.7908135  46.3973243   1.4793951
  48.7828064  45.6265265   2.3236639  39.7756386  82.0302391  75.8913279
  39.0041804  81.7267609  75.4128075  40.5172729  81.6995335  75.3845263
  63.5210514  21.3122041   1.2934953  63.0027008  21.3102776   2.0981866
  63.0356980  21.8824727   0.6972963  88.9688683  48.0740976  73.8652372
  89.7351360  47.6786518  73.4496832  89.1049862  47.9330683  74.8021555
  93.4909916  79.6257162  62.6327276  94.3142986  79.6051741  63.1205559
  93.4417629  80.5154991  62.2833109  55.6854296  96.1204433  64.4907856
  55.7603741  95.2843094  64.9506712  54.8448944  96.0690022  64.0357208
  63.3575249  73.2073212  82.0823097  63.5611725  72.4362659  81.5529442
  64.1133261  73.3068562  82.6611805  89.2539883  61.0754824  67.5674915
  88.5926914  60.9378815  68.2457161  89.9304867  60.4254007  67.7571774
  89.0246773  73.2366610  85.0785542  89.8136997  73.7305260  85.3016567
  88.3099556  73.7356949  85.4739857  89.2759895  70.6534100  54.4300508
  89.6835709  70.9655237  55.2379465  88.8745689  71.4335775  54.0473843
  79.9235535  77.1874714  47.8349733  79.6619177  77.8351021  48.4894609
  79.1633701  77.1088076  47.2586346  78.5805273 101.5699482  70.3621769
  78.1332111 102.2442436  69.8508501  78.1296778 100.7572174  70.1331806
  57.9050541   8.4763057  11.3762266  58.7741375   8.8055522  11.1470491
  57.5907040   9.0788895  12.0502454   9.8548937  38.1665046  13.0078107
   9.2624140  37.4634463  13.2740861   9.8297644  38.1514174  12.0510561
  50.8024597  35.2120215   9.0440065  51.6863537  35.3464133   9.3859083
  50.8863545  34.4663627   8.4497053  35.5399418  20.1967484   2.8396017
  34.8240233  20.7780511   3.0960828  35.3827286  19.3913276   3.3323556
  24.8549032  42.0385272  37.1149904  24.7257996  41.3125998  36.5045721
  25.0008536  42.8001887  36.5539152  13.7000648  86.8343533  28.3601553
  13.0070011  87.4328960  28.6388093  13.4639255  86.5951408  27.4639207
  11.8120766  47.8877742  14.6393854  12.2261763  47.0978362  14.9868852
  11.0858774  47.5631053  14.1069776  93.1788349  51.8529749  64.3948460
  93.9362049  52.2126579  63.9330530  92.7592468  51.2777281  63.7551069
  82.1262606  31.4908927  71.8233204  81.7304047  30.9871333  72.5344896
  81.6129359  31.2574618  71.0498619 105.0585993  19.1224807  86.6496468
 104.6006926  18.3223861  86.3919449 104.3753584  19.7924464  86.6732693
 107.1386393  24.2969840  82.5169754 107.0937832  25.1101344  82.0139790
 106.6064032  23.6771529  82.0182133   7.8325597  15.0411361  67.3356724
   8.1242172  15.9447234  67.2144938   7.8516094  14.9083655  68.2834291
  84.0348435  47.7613456   3.9435178  84.5508671  47.5546176   4.7227556
  83.9887715  48.7173850   3.9334470  19.3214313   7.7468627  56.5908480
  18.4896938   7.2734492  56.5725756  19.0718166   8.6659949  56.6864109
  84.2400742  74.9008226  81.3812923  83.6287880  74.1843319  81.5521622
  84.4542217  75.2448940  82.2484684  30.6380367  74.2824275   0.6578905
  30.7522392  75.0566966   1.2089902  30.0486326  73.7175567   1.1576349
  38.0593968  47.3425204  18.4359724  37.1253872  47.4236686  18.6290437
  38.1043148  46.6842467  17.7425081  54.2324924  95.8402157  70.9186745
  54.7088003  96.2110138  71.6615582  53.9002562  95.0024700  71.2412262
  81.2410832  17.2084004   6.4458257  80.8329201  17.1722323   7.3108846
  80.6609345  17.7688414   5.9304983  35.8438015  28.8290269  16.9340307
  35.7596684  29.7462375  16.6734773  36.3913822  28.8522298  17.7187902
  85.7510281  92.7075577  62.5520992  85.1112556  92.3805618  61.9196510
  85.5086231  92.2871685  63.3771706   9.1933584  40.8970363  23.7858755
   9.8552179  40.2148921  23.6724454   8.4520149  40.4465396  24.1904813
   1.4935477  94.5647812  83.7377167   1.6873344  95.4973412  83.8326645
   0.7793601  94.5321560  83.1012344  62.0953846  71.1556823   1.5062696
  61.2425232  71.0423858   1.9258195  62.6430512  70.4696090   1.8878538
  37.5237036  64.3534285  15.6930906  38.2963085  64.3921668  15.1293451
  37.7830792  64.8204810  16.4873296  48.6907578  41.6779620  12.6381666
  47.8217220  41.9060046  12.3080141  48.9648724  42.4450309  13.1408578
  33.2268993  10.1894801  46.3935041  33.0510418  10.2167266  47.3340130
  34.1818706  10.1824801  46.3285112   7.4221794   1.7570441  41.8209314
   7.0078413   2.4527400  42.3313808   8.2405845   1.5758269  42.2831011
  48.2960224  28.9671714  28.4422475  47.3749924  28.7065942  28.4471876
  48.2743740  29.9224574  28.3857709  70.3395128  97.8882790  69.2530394
  70.3099489  98.3931160  68.4403276  69.8639393  98.4258461  69.8863554
  84.1546631  94.4774151  38.7220907  83.8828373  93.8108158  38.0912256
  84.4268036  95.2202892  38.1832886  87.7009543  45.0257819  48.4498453
  87.1632250  44.2805427  48.1820726  88.2831534  45.1806014  47.7060032
  95.1717377  85.8385372  52.9570675  96.0364246  86.1600685  53.2123327
  94.5685101  86.2639427  53.5664749 105.6209668   4.2358153  66.4871836
 106.0749348   4.9013274  65.9702253 105.7888945   4.4831317  67.3965073
  85.7957745  80.2196217  85.0051880  85.1942348  80.6684875  85.5992413
  85.2760792  80.0532246  84.2187595  40.8410923   4.5396083  69.7138214
  40.1383678   5.1540130  69.9257660  40.8722583   3.9438861  70.4624033
 102.2363862  24.7012084  45.8045006 102.4903878  25.0675433  46.6515636
 101.4464959  25.1843112  45.5617714  37.4073696  60.6227023  14.5981008
  38.1917286  60.1757438  14.2799074  37.2174597  61.2793643  13.9280588
  37.4708835  16.1991160  86.9810677  38.4145824  16.3573592  87.0059395
  37.2290031  16.0491794  87.8949833  80.7604122  90.0619030  81.8694496
  81.6825390  89.8582935  81.7130661  80.6847382  90.9957409  81.6733551
  90.1341534  47.3159987  16.9521696  90.9387398  47.6376159  16.5454275
  90.4348183  46.7628295  17.6731569  13.3769600  10.6732886  74.6361685
  13.2014076   9.7473948  74.8039007  14.2605011  10.6867068  74.2681932
  46.0430996  22.5742476  73.4035492  45.6723587  23.4562629  73.3747911
  45.3457252  22.0332663  73.7740231  75.6807025   6.1141532  65.0881815
  74.8363121   6.5570872  65.1720810  75.4953774   5.2014201  65.3091097
  13.6448757   4.1557734  69.1624308  12.7931301   3.9748233  69.5599461
  14.2804424   3.8976329  69.8299980  42.2100639  43.8314635   9.4669611
  42.0231009  43.5821349  10.3720171  41.5187931  43.4114463   8.9551431
  95.2817687  58.8535636  60.1256180  96.1238106  59.1493361  59.7796106
  95.1807459  57.9654353  59.7831821  21.1740390   6.9544261  86.7502880
  20.7015983   6.1368697  86.5932941  21.7464058   6.7614978  87.4928570
   8.9199154  10.9473079  47.2226000   9.5069019  10.2971595  46.8366241
   9.5033065  11.6303199  47.5533295  88.5552311  52.4151850  66.4495993
  89.5092583  52.3467922  66.4867783  88.2975197  52.6561546  67.3394060
  64.5298863  81.9514758   5.6627637  64.4037628  81.4730365   6.4821607
  63.6427879  82.1282298   5.3496343  49.2406845  97.5813293  70.2192020
  50.1336670  97.2884560  70.0374460  49.2338705  98.5031986  69.9616194
   6.2616714  98.5793972  31.9191456   6.5904124  97.9258347  32.5364208
   5.6336673  98.1021309  31.3768768  65.5404711  77.6637125  41.6307449
  65.8029032  78.1445074  42.4157286  65.6545591  78.2906914  40.9165239
  32.8824035  15.0559752  54.8676443  31.9433395  15.1073211  54.6894503
  32.9643909  14.3625777  55.5224037 107.8596838  11.0908359  22.5213552
 107.3055418  10.5698245  21.9402313 108.3940323  10.4457992  22.9846406
  89.6288204  79.6787882  77.9519415  89.8353004  78.8847351  77.4589157
  90.0713921  79.5607328  78.7924337  74.0857697  65.6973600  80.9037399
  73.4751940  65.7424450  80.1679420  74.9489355  65.8114481  80.5060482
  83.3586407  88.6747456  64.5621729  82.8772259  88.4892178  63.7559128
  84.2259216  88.9502716  64.2652750  86.2883377  91.3341236  72.9901218
  86.2385750  91.6435909  73.8945436  87.1887398  91.5188789  72.7229595
  36.7962170  38.9985473  11.0632021  36.0848332  38.9373214  11.7007047
  36.8695831  38.1156928  10.7006723 106.6584500   1.9162410  78.7387085
 106.3347586   2.8086513  78.6160326 106.0472306   1.5232890  79.3617916
  56.3429888  16.0767882  83.8734436  56.9482811  16.3935893  83.2030010
  55.5153414  15.9517806  83.4091091  80.7027626  97.8365231  81.5649128
  81.1116505  98.2990360  80.8333874  80.6278515  98.4967613  82.2538948
  18.6281768   3.9595550  85.1380157  18.7627403   4.7064727  84.5547199
  18.8755695   4.2841952  86.0038280  79.2856979  68.4329176  69.0835142
  79.5059633  68.7737274  69.9504423  78.6707067  67.7198982  69.2556190
  87.1238232  48.4322078  21.6656858  87.3235321  49.3682105  21.6500265
  87.4217892  48.1094748  20.8152086  76.2469721  52.7425385  80.3171825
  76.4361238  52.2759151  79.5031071  75.5620527  52.2226286  80.7376671
  35.1618004  20.8992965  20.2933771  35.4995966  20.8932502  19.3977815
  34.5791674  20.1409680  20.3347284  34.3449831  49.9963767  20.3321821
  34.9402619  50.4325969  19.7226030  34.1551304  50.6585891  20.9967596
  85.8044585   4.8817389  59.3792057  85.6937321   4.4098037  58.5538292
  85.6765088   5.8017581  59.1480827  82.6027775  83.6341953  85.8428669
  82.9938889  82.7649593  85.9306240  82.6003742  83.8017178  84.9004459
  10.2388271  57.8377771  41.3833046  11.1863311  57.8837538  41.2553740
  10.0611480  56.9079876  41.5252829  51.6851711  39.0814025  31.6233713
  52.4508095  38.5091884  31.5723783  52.0389462  39.9647052  31.5191919
  61.9847679  95.7442290  25.9843809  61.6746712  94.9660308  25.5212575
  61.1980343  96.1137397  26.3853056  49.0640736  66.3580329   2.2145921
  48.9898777  66.5714270   1.2844354  48.3133316  65.7909877   2.3908693
  48.1872702  90.9978199  74.4794464  48.4726381  90.6985188  75.3427076
  47.5076723  91.6463184  74.6633673  15.4203026  11.6771930  82.7274132
  15.4771129  11.1501925  81.9303799  14.9842922  11.1072200  83.3608532
   5.9784969 101.3129520  30.8851027   6.1623939 100.4275036  31.1988044
   6.2609657 101.3065243  29.9705529  37.3262835  84.3198872  67.8294611
  38.0563402  84.1580296  68.4269953  37.7185726  84.7903538  67.0939255
  73.8449383  72.3195267  66.7427111  74.7710657  72.5151300  66.6003656
  73.8449907  71.4747763  67.1928501  83.9582729   6.2979085   4.6250516
  83.1744576   6.0975749   5.1366502  84.4720555   6.8749816   5.1900560
  48.3776188  97.4832153  60.1369619  47.8357887  98.1895924  60.4886389
  47.9413366  96.6810608  60.4240894  78.7918282  69.4678981  17.6501352
  78.3979225  69.8682124  18.4252531  79.5688534  69.9987513  17.4750597
  77.1836615  67.5444365  33.3233142  77.8582811  67.8709888  32.7279282
  77.2902250  68.0690193  34.1168427  69.5637035  84.9152279  80.4617786
  70.0276852  85.5779362  79.9501514  68.9299965  85.4122925  80.9790516
 107.9283810  82.8271484  59.3644238 106.9966793  82.6084232  59.3823099
 108.3671665  81.9927216  59.1988039   3.3780948  10.5992358  73.3135223
   2.9855148  11.1187213  72.6119137   3.5862438   9.7601741  72.9025602
  32.2345249   2.6447623  71.9541454  32.5952903   1.7722457  72.1116209
  32.9759971   3.2368510  72.0802021  54.6192074  19.5568520  28.3363420
  54.5218849  19.2673976  29.2435247  54.3847656  20.4847199  28.3545286
  92.5300598  79.3465710  67.3623085  92.7730656  80.2688503  67.2811127
  93.0559635  78.9009571  66.6981649  57.7938128  90.6281567  42.1063519
  57.2528028  91.0859299  42.7497721  58.6863613  90.7099152  42.4423552
  76.1733818  95.1766396  69.0780687  76.6494942  95.7520103  69.6768141
  76.7318058  95.1231861  68.3024788  47.8826618  77.7612591  54.6935034
  47.9838514  78.6115932  54.2658043  47.6611471  77.9739952  55.6000948
  35.8868075  43.3564288   8.2893163  35.4213381  42.5553710   8.5298902
  35.2017164  44.0220172   8.2270795  59.7517300  22.9713494  48.1812078
  59.3245793  22.7670628  49.0130979  59.4006920  23.8273103  47.9355699
  36.8329708  24.6073192  80.2665138  37.7443973  24.4551986  80.5162811
  36.8848697  25.2175944  79.5309162  75.1179314  76.2776089  79.1012001
  74.3593168  75.7149172  79.2564869  75.7754946  75.6940556  78.7226439
 101.6516169   0.6513541  62.5886393 101.9018086   1.1235564  61.7944956
 100.8171996   0.2373259  62.3682737  80.3215504  71.7469127  17.8139287
  80.2968502  72.2256190  18.6424619  80.8576203  72.2922046  17.2381574
  92.4312305  60.1243448  66.8914652  92.3168468  59.9633789  65.9548521
  92.6437283  61.0558081  66.9502115 104.7358426   3.1782477  71.9291878
 104.2177399   3.9828914  71.9482040 105.4310950   3.3258479  72.5703382
  51.9836712  67.5762565  10.8261282  52.7981663  68.0769641  10.7801897
  51.3207626  68.1633860  10.4627210  23.8235378  44.3969733  25.4216463
  23.9224005  44.7988231  26.2847692  23.8220120  43.4555156  25.5945188
  12.8098194  26.5998881  75.6213951  13.1416122  27.1559947  74.9164915
  12.8246872  25.7153743  75.2558279  70.8946800  40.1023394   1.1340219
  71.6304493  40.4716784   1.6223604  70.9263325  40.5419928   0.2843553
  32.9982996  57.1181113  24.5670206  32.7351427  56.5991313  23.8069994
  32.3848820  56.8621928  25.2558214  91.0067662  19.5288604  55.2553034
  91.3928088  20.1404326  55.8823442  91.6594895  19.4559043  54.5589828
  15.8526508   7.6845973  53.7877464  16.0106937   8.4993403  54.2646599
  16.2591259   7.0076507  54.3287992  24.7830010  39.3312079   0.2383691
  24.1780424  40.0122840  -0.0555724  25.0807858  39.6299369   1.0976202
  98.4262085 101.5732098  84.8779774  97.9477215 100.8122730  85.2070045
  99.3243694 101.4408875  85.1813412  73.9183235  44.1236598  11.6703588
  74.0240956  43.4916026  10.9593374  73.2498264  43.7377555  12.2364122
  41.1644888  25.2402980   5.3344137  40.3557730  24.7901255   5.5784494
  41.1188221  26.0797364   5.7921106  65.2725172  76.5545130  35.9204340
  64.8251438  76.7555141  35.0984335  64.5669699  76.4613581  36.5605569
 102.7334976  98.6945438  64.5420504 102.8175354  99.6458149  64.4767570
 103.3857346  98.4407330  65.1950407  59.9870777  72.7610064  65.0640392
  59.4859648  73.3503342  64.5002842  59.6952677  71.8844128  64.8137283
  15.2125836   7.9432160   9.4329244  14.2863083   7.7588231   9.2772085
  15.4515839   8.5658175   8.7462789   7.9202509  69.1534907  18.7989027
   7.4728060  69.8160369  18.2725317   8.7834215  69.0686805  18.3939630
  59.0991974  55.3420646   2.7389890  59.2094517  55.2623755   3.6864740
  59.3819332  54.4955737   2.3929292  88.9498329  92.1662998  50.9176350
  89.7431850  91.8587017  51.3560343  88.3100700  92.2662830  51.6225815
  64.8684549  73.4138441  79.7450161  64.4101906  73.5784101  80.5691242
  64.2034006  73.0297327  79.1737080  24.6977091  66.1781508   3.9445001
  25.5245257  66.3149173   4.4069940  24.8949576  66.3926799   3.0327398
  12.1030522  40.9579093  19.5606214  11.8209410  41.3127334  20.4036790
  13.0540705  41.0664946  19.5612222  92.6219654  63.2953787  60.8870649
  92.1639061  63.8051987  61.5552664  92.2799969  62.4069929  60.9873533
  40.5259848  52.3641021   8.3102304  41.4516926  52.1953589   8.1346494
  40.4149151  52.1496589   9.2364675  88.0456694   9.5420783  35.1013541
  87.8852566  10.4330581  35.4122448  88.9759358   9.3931716  35.2706575
  58.8955689  68.9206225  11.1121542  59.5668888  69.5264537  10.7982618
  58.6420727  68.4209735  10.3360540 100.1248169  95.0957012  53.6505747
  99.6055603  94.2919922  53.6248827  99.4780922  95.8001232  53.6084366
  76.3632679  80.7139206  77.2440910  76.4276934  80.3481293  76.3618898
  75.7356262  81.4317608  77.1604872  68.9596844  55.3354270  11.2439806
  68.0883503  55.6309611  10.9800226  68.8453484  55.0247390  12.1421033
  16.7521373   4.6248095  60.4934549  16.8701450   3.8957065  61.1023092
  15.9706966   4.3935054  59.9913740  87.8101921  91.1451149  63.2116938
  88.5120583  90.8784485  62.6179790  87.1318626  91.4994907  62.6367807
  29.9997044  57.2269923  21.9179517  29.6198416  58.0171401  22.3021394
  29.5809889  56.5065295  22.3889524  69.8899508  99.4258404  71.3954639
  70.2760124  99.8290920  72.1730089  68.9871407  99.7437096  71.3840199
  39.7913504  36.6414744   8.3609182  39.0866900  37.1395785   8.7751371
  40.3824854  36.4192874   9.0802366  93.7550124  81.6963179  38.2544112
  94.3645128  81.2672813  37.6538539  94.0065153  82.6196081  38.2318115
  42.3094797   7.6368058  80.9480286  42.2551966   8.3330894  80.2934456
  43.0167246   7.9113770  81.5316868  25.2645723  88.6817760  55.7644558
  25.6085292  88.4052832  54.9150562  24.4751588  89.1799242  55.5525446
   3.6978475  97.9749457  50.4625416   3.8482944  98.9113686  50.5918074
   3.8092677  97.5920964  51.3327408  39.1287637  13.9751291  62.9605532
  39.9055481  13.6496389  63.4154081  38.4019923  13.7640405  63.5466242
   0.6933314  15.3864849  28.4219956   0.2003520  14.6207356  28.1273222
   1.4070132  15.0243473  28.9471102  42.7199330  76.1817087   7.1420270
  41.7970558  76.2618460   6.9009763  42.7086886  75.7305898   7.9861814
  87.8817233  52.6092894   0.4578859  87.8465422  51.6593988   0.3451807
  88.4193142  52.9173022  -0.2717417  82.8974350  54.7391797   6.1989671
  83.7874564  54.4472174   6.0018617  82.3337801  54.1114791   5.7467348
   0.6728546  93.0959380  32.7037263   1.0403506  92.2437031  32.4694729
  -0.1111897  93.1761701  32.1605253  68.7439775   7.7869678  64.5211983
  69.0435028   7.6540136  63.6218452  68.6869287   8.7376952  64.6165705
  23.8614869  34.7397327  61.9669819  23.2666159  34.6539330  62.7119637
  24.6951795  34.3932915  62.2850513  41.7269373  16.1604106  79.8724270
  41.1224174  15.8463538  79.2000008  41.6730976  17.1144402  79.8161936
  45.9063578  15.3999364  64.3424797  45.0703382  14.9437094  64.2467642
  46.4924002  14.7479248  64.7267532  32.5364876  17.5838900  61.3413668
  32.2908998  16.6587484  61.3358927  31.7354488  18.0428493  61.5942001
 104.9819716  89.1483481  68.5932827 104.0337952  89.2521019  68.6734629
 105.2981337  90.0178082  68.3476973  67.5591183  10.4977870  27.4447703
  66.6550589  10.2673304  27.2307587  68.0622578   9.7099233  27.2389817
  21.4756099  66.7012817  76.6925192  21.7071668  65.9953911  76.0889244
  22.0801870  66.5962154  77.4271488   1.2779985  12.3169935  55.1122570
   1.0377850  12.5272441  54.2098570   1.1525311  11.3704133  55.1791668
  71.3962229  24.0437449  22.7802831  70.6811579  24.1243209  23.4114915
  71.9694956  24.7859897  22.9717523 106.5252479  83.1461770  83.3397293
 106.8252643  83.6266334  84.1113472 105.6018289  82.9647035  83.5146523
   7.0569841  74.7251732  84.5002270   6.7995731  75.2348764  83.7320042
   7.4169532  75.3719313  85.1071548  48.7084278  64.5884158  12.5641996
  48.9059981  65.4698063  12.8809816  47.8823312  64.3602599  12.9905111
  30.8079529  11.5881240  75.3074265  31.5069509  11.2925935  75.8907795
  31.1973119  12.3096204  74.8133898  14.9194757  86.9828374  71.0953617
  14.4545166  87.5307698  70.4630566  14.9221651  86.1109263  70.7003975
  11.3121978  96.1898340  64.3827963  10.9165708  95.4509676  63.9204216
  11.6650669  96.7458756  63.6881495  35.9739375   0.6630346  50.6511450
  35.4769826   1.3164419  50.1588774  36.5724421   1.1762799  51.1939144
 104.5713360   4.1698670  46.3498163 103.8024155   4.1181168  46.9175434
 105.1785211   4.7409195  46.8204069  46.5966034   6.2533677  69.2382717
  46.2437868   6.0569549  68.3704185  46.5631914   5.4183400  69.7050095
  30.2336001  10.0783503  43.4979296  30.8421803  10.3864253  42.8263998
  30.6667805  10.2841508  44.3263197  36.9640255   9.9953508  83.5605907
  37.6958323  10.1819897  82.9724979  36.3062549   9.5826143  83.0009270
  61.1971053  21.7062034   2.9307062  60.3548702  21.7118086   2.4759084
  61.1709484  20.9182347   3.4735281  81.5783890  38.0379952   0.3016168
  82.2160872  37.3739077   0.5634576  80.7622155  37.5523795   0.1821500
 104.3913515  88.8199968  74.7891998 104.4228037  89.0720827  75.7120705
 105.2832611  88.9613218  74.4717789   7.1207992  81.8447847  52.7040100
   7.3239557  82.6921458  53.1001663   6.8121521  82.0597357  51.8238020
  23.0131769  11.2996984  72.4540091  23.5807228  11.2495041  73.2231665
  22.1440482  11.4855838  72.8093815 104.6165784  59.8004682  32.7582955
 104.4651159  60.7284171  32.5788450 104.6956857  59.7505385  33.7109137
  70.0974759  59.8958363  21.6685182  70.8606585  59.5803471  22.1525079
  70.0188216  60.8163561  21.9188863 104.9011732  22.0791912  52.7460194
 105.5189663  22.6569200  52.2979212 105.0701077  22.2238207  53.6770296
  34.9290347  20.8898735  74.7307539  34.8180318  21.8180060  74.9368620
  35.8771968  20.7656217  74.6885967  98.2874831  97.5731684  21.6691446
  98.3812912  96.9050903  20.9900999  97.9903611  97.0905606  22.4405336
  62.1959384  64.9143161   6.8348676  61.9400056  64.0012015   6.7046720
  61.6453680  65.4065372   6.2259180  10.1957408  90.2497918  70.7953072
   9.9430028  90.3854210  69.8820925  10.6306068  89.3970854  70.7993603
  60.0120815  91.2378992  11.9062406  59.2740377  90.9292377  12.4318391
  60.5366739  90.4534496  11.7460043  12.6751852   3.5782465  47.2066927
  12.8804767   2.9155910  47.8662157  13.0496609   4.3872270  47.5553322
  28.1950617  18.4613478  69.0480566  27.3592377  18.1429827  69.3890429
  28.5251856  17.7404392  68.5118294  81.6328534  45.0567056   5.7113821
  82.5217303  44.8251887   5.9806806  81.2062224  44.2160447   5.5455190
  31.2327933   8.5547030  76.4370155  32.0092106   9.1082531  76.3534069
  31.5430355   7.6737452  76.2275028  67.2937067  53.0462652  17.2559244
  67.6690896  53.1530785  18.1299478  67.9270061  52.5018816  16.7881471
  59.3105507   0.8664451  50.1855946  59.0522957   1.2653954  51.0164833
  59.5611525  -0.0279179  50.4169941  58.7868985  59.5604004   7.5424749
  58.3364495  59.9852873   8.2724077  58.2092603  59.6981306   6.7917520
   8.4832708  97.7465255  75.4142094   8.0949728  98.5834289  75.1591635
   9.3165008  97.7159081  74.9440765  87.7555943   8.3083582  62.0547676
  87.7465725   9.1889888  61.6797447  87.5562477   7.7318478  61.3171148
  26.6789246   8.7144077  60.2047014  26.1300516   8.4103078  60.9275389
  27.3574018   8.0444288  60.1208639  65.3199657  83.9742721  31.7851240
  66.0586675  83.6046494  32.2687799  65.1421174  84.8082031  32.2200471
  85.6804927  73.8575108  70.6366062  85.9198507  74.3020184  71.4498425
  86.3601764  74.1151697  70.0138092  17.6155102  27.9063630  53.6888742
  17.4971032  28.8560629  53.6719942  18.2905567  27.7374411  53.0316019
  95.3043060  27.7983642  47.6802731  95.7370154  28.4363198  48.2477283
  96.0205321  27.3709369  47.2106361  44.2158127  11.4002371  56.5483475
  44.6752310  10.6578982  56.1557913  43.4896564  11.5760767  55.9500122
  73.1850970  84.7084672  45.1974916  72.4328355  84.2695839  44.8003578
  73.0189287  85.6409151  45.0590658  58.1708336  29.6779752  75.4093599
  58.7403011  30.3637004  75.7582426  57.2836637  29.9873281  75.5922937
  51.6027546  11.9114065  55.2123451  50.9182835  12.3902988  54.7450256
  52.2442913  12.5810456  55.4495096 107.5254114  95.8781094  35.0932026
 107.4359258  94.9754507  35.3988671 106.6985758  96.2957305  35.3343797
  15.3867904  80.6569726  63.1922054  16.2925092  80.7597072  63.4843588
  15.1826278  81.4812762  62.7505350  32.0104861  13.2474208  68.9793110
  32.6212478  13.6733639  69.5807838  31.6535664  13.9633024  68.4536171
  99.0791043  96.4547206  47.4307775  98.2703288  96.9376732  47.2608566
  99.0684470  96.2941510  48.3743525  42.2440386  23.1560946  37.4394011
  41.7783213  23.4819031  38.2095861  42.4378824  23.9409661  36.9269228
  34.9103451   4.7710401  46.4418268  34.2219186   4.9507582  47.0821428
  35.3520846   5.6118226  46.3227320  73.3103522  38.4476782   7.1782476
  73.6872896  38.8665475   7.9520017  74.0678652  38.1615020   6.6678411
  61.2759447  17.8749967  62.1417856  61.5996456  18.7494648  61.9255495
  60.3334522  17.9913723  62.2617579   9.5918743 101.3977939  56.5621948
   9.7668544 101.4053037  55.6211567   8.6831752 101.1057945  56.6345215
  56.9097050  57.0526285  11.0896093  57.3648389  56.5110387  11.7344076
  57.1165474  57.9520602  11.3435251   4.4633810  93.6269248  69.1428375
   3.7076704  94.1867293  68.9646435   5.0812952  94.1971535  69.6002769
  26.0672593  23.6035395  36.2256932  26.0223722  23.1022143  37.0398736
  25.1569724  23.6764693  35.9388304  34.1183273  77.2412116  64.8693371
  34.5348732  77.4999435  65.6913948  34.2414276  76.2929256  64.8265362
  29.3870249  33.1654025   0.7111627  28.7149271  33.3668710   1.3622648
  30.1635273  33.6353470   1.0151845  78.0050071  90.9708507  36.8040705
  77.1721484  90.8515079  37.2605085  78.6313363  90.4522581  37.3090506
  17.5619638  17.0577836  81.3613129  16.6503131  16.7666733  81.3418293
  18.0248582  16.3642466  81.8313885  21.0720817  72.9212124  78.5848618
  21.7496196  72.7700789  77.9258204  20.9452335  73.8699705  78.5847521
   5.2730791  95.9892649  66.2697983   5.9037439  95.3015334  66.4831495
   4.6897213  95.5878688  65.6257439  93.9746722  27.4855675  26.1347944
  94.7218188  27.6130070  25.5501920  93.2331904  27.3392071  25.5474168
  81.9799163 100.8225919  42.5939941  82.5876757 100.7126556  41.8627119
  81.8984677 101.7707117  42.6972771  42.9906837  89.8668892  18.7259436
  42.9112760  90.8198638  18.6839151  43.8511316  89.7152574  19.1169310
  64.6565350  32.4811233  15.4674131  65.2460369  31.7786647  15.7417661
  64.1468938  32.1004499  14.7521574   5.8103220  65.0107081  57.9463863
   5.8269159  64.4727475  58.7379360   5.1730577  64.5794684  57.3770332
 106.2476834  79.1585071  54.4126892 107.0161970  78.6949760  54.0798855
 106.5080698  80.0795824  54.4199753  53.1941577  95.1950706  22.1827776
  54.0833875  94.8840822  22.3524553  52.6989277  94.4027723  21.9748384
  76.9053303  90.5044503  45.9099102  77.7395083  90.1553912  46.2238169
  76.8709054  91.3944060  46.2606621  41.8291275  94.7160114  67.5442696
  41.2547437  95.3437758  67.1058321  42.5513927  94.5829207  66.9303894
  10.7906592  18.1078696  49.1658258  10.0108719  18.6203325  48.9524126
  10.4513204  17.2489440  49.4174767  92.0901593  73.9448775   3.8398344
  92.9035052  74.4279255   3.9860136  91.4126214  74.6203340   3.8092977
  23.5557389  40.9092617  82.9363441  23.5119438  41.1919403  82.0228863
  23.0009508  40.1300907  82.9728031  24.6449939  94.0426595  80.2016735
  24.7933952  94.1964573  79.2686367  25.2020399  94.6846945  80.6418133
  85.0170859  24.2699994  44.6184999  85.1485594  24.8946990  45.3317338
  84.0663537  24.1858019  44.5460588  33.2273245  50.9043264  61.5410995
  32.4354744  50.6242466  61.0820055  33.9327860  50.7633495  60.9096861
  67.9269322  71.0915197   4.1676694  68.5728892  71.6810502   3.7785417
  67.5270852  71.6043700   4.8700506  12.0434546   9.8386335  54.7515154
  12.3546994   9.0531027  54.3017387  12.3299170   9.7250938  55.6577587
  28.6006546  11.0845149  73.9726543  28.8524771  11.5169477  73.1566763
  29.1487455  11.4960253  74.6408510  32.1162295  57.0216751  71.7437267
  32.0415664  57.5663280  70.9601355  32.9627347  56.5844154  71.6517162
  57.7140673  41.1596258  24.5289403  58.2953914  40.6410254  25.0851327
  57.5590070  40.6066264  23.7631876  19.0916777  24.3010259  32.4062634
  18.3340955  24.2091489  32.9840684  19.3798125  23.4026837  32.2444272
  43.9857101   9.2081994  72.1348524  44.8644447   9.4412053  71.8352461
  43.3985853   9.6975803  71.5586424  11.6326332   5.4793269  26.8308908
  12.1407366   6.1000306  26.3085920  10.7875061   5.4262502  26.3845998
  59.9861622  31.3330531  73.1673908  59.0326595  31.3970923  73.1129837
  60.2388096  32.0296216  73.7733555  11.9036388  12.7217281  75.4148912
  11.7826593  12.7247620  76.3644075  12.5552964  12.0382333  75.2586555
  97.8217228  59.6930851  10.9919435  98.7475356  59.7046162  10.7490999
  97.4065836  59.1435017  10.3272230  13.5474479  22.1184683  53.0271530
  13.6850750  21.9625711  53.9614868  12.8318214  21.5291262  52.7888536
  34.1370320  31.4083219  74.4997740  34.1070390  30.4548383  74.4210196
  35.0640941  31.6273570  74.4059086  45.9302664  10.2000129  44.6814060
  45.5826378  10.2250302  43.7899113  45.3369665  10.7568502  45.1855469
  46.2555361  19.7351110  42.2770786  46.3819218  20.0847673  43.1591225
  45.3608370  19.9850655  42.0462704  34.1900659  25.8471322  37.2009587
  34.3732333  25.0501990  36.7033863  34.4974351  26.5572548  36.6375017
  51.4319801  10.3520203  50.8317661  50.8501768  11.1120796  50.8385086
  51.1524820   9.8297638  51.5836668  54.9648094  22.9524398  62.5005531
  54.3908978  23.0020618  63.2650089  55.5360937  22.2052002  62.6780415
  16.5605998   6.3329220  48.8592196  16.6190696   5.9178442  47.9986858
  17.2453046   5.9090143  49.3766308  75.4370674  30.2239670  11.5417367
  75.1757892  31.1437251  11.5865976  76.0286578  30.1065029  12.2850114
  51.0067507  45.9986995  21.0554678  51.3107999  45.8788682  21.9551546
  51.0964104  45.1338638  20.6551534  39.3762064   0.3280979  63.6653280
  40.2890253   0.5972468  63.5626030  39.2098308   0.3993051  64.6052647
  82.1462341 100.3915652  76.5525675  82.2497078 101.3430176  76.5687943
  82.9560538 100.0692835  76.1568928  46.2989855  23.1439519  76.9318247
  45.7368898  23.0281997  76.1657381  45.8915329  23.8579440  77.4221611
  21.0397243  12.8850925  63.6140537  20.2918172  13.2399678  64.0946007
  21.3656402  12.1757805  64.1680288  63.1095847  69.3289699   9.6375257
  62.5578817  68.7120069   9.1566831  63.8520893  68.8038577   9.9361497
  46.7815161  19.0992486  17.7389252  46.7882538  19.3261945  16.8090427
  47.5079250  19.5982373  18.1125200   7.3253910  86.4703745  65.5077362
   7.0117609  86.7286880  64.6410465   6.5370075  86.4450318  66.0499954
  17.9841272 101.7980485  29.2255044  18.8035814 102.2927161  29.2307782
  18.2550088 100.8870599  29.1116881  14.7670615  17.0513046  40.7677984
  15.1412177  17.9306495  40.7131100  14.0677643  17.0474863  40.1141930
  87.3295554  59.1784246  74.5166159  87.8674205  59.0562350  73.7343121
  87.1397861  58.2899434  74.8179770  26.5919010  64.4211680  75.6186533
  25.6659595  64.2197926  75.4833174  26.6002122  65.0191338  76.3660479
  36.4824033  25.2382016  67.6829243  37.0709276  24.8884368  67.0139408
  36.0873842  26.0088754  67.2751808  34.5036650  27.2943878  50.5225325
  34.4853067  28.2066178  50.2331781  34.3152690  26.7885399  49.7320557
  95.7312401  90.9877247  40.5079985  95.3148135  91.4271576  39.7665691
  96.6619500  91.1911041  40.4150200  53.5444736   6.6245133  55.9063911
  54.4564056   6.8740493  56.0558796  53.5863543   5.7006717  55.6594229
  35.1766753   6.0842115  84.5020294  35.7370782   6.8393403  84.3232536
  35.6016207   5.6387788  85.2350044  70.5754003  91.9763143  57.8694105
  71.2121019  92.2164417  57.1962261  70.8263202  91.0904951  58.1313181
  80.0319554  96.5629233  66.6969109  79.4464554  95.8270145  66.8754005
  79.4575383  97.2490302  66.3570070  22.7375364   3.4499303  77.4548197
  21.9746375   2.8751048  77.5163841  22.3768711   4.3342781  77.5187016
  23.0881794  13.4336294   9.0913564  23.9847716  13.6947383   8.8811761
  22.7554711  14.1418494   9.6426851  25.9249330  28.9524126  42.3336220
  26.2866688  28.8105583  41.4588356  26.1461782  29.8605537  42.5399256
  37.1498370   9.9693835  67.1524954  37.5961852   9.4818187  66.4601898
  37.7601767   9.9516308  67.8896523  15.8557618  18.4364223  70.8865976
  16.4938235  18.4608150  70.1734972  15.6429160  19.3554044  71.0490847
  10.1938426   8.2413018  67.5480700  11.0636783   7.8427809  67.5197935
  10.3088832   9.0969926  67.1348000  29.8832273  40.1103497  37.9524088
  29.9816561  40.4024982  38.8586044  30.7015109  40.3676033  37.5275993
  83.4818979  95.5844320  87.5471687  82.6272829  95.2510656  87.2737980
  83.7409874  96.1826748  86.8463039  35.3107810  48.8218069  76.1725473
  34.3557262  48.8115597  76.2357616  35.5887938  49.4419050  76.8466568
  71.9130310  62.3065461   5.4845697  71.8969878  62.1116663   6.4215833
  72.5114783  63.0493118   5.4046232  87.1857258  80.8472020  77.2259521
  86.6039940  80.0878031  77.2596169  88.0638083  80.4732115  77.1529150
  18.9936773  86.4909763  54.1082287  18.1216947  86.6282720  53.7380505
  19.3772117  87.3670275  54.1490221  41.4751863   4.7849184  57.6981354
  41.2515211   5.7073325  57.8220606  40.6397724   4.3237311  57.7731133
  17.5243676  34.2976403  87.8342056  17.5584340  33.4225059  87.4479198
  18.4097660  34.4478607  88.1654644  85.2783688  96.1256136  16.6048032
  84.4313439  95.6874384  16.5224153  85.0592860  97.0493473  16.7270643
  55.4159164  17.3901474  56.7140436  55.1644468  16.9888902  57.5459003
  54.5873117  17.5315917  56.2561798 105.8270367  99.7879327  56.0897398
 105.3196653 100.5992146  56.0646915 106.1292704  99.7223257  56.9955969
  62.6002344  53.1901295   1.4054567  63.3169731  52.6024420   1.6445047
  62.6610788  53.2671581   0.4533083  69.6290422  82.8319628  46.8929434
  68.8301771  83.2457501  47.2197914  69.9297978  83.4114534  46.1929703
  87.8372057 101.1328753  80.4464722  87.0226439 101.1299453  79.9437666
  88.2464035 101.9718596  80.2345848  50.5338383  28.9441466  67.6019573
  51.3128948  29.4525099  67.3764133  49.9905300  29.5495915  68.1064224
  63.6403847  23.8697648  82.6863956  63.1879234  23.1147313  82.3103142
  63.7259293  23.6590266  83.6161804  37.5758791  20.5993247  69.9939251
  38.0392051  21.1952329  70.5825281  37.8924918  19.7291040  70.2362251
  34.5266557   9.0904135  55.0407219  35.2090287   9.6717292  54.7050571
  34.9879122   8.2805401  55.2588511  24.7868752   3.1271750  32.6468587
  24.3614817   2.4533327  32.1165657  24.8064137   2.7596843  33.5304856
  14.0278141  85.7826800  73.6367464  13.1550924  86.1699421  73.5688019
  14.4612829  86.0238928  72.8181124  31.0852551   9.4632548  56.7420053
  30.1491570   9.6170580  56.8696499  31.2612462   8.6504465  57.2159243
  98.5492381  33.9734734  33.0552465  98.6018427  34.3353499  33.9398462
  98.8930615  34.6668376  32.4919874  82.3822506  20.7144464   5.4248029
  81.9580897  21.4480986   4.9797517  83.1100901  21.1124577   5.9023649
  62.6043320   8.4653825  67.9593182  62.0125532   7.7176958  67.8756618
  62.3156404   9.0763575  67.2813845  74.2011936  87.2450919  64.5266867
  75.1134603  87.4879903  64.3685675  73.7362135  88.0802602  64.5768785
  13.1358091  82.8142280  64.0193939  13.3585016  82.8518636  63.0892229
  13.0898992  83.7306530  64.2919540  83.8734945  92.2642482  36.6645551
  84.8083731  92.4541313  36.5859485  83.6105569  91.9879825  35.7866192
  57.7129889  15.0612247  63.0023241  57.7028275  14.7530806  62.0961380
  57.5402975  16.0005081  62.9378557 102.6197584  85.4547317  83.1424236
 103.2842787  85.9061522  82.6219749 101.8501671  85.4244740  82.5740528
  12.0851795  73.0306084  50.9187889  12.2507040  73.0624063  49.9765444
  11.5715639  72.2327883  51.0449505 103.6047419  64.8170859  70.4194021
 104.3692048  65.1548178  70.8860540 103.9501031  64.1106088  69.8736477
  98.5800155  71.8011457  63.0192327  98.0280574  71.9064886  62.2443247
  99.2827400  72.4403126  62.9014349  13.2080165  85.4283447  64.8702860
  13.8967554  86.0502834  64.6356201  12.3920957  85.8979721  64.6972179
  60.1112088  40.4559375   2.6663572  59.5442565  40.5462457   1.9004327
  60.0114640  39.5416798   2.9317171  49.0008362  47.7003597  14.9002916
  49.1861351  47.1987538  14.1063863  48.2599004  47.2470839  15.3025228
 102.8172644  45.5753673  17.7528459 102.6503380  44.7757937  17.2537977
 102.9638871  45.2722414  18.6488706  27.0513320  40.4247522  50.6421947
  26.5407276  41.2342978  50.6543207  27.8917956  40.6773853  50.2600574
  45.8291101  18.4803832  64.5917654  45.7553673  17.5382423  64.4395638
  44.9249268  18.7784815  64.6908760  75.3117990  28.2463527  62.2815228
  75.6007957  27.9503441  61.4183378  75.1114178  29.1746426  62.1617031
  39.3641543   4.5868072  76.7478275  38.4390664   4.4755915  76.5285683
  39.8270321   4.0270123  76.1244440 101.7884787  69.7511489  70.9081507
 100.8376940  69.6595008  70.8462000 101.9963988  69.4893653  71.8050718
  29.6322989  10.7157528  66.4585066  29.9968982  11.5924048  66.3369274
  28.6920857  10.8600771  66.5652895  85.9723338  34.4902815  19.3349821
  85.3437384  34.3304767  20.0389463  85.7782849  35.3792621  19.0378458
  43.8037920  13.2065237  25.4290247  43.3310175  13.1425989  26.2588620
  43.3157587  13.8575876  24.9248672  28.5872404  82.8349156  54.7654152
  27.7104274  82.5557024  55.0289917  28.4974329  83.7714011  54.5888948
  80.0907382  91.9458021   9.8652822  79.9548634  91.5621103  10.7316286
  79.6184786  91.3645615   9.2691595  14.6239559  69.3122370  46.5446663
  15.2324668  69.8626954  47.0375586  13.7568656  69.6373183  46.7869663
  12.6449100  99.9580590  62.0383501  12.6774208 100.5761786  62.7684927
  12.7627174 100.5013790  61.2591505  58.9525016  60.7380856  20.8565122
  59.6547636  61.2314631  20.4326707  58.5832795  61.3477863  21.4953882
  22.6920982  27.2935451  17.0213586  23.1900080  26.6314019  17.5008184
  21.7821249  27.1392192  17.2750551  55.6705284  28.3194447  40.7132292
  55.9076309  28.9479733  40.0313425  56.4787960  27.8363895  40.8852386
  15.2880096   1.6964872  70.2609062  16.1913931   1.5289266  69.9924803
  15.0215256   0.8980050  70.7165861  36.4760780   2.5582225  11.5296728
  37.0651722   1.9660813  11.9971830  36.1803532   2.0531756  10.7722360
   7.0173502  12.5213480  80.7483864   7.3207927  12.9490507  79.9476194
   6.4984298  13.1901252  81.1952496  16.0927975  10.6422329  77.0946407
  17.0032334  10.5107415  77.3593092  16.0869038  10.4553854  76.1558723
  56.7647505   2.3433864  54.4112206  57.0499945   3.2563764  54.4475079
  55.8787680   2.3833957  54.0511274  19.1598976  47.0168066  50.4761314
  19.8165715  47.5661755  50.9041548  18.9240718  46.3661671  51.1374092
  37.9856372  39.9647284  61.1477137  37.9976225  39.1040325  61.5663910
  37.8733635  39.7763014  60.2159834  54.8450156  58.3562083   3.8573343
  54.5102652  58.6969288   3.0278284  55.7045980  58.7658359   3.9550859
  35.7084060   9.7626811  35.0104594  35.7919741   8.8124514  35.0899100
  34.8562574   9.9614519  35.3984880  16.6730583  46.9427299  58.3160305
  17.0068574  46.0565376  58.4555674  17.4006402  47.4110365  57.9067135
   3.5416386  50.1095819  72.7225304   3.8377357  50.5911970  71.9501257
   3.5638443  50.7541943  73.4297895  33.9211798   7.9140937  39.4583440
  34.4987726   7.5044429  40.1023960  34.1525221   8.8425219  39.4854355
  28.7263489  17.0603037  57.2585678  28.2301641  17.8438616  57.0217800
  29.5472765  17.1408105  56.7729473  97.3423322  75.4817493  30.3078246
  96.4748939  75.8220799  30.0888371  97.9487856  76.0428054  29.8244381
  15.2125335  21.1366200  31.2451530  14.6651006  21.3634562  30.4934239
  15.3529012  20.1933169  31.1632657  54.8444935  85.8122195  12.6122934
  55.1895638  86.3299860  13.3396703  54.1049310  85.3345670  12.9879648
  26.9944850  90.4762346  70.9180355  26.4461795  91.1213595  70.4714870
  27.4695198  90.9813566  71.5779018  54.3455458  33.0087733  69.6831799
  54.8257208  32.4890614  69.0385342  54.2373085  33.8645554  69.2682695
  30.6409741   4.5430238   9.0461427  29.8626614   4.0538556   9.3129331
  31.1499834   4.6407182   9.8508817  13.3113205  11.9116747  10.1455498
  12.5357270  11.9944048  10.7003844  13.0991042  11.1998320   9.5418316
   2.6113049  97.0847014  64.6362352   2.5218669  97.7497200  65.3188610
   2.2397725  96.2922175  65.0237465  53.9989996  13.5073948  39.0998530
  53.4737778  14.2794144  39.3104744  54.5476198  13.3728516  39.8726034
  21.4397120  30.9521937  18.0751395  21.0336614  30.0891209  17.9947650
  21.9270492  31.0645533  17.2589839   2.0675866  89.1887993  64.2614222
   1.5603463  89.2802519  63.4548426   1.4928857  88.7015957  64.8518324
  50.4517841  45.7415915  75.2058172  50.8370733  44.8691225  75.2869320
  49.5137310  45.6021833  75.3356314  36.2171364  10.1945603  59.8932028
  35.5058813   9.5692372  59.7542000  36.2542677  10.6995237  59.0808821
  49.2439890  36.4348435  66.9206285  49.6954060  36.2355042  66.1004353
  48.5698175  35.7592392  66.9932985  60.5361938  13.2889664  62.7557564
  60.4037428  13.9601886  63.4251928  61.2061310  13.6553144  62.1785116
 103.5626133  90.0931830  77.4100876 103.4161123  90.8718414  77.9471731
 103.6007412  89.3723352  78.0387020  18.8527846  30.6467414  45.0544786
  19.1810405  31.1086297  44.2830229  19.0815258  29.7301650  44.9002123
  21.0405771  97.1790630  51.7406702  21.1770431  96.4009906  52.2812366
  21.3642494  97.9029632  52.2768068  25.9868240  62.9177713  58.8652086
  26.6951609  63.2871819  58.3379221  25.8096409  63.5843134  59.5289564
  62.7282190  12.5340915  53.0486584  63.0846548  12.4663782  52.1628809
  62.0681286  13.2247162  52.9890680  52.3802710  17.3064196  46.6289568
  51.5109015  17.0035028  46.3669109  52.2528744  18.2255149  46.8640471
  13.5487664  19.0110469  82.2060871  14.0125871  19.7683048  82.5633907
  14.0250373  18.2548249  82.5489140  71.4659336  96.2800659  34.5566034
  72.0129554  96.6683132  35.2394366  71.5664276  96.8665943  33.8068581
  22.8930330  52.4163818  49.6586132  22.5397682  52.8129482  48.8622618
  22.5794649  51.5122986  49.6353865  37.0047641  33.3919239  58.7590981
  36.4860415  34.0681362  59.1948700  36.8872833  32.6126528  59.3023920
  43.4865856  33.5359216  49.8468876  44.3029785  33.9992332  49.6596146
  43.7625599  32.7347422  50.2920628  86.8656349   7.1218848  81.3624191
  86.5452862   6.9797665  82.2531605  87.4439335   7.8812581  81.4341736
 101.2421497  72.8555710  62.7070093 102.0540722  73.3228309  62.9036856
 101.4629253  71.9316728  62.8248978  53.1520780  71.8056907   0.7487566
  52.2236701  72.0234622   0.6658918  53.5482212  72.1347560  -0.0580996
  43.2464695  32.1973276  46.1462545  42.8549623  32.4965000  46.9668961
  44.0960026  32.6370382  46.1118746  66.2504578  15.7523513  57.3863077
  66.0231209  14.9226165  57.8059387  66.8806076  16.1573756  57.9822111
  32.2246718   0.2279662  55.8774185  32.9357123   0.6723365  55.4156971
  31.5530014   0.0923392  55.2090645  80.7566452  10.7672238  85.5118942
  80.2218628  11.5423572  85.6833839  80.7068443  10.6468999  84.5635986
  82.9085223  15.5138099  39.5184541  83.0275695  14.7311652  40.0565290
  81.9616668  15.5763483  39.3928266  96.7253884  95.1812173  76.6571379
  96.1042651  95.8709229  76.4231682  96.3833865  94.8179252  77.4740124
   6.0022680  87.9695315  82.2783947   6.1782543  87.1134300  81.8880749
   5.6399862  87.7693481  83.1414795  60.3540659  31.4750123  39.6240616
  60.3812742  32.1811080  40.2697563  60.6495857  31.8831491  38.8102293
  25.6881615  61.8880464   4.7662527  26.2327894  62.6750363   4.7823507
  25.5521914  61.7098643   3.8356668 101.6770862  38.8222075  85.7880878
 101.5813420  39.5618439  85.1880932 102.3388795  39.1085625  86.4175797
  76.1922169   2.5212997  79.3722439  75.7697105   2.3316634  78.5345316
  77.0503283   2.8720018  79.1337347  53.2298478  62.1053268  14.5191747
  52.5259217  62.6444019  14.1584474  53.3427092  61.4006008  13.8813192
  74.0513690  41.2593450  16.4682657  74.4055208  42.1446229  16.5524656
  73.1102999  41.3881160  16.3497716  89.6382769  91.6798312  44.8604679
  90.5593391  91.4832265  44.6895218  89.6228989  91.9851965  45.7675219
  84.8170090  22.5047326  33.3070397  84.1475868  23.0574036  33.7103462
  85.1110458  23.0026865  32.5442696  87.6990434  99.4133195  83.2447433
  86.8500527  99.0606166  82.9782009  88.2568057  98.6423618  83.3484554
  65.5799707  33.7166144  21.9257337  65.0475176  34.3875553  22.3530084
  66.4793213  34.0320684  22.0145589  74.2368110  41.4362861   0.7630712
  73.7558206  40.8495916   1.3467390  74.3170007  42.2524322   1.2567407
  71.0016823  15.9143293  57.7709007  71.9024944  15.7640779  57.4842024
  71.0598278  16.6678023  58.3583784 104.5457300  87.4148995  57.5026655
 103.7960990  87.9041225  57.8416967 104.9104126  86.9734938  58.2697392
  28.0201483  22.7937317  41.9303703  28.3997440  22.2685695  42.6348877
  28.7547469  22.9745579  41.3439417  59.4943905  26.4780307  56.9640446
  60.1792192  26.8363762  57.5286961  59.6832180  25.5404949  56.9239998
  26.7335272   7.1549451  64.3181801  26.3052464   6.5579975  64.9317455
  26.8358541   6.6417706  63.5166740  59.2848206   9.1632992  53.0679274
  58.5559607   9.6797574  53.4118223  59.0271187   8.9534146  52.1702814
  28.5134307  74.8826606  69.3767214  27.6098625  74.7522289  69.6644402
  29.0442363  74.6282990  70.1315546  51.4821287  46.7919828  10.1993925
  50.7648095  46.7108254   9.5708257  52.1143123  47.3671658   9.7684175
  56.7999697  11.3568807  70.2330065  55.8499336  11.2904382  70.3291416
  57.1129847  10.4564226  70.3191996  26.5901136  33.3692479  77.2340536
  26.9231653  33.7249827  78.0579233  27.1384192  33.7715220  76.5604305
  84.0704735  69.1905154  15.7660371  84.2136534  70.1323344  15.6727201
  84.8993166  68.7944330  15.4970056  28.8870072  34.6360993  68.9460611
  29.0089679  33.7432671  68.6232471  29.7460628  35.0463271  68.8462067
  41.6292707  84.8806388  30.5325890  42.0399133  84.0601999  30.2596736
  41.9173090  85.5207307  29.8817825  72.7302631  74.3633021   0.1136190
  72.5370725  73.6787118   0.7541257  73.0422576  73.8890637  -0.6570834
  55.8950138   0.1579757  79.1608238  56.7751789   0.0322898  79.5154285
  55.9854507   0.8882445  78.5486460  29.5540524  46.4807177  40.4472208
  28.8695550  45.9272146  40.0712824  29.0962625  47.2759485  40.7197523
  62.4714899   5.9549797  52.8229141  62.6906061   6.7707849  53.2731199
  61.5352297   6.0277194  52.6375532  67.1848782  66.7216433   9.4676286
  66.8912037  66.4887680   8.5868627  66.9316562  67.6390709   9.5697958
  56.8135452  36.9555569  81.3159466  57.1747780  37.2439551  82.1541405
  57.5567913  36.5645909  80.8566380  38.9438963  31.5087032  64.0856266
  39.5468116  31.1041570  64.7093821  38.7437701  32.3639035  64.4661713
  35.0081706  27.2422242  66.3364649  35.2517557  28.0297709  65.8499765
  34.0674376  27.3350334  66.4869356  60.4073715  20.4821134  31.7544246
  59.9297619  19.7227001  32.0882082  60.3807545  21.1158347  32.4713063
  39.9388885  13.4319925  67.1520901  39.2905807  13.9989305  66.7343473
  40.4845095  13.1196904  66.4302874  37.9283309  12.2273064  51.0283470
  37.0278668  11.9260120  51.1492443  38.4314775  11.4261138  50.8828592
  34.9352241  12.2731149  74.5955944  35.5307794  11.5538001  74.8056698
  34.9348545  12.3122096  73.6391926  64.9875307  18.8108420  86.9606972
  64.7477007  18.0188358  87.4417782  65.3706169  18.4887064  86.1447906
  34.8920298  28.0110312  32.4867177  34.6655893  27.9344201  31.5598464
  35.5095649  28.7414956  32.5228214  47.4681711  28.7959290  39.9488878
  48.0217600  28.5489178  39.2081070  46.7963886  28.1149364  39.9834251
  56.9097519   2.4374649  86.4154148  57.7942276   2.5349134  86.0626602
  56.9190359   1.5864548  86.8535137  74.4670760  87.0345742  67.9202032
  74.4665012  86.9333500  66.9683695  75.3870555  87.1722049  68.1458712
  19.3770067  89.4557602  83.4647083  20.1354114  89.4442350  82.8808308
  19.3856517  88.5960848  83.8855648 107.1174717  11.2701881  71.7402077
 106.2217140  11.1675739  71.4187717 107.5420666  11.8311524  71.0911512
  30.6533519  97.0168049  42.0710087  30.3062240  96.4015020  41.4251471
  30.1586811  97.8229518  41.9238424  42.2234249   4.9779782  81.0622406
  42.2672796   5.9319484  80.9970570  41.5186310   4.7291911  80.4642487
  56.6591692  13.3665323  44.1432619  57.2935295  12.6686227  44.3067837
  56.7717552  13.9695275  44.8780775  49.4064188  27.6603198  42.6456594
  50.0963593  27.1061635  43.0105209  48.8431549  27.8642988  43.3922243
   4.8108713  54.1148923  13.3724004   5.2733747  54.7953214  12.8831750
   5.5049364  53.6156328  13.8027936  15.8014035  17.2286272  51.6289091
  16.0871947  16.4449406  52.0983696  15.6539333  17.8788233  52.3157358
  21.3171697  18.0963635  55.8957148  21.5361953  17.1758533  56.0403538
  20.9116006  18.1127095  55.0288343  63.0641413   3.4860593  54.4402552
  64.0020275   3.5013539  54.6309710  62.9381895   4.1875488  53.8012838
  52.9229879  38.8879848  67.1452188  52.5444508  39.7269464  66.8823719
  53.0375767  38.4092331  66.3243055  36.4269304  13.1154251  81.6719055
  36.0430050  13.9138007  81.3093758  36.9765210  13.4203744  82.3938465
  10.8733741  67.4365050  81.2360287  10.8181850  67.4114496  80.2807522
  10.1233951  67.9667646  81.5054512  34.3078136   7.7865183  79.1999674
  34.4576716   7.7312571  80.1437473  33.3874059   7.5481433  79.0892363
  20.5824733  25.6382561  61.6673708  20.9115863  26.5340137  61.7417622
  20.4301834  25.3631830  62.5714540   4.4440786  74.9042119   2.3149854
   4.0618698  74.4990481   1.5365392   5.3821222  74.9434127   2.1285326
  25.6037498  18.4666669  76.6308498  24.6630478  18.4560227  76.8074751
  25.7815671  19.3590248  76.3336802  38.7554216   9.5221853  69.4489956
  39.5482492   8.9859354  69.4587421  39.0751553  10.4232538  69.4945669
  49.0581608  24.4964218  82.0924854  49.3462276  23.6468172  82.4262905
  49.8338938  25.0537324  82.1547031  61.5684017  85.4116548   7.5403959
  60.8335670  84.7982611   7.5398904  61.6736969  85.6600369   6.6219980
  48.9321041  11.0474825  65.0986767  49.0627337  11.0239744  66.0466290
  48.9080906  10.1269710  64.8373127  49.0345144   1.1242548  54.8848104
  49.3497515   1.2728086  55.7763195  48.8371181   0.1881556  54.8534298
  60.9400845  39.0060759  82.5922108  60.4908562  39.8508453  82.5641251
  60.9039783  38.7460899  83.5127163  59.1049767  33.8525128  48.2094383
  58.4783602  34.2118835  48.8374805  59.5221949  33.1278658  48.6753178
  49.4226742  21.2577653  45.6887197  49.2965269  22.1375465  45.3333282
  50.1627398  20.9040046  45.1953745  44.1411352  48.8313961  80.6053352
  43.9895248  48.9199257  79.6643734  45.0412178  49.1313839  80.7321835
  11.5454662  20.2334642  35.0445318  10.9953058  19.4501698  35.0420690
  12.4180198  19.9140227  34.8146653  65.9579420  22.5782347  51.4148951
  66.0346651  22.6993489  52.3612976  65.0381517  22.3524928  51.2761068
  73.0927118  53.6938999   4.2470247  72.6320299  52.9148303   3.9354879
  72.3957737  54.3094922   4.4740850  45.8283472  13.8482904  81.2951946
  45.9467745  14.7339261  80.9518909  44.8898792  13.6811674  81.2081337
  23.5705987  78.4974415  60.3670740  24.0254919  77.8799636  59.7943401
  23.7706796  78.1945951  61.2527847  31.6866660   7.2077894  80.6496620
  31.4151740   8.1102371  80.8173370  32.1991730   6.9646800  81.4206791
  79.3100079  16.5226497   9.2272550  80.0053652  17.1395601   9.4555742
  78.7181195  17.0253123   8.6675817  27.3815012   9.0277016  82.0644665
  27.6283312   8.4398133  82.7783966  26.6031599   8.6242521  81.6802216
  16.0717368   7.5105780  62.9331827  16.0211587   6.5576881  62.8578568
  16.8072724   7.6652795  63.5258770  63.6891031   1.4683309  57.8288794
  64.5459223   1.0749447  57.9942274  63.6751556   1.6238049  56.8844938
  50.8566614  74.7602357   9.9298936  51.7442354  74.8784007  10.2682478
  50.4007705  74.2750777  10.6176549  19.9071121   4.1500333  87.5301933
  19.9540854   4.6071029  88.3699036  20.6938410   3.6051741  87.5097370
 100.2817257  97.4146361  78.5720587 101.1804803  97.5942359  78.2959843
 100.3742274  96.8224890  79.3184090  43.2822037  55.2212572  80.6640053
  43.0322981  54.5701981  80.0083447  42.8649330  54.9205780  81.4712811
  27.1212196  16.4547765  75.9300756  26.4870882  17.1450806  76.1239576
  26.5958619  15.6568766  75.8701801  46.2384272  25.0457263  59.7952843
  45.7880974  25.0649953  58.9508486  45.5535603  24.8263693  60.4270029
  67.2116312  76.5181388  12.7345640  67.4439128  76.4662208  13.6616975
  67.6029571  77.3387946  12.4351961  81.9202193  84.2739381  14.4341070
  82.4181040  83.9828791  13.6701566  81.8372973  83.4909786  14.9784643
  68.0354484  40.5804814  14.2961198  67.6825198  41.3765062  13.8986093
  68.7961920  40.8787240  14.7946722  25.9243814  92.7131320  64.5132303
  25.6610958  91.9004840  64.0813541  26.8749944  92.6414473  64.5994377
  37.9600644  13.5576975  72.6383352  37.6551557  12.9098749  72.0030451
  38.6372423  13.1022871  73.1385946  80.7586575  14.4458592  77.6579189
  79.8594856  14.1355753  77.7649355  80.6721306  15.2705860  77.1798325
   4.5503465 100.5848160  55.5369663   3.7054531 101.0157735  55.6660461
   4.5921842 100.4168295  54.5955515  56.4562702  33.3003926  28.9680386
  56.8385267  33.0470872  29.8082471  57.1989727  33.3250260  28.3647037
  32.7171566  61.3772739   3.7760622  33.2967427  61.3502039   3.0147630
  32.4170031  60.4744060   3.8808042  36.3396239  18.9171553  30.8849120
  36.0230875  19.7522044  30.5403399  35.8036828  18.2576680  30.4443717
  53.5607767  45.8822155  87.3818588  52.8936005  45.5842018  88.0001545
  53.0687046  46.1275387  86.5983295  29.5292322  98.9130626  73.2725239
  30.0539915  99.7056977  73.3847284  30.1703731  98.2240585  73.0980444
  16.2947917  12.8056538  72.6617813  16.5225685  13.6835134  72.3556566
  15.9524500  12.3625910  71.8854284  47.9578257  28.3577466  84.4661140
  48.9003897  28.2152009  84.3795872  47.5610113  27.6526809  83.9545918
  37.3904943  16.0520542  70.4226732  36.6855288  16.1706078  71.0592270
  37.9078364  15.3257918  70.7707167 105.1205881  91.2685175  83.2610703
 104.7311982  92.1416158  83.2130337 105.9958204  91.4159913  83.6194706
  64.8278030  23.5751380   0.2390653  65.4627737  22.8884615   0.0353033
  64.9733742  23.7688364   1.1650926  41.0810471  44.0039349  58.0559254
  41.9572115  43.9453840  58.4368992  41.2345362  44.1928864  57.1301985
  61.0878086  17.5665832  67.1274948  61.9121218  17.8893340  66.7633963
  60.8550549  18.2080066  67.7987862  52.5534773  27.7958632  46.0010004
  53.2901907  28.2505703  45.5926800  52.1685743  28.4445143  46.5903521
  67.0093012  21.7240810  70.0988245  67.7252197  22.3539305  70.0152874
  67.2586727  21.0004067  69.5240736  77.7644547  64.0874220   0.1854211
  77.0698842  64.2374803   0.8267385  78.4234818  64.7519554   0.3861982
  24.4668508  17.6276815  57.2258329  24.0421629  18.4792638  57.1224928
  25.3772473  17.8377330  57.4338961  56.3416386  37.0500779  64.9847126
  57.2856236  36.9270301  65.0846338  56.2232065  37.9999042  64.9788141
 100.1953777  64.9817760  80.5278778 100.0271352  64.1935212  81.0441971
  99.5221456  65.6010253  80.8098793  87.2839292  94.2483128  76.7382574
  86.5601023  94.1185112  77.3510027  87.2092231  93.5200519  76.1215830
 105.9684762 100.4385008  23.8480932 106.1493309 101.2700333  24.2863542
 106.7725714  99.9306835  23.9566785  45.4148197  22.8225064  39.7106504
  44.8563480  23.5907602  39.8295093  45.0477600  22.1657133  40.3023577
  32.3671285  94.0484650  55.9161329  31.4756099  93.7397981  55.7544184
  32.4157564  94.1529084  56.8663740  41.2390995  28.0279589  39.4578886
  41.6461897  28.5583735  40.1428461  40.5059099  27.5944591  39.8946261
 103.5516270  98.3756376  74.4595671 103.8662036  97.8577027  75.2005243
 103.0427225  97.7579726  73.9344597  34.6885387  91.9197018  68.9739847
  34.5256750  91.8017966  68.0381393  34.0052024  91.4045198  69.4027853
  64.8867798  28.0329299  79.5247889  65.1915932  27.5140691  80.2691650
  65.2078438  27.5610113  78.7563848  21.2763810  19.2670596  73.5698175
  20.8629203  18.6787438  74.2016172  21.8945193  19.7806847  74.0897465
  45.1920319  41.8547010  72.1368551  45.8064651  42.5827551  72.0439291
  45.6589031  41.2143087  72.6736593  54.6793699  44.7375154  76.1277580
  54.3212938  44.1268063  75.4835176  55.2954006  45.2758837  75.6308746
  61.6205176  81.1387671   2.7056104  61.7729553  81.7171396   3.4529192
  62.1241816  80.3499879   2.9065496  95.5276378  91.1691255  66.4626932
  96.0056408  91.7750210  67.0289421  96.1703475  90.4978091  66.2335920
  57.4250793  23.7414217  58.9980555  57.3580647  24.6738863  59.2036152
  58.0919409  23.4108090  59.5999050  26.6487980  12.1388459  42.4153996
  27.0164752  11.3915741  42.8872347  27.1774268  12.2035468  41.6200399
  37.4103832  30.6697655  34.9641919  38.1209040  30.8177328  35.5882859
  36.6130114  30.8517885  35.4614806  39.9796287  95.2555615  47.9821014
  40.2569715  96.0820092  47.5867605  39.0355484  95.3540475  48.1055927
  58.4179306   5.3761142  67.9887772  58.9205599   6.1816418  68.1101227
  59.0807867   4.6953452  67.8729868  47.5104523  13.2226574  59.5800734
  47.8629255  13.8892865  60.1696491  47.8827906  12.4003160  59.8984337
  50.7234955  32.3751092  40.9712648  50.4795599  32.7359295  41.8236351
  50.7394218  31.4278364  41.1078453  28.9423418  23.7330794  36.1396599
  27.9984307  23.7791395  36.2917924  29.0608764  24.0909004  35.2598047
  54.0423822   2.0949525  71.5833616  53.8614035   1.2521154  71.1673021
  53.6925650   2.7436060  70.9725380  48.3720875  33.1498027  60.1855993
  48.4398460  32.7730775  59.3082619  49.0986252  32.7588344  60.6709051
  51.5179968  19.9083769  56.2472677  50.5864000  20.0307393  56.4299870
  51.5852356  19.9695635  55.2943945  39.0447617  30.4894900  58.2022715
  38.5639310  30.1811457  58.9703560  39.6033263  31.1918163  58.5353994
  29.6187583  98.3905990  46.0986567  30.0971166  99.2176241  46.1572504
  30.2212183  97.7966420  45.6508970  19.1418640  81.6616947  83.0940723
  18.6352006  81.7623479  83.8999271  19.0404359  82.4988825  82.6412392
  84.2221936  39.2452647  15.4673082  83.3962353  39.0899266  15.0091630
  83.9907034  39.8344685  16.1852819  44.4428301  26.1176276  80.4754353
  44.9061251  26.7058015  81.0717964  43.5369778  26.4265776  80.4900265
  66.5201855  25.3454971  72.5544453  65.6308270  25.2242970  72.8869820
  66.4460993  25.1950717  71.6120434   0.6150548  88.1758649  79.8057556
   1.3955585  88.6546428  80.0847054   0.9488408  87.4893648  79.2282295
 102.4438199  62.6862217   3.1353170 103.2910069  62.2989000   2.9151231
 102.6390275  63.3050610   3.8389951  65.9555133  64.9992682   4.3725282
  65.0772842  65.3447117   4.2124921  66.1528333  64.4770409   3.5949785
   0.9482256  95.9684134  75.9621286   1.9052998  95.9619928  75.9763002
   0.7233373  96.1314435  75.0461149  87.5911530  50.0390939   2.5866968
  87.1808394  49.3167290   2.1112424  88.4940632  49.7528157   2.7246267
  28.7858939  39.0938616  61.9686890  29.4777918  38.4622645  61.7722273
  28.4071755  39.3072414  61.1158848  14.0476552  95.4716099  88.4869003
  14.8067132  95.4057182  87.9074764  13.3287136  95.7320411  87.9111099
 101.9158681 101.2977698  72.1234941 102.7553328 101.4546838  72.5558186
 102.0079740 100.4304526  71.7291498  46.6467571  25.5371857  70.4279089
  47.5573254  25.7527781  70.2263689  46.1351109  26.1964369  69.9590349
  22.5915694  26.2132931  43.7388897  23.5453987  26.1944389  43.8169289
  22.2782826  25.7575989  44.5201874  41.8806696  10.1053607  79.6914911
  42.3096561  10.0772512  78.8362646  41.5476799  10.9999084  79.7631311
  47.9400158  37.6534033  56.9379997  48.4664679  36.8903685  57.1764517
  48.5816383  38.3191967  56.6904783 102.6734551 101.4126264  68.6560631
 102.3606571 102.0980175  68.0656195 103.5623439 101.6825733  68.8867998
  45.0069418  73.3617701   4.1810495  45.9350040  73.3780588   3.9472372
  44.9225946  72.6157416   4.7748167  20.6642914  18.7398088  76.2545300
  19.7324657  18.5248268  76.2131119  21.0456848  18.0487704  76.7960453
  98.6306667   9.9514544  61.4375639  99.0007114  10.1481926  60.5769873
  97.8517151  10.5047202  61.4955044  62.3178196  26.7302370  38.4304571
  61.5747118  26.5518856  37.8540730  62.1794081  27.6292706  38.7284708
   8.5208416   7.3898727  64.2075205   9.3799490   6.9890606  64.3398666
   8.4975231   8.1172097  64.8293447  39.8582172  40.6343937  63.1826782
  39.7649002  41.5843630  63.2539129  39.2782235  40.3901672  62.4614334
  39.1874719  31.8438268  53.0864429  38.4787035  31.9407773  52.4504519
  39.7001886  32.6472783  52.9980087  34.5337772   9.0515900  66.2888479
  35.4408097   8.9036167  66.5564823  34.0108991   8.6912900  67.0050955
  28.9874911  24.0106320  56.6857862  28.1323504  23.9674616  56.2578821
  29.5344830  24.5085025  56.0782051  31.9200706   1.7207192  85.3954220
  32.5936151   2.1797024  84.8935223  31.1106324   1.8772063  84.9090576
  78.7647820  35.2398849  79.7601414  78.6795807  36.0251498  80.3008175
  78.4531879  34.5286989  80.3199291  49.1812030  99.9751880  68.3358383
  49.3920795 100.9065630  68.2702446  48.2550327  99.9221290  68.1000042
  33.8386607  47.4625158  78.7786722  33.3989978  47.4913931  77.9289103
  33.1515193  47.2101355  79.3954134   1.0138265  99.3987008  62.1829987
   0.8834044 100.0228792  62.8968763   0.2156965  98.8703112  62.1780348
  37.5122825  93.7277509  39.8476982  38.2871381  93.5367126  40.3762245
  37.7110425  94.5629532  39.4244194  71.2558485 101.0625315  77.5328827
  71.8153706 101.1800288  78.3005810  70.6361273 101.7908513  77.5744486
  76.7593583  60.1231213  20.5831224  76.1458930  60.7322790  20.1722414
  76.2559517  59.3170924  20.6977064  10.4445708  25.6973577  52.8130388
   9.6094853  26.1650586  52.8021240  10.9785485  26.1452818  52.1569443
  92.3525910  32.8507614  80.4392815  92.3608450  33.3317518  79.6117449
  91.7424409  32.1284199  80.2903843  38.5623598  39.1095233  73.6259890
  39.3150377  39.5396852  74.0317869  37.8360724  39.2822242  74.2250824
  36.3005829  32.5810003  81.4135647  36.0832191  33.4459186  81.7612743
  35.8352280  32.5347471  80.5783749  91.4158829  76.3741650   0.5549699
  90.6807049  76.2493290  -0.0451582  91.1208542  77.0581116   1.1561471
  39.8050499  24.8489499  51.9155264  39.5367169  25.6915736  52.2818804
  39.5520997  24.8971438  50.9936142  47.6567221  38.5951805  76.2958288
  48.5543919  38.2673073  76.2418127  47.6573658  39.1701078  77.0611334
  71.8020105  22.3795676  83.7143993  72.5132561  22.9021645  83.3439159
  71.7152834  22.6963043  84.6135044  54.3427420  40.0616026  54.0019369
  55.0011969  40.7455921  54.1236973  53.6900663  40.4575348  53.4244585
  44.6937943   4.8861817  47.5667858  44.7404385   3.9525229  47.3610258
  44.5238686   4.9157473  48.5083151  62.3869514  15.4086900  74.0675163
  61.6748428  15.0984478  74.6268749  61.9740963  16.0474467  73.4863329
  39.3115354  49.6394587  70.4855061  39.7625232  49.8175907  71.3108015
  39.6002793  48.7605953  70.2396250  41.3639355  33.0363011  84.2060566
  40.4125118  32.9377270  84.2422295  41.5006399  33.9476895  83.9473820
 102.5436211  22.1217370  53.9635563 102.0661926  21.5455961  53.3666039
 103.4195805  22.1877384  53.5833359  73.9385319  32.3878598  86.2623787
  74.7968054  32.1565223  85.9072971  73.3136511  31.9688654  85.6706142
  63.2435751  32.2964811  73.2048273  62.5450516  32.9485631  73.1492853
  64.0198946  32.7483416  72.8741074  35.4095793  15.1339829  80.1741219
  35.4392552  15.8844459  79.5806885  34.6298742  14.6475780  79.9063444
  20.9497690  52.4551249  69.5878315  21.6993976  51.9029617  69.3655539
  21.2575746  52.9952002  70.3157091  48.3707762  28.7932467  44.8640347
  48.1895828  28.4049249  45.7199574  48.9665890  29.5185947  45.0513935
  32.7595592  23.9086008  24.4969511  32.8436065  23.4060550  23.6866331
  31.8657732  23.7370968  24.7935367  50.4551935  10.2178907  79.3233156
  50.2886868   9.5535135  78.6546516  50.9109735   9.7467363  80.0208187
  96.4672478  62.2528840   2.6895982  96.9064482  62.8789808   2.1139795
  95.7335242  61.9239618   2.1702749  31.4028875  95.9545959   8.0221677
  30.4484455  95.9106720   8.0800289  31.7038003  95.8189804   8.9206606
  92.0935639  70.0474049   3.9799768  92.6388558  69.3011083   3.7311250
  91.3140496  69.9683966   3.4301263  92.8611048  93.6567034  14.6250612
  93.3140048  93.9789595  13.8457948  93.0869015  94.2855038  15.3105241
  46.2864590  33.3232379  83.8803577  46.9739771  33.9771247  83.7539291
  45.9212494  33.5232615  84.7422409  74.4164785  83.2290567   8.7673074
  74.0350398  82.6901545   9.4603521  73.9848574  82.9305066   7.9668027
  75.2691364  27.2685528  73.8353348  74.3252277  27.1820354  73.9687109
  75.3904533  28.1788921  73.5655212  49.8404980  18.4229290  70.3345251
  50.0052881  19.2504430  70.7865191  48.9416599  18.1951225  70.5720758
  35.9585762  55.0385904  78.6803389  35.9857583  54.6622467  77.8006458
  35.0356007  55.2486372  78.8225698  79.1994286  25.0406837  73.2298803
  78.3264160  24.9024487  73.5972738  79.1710186  24.6091104  72.3759651
  40.3738594  47.2442818  74.7292280  39.7270393  46.7204428  75.2019310
  40.1017189  47.1912336  73.8130665  84.0853699  83.5689081  12.6659757
  84.5955952  83.5968722  13.4753686  84.1464718  82.6588477  12.3756582
  55.0357151  20.5040073  38.5093117  55.3965330  20.2187061  37.6698804
  55.4998350  19.9781084  39.1606593  20.5116272  39.1890001  71.6251087
  20.1243997  38.4083939  72.0212603  21.3960290  38.9186549  71.3781595
  45.6108809  49.6198082  66.6722441  44.6870422  49.6866322  66.4308071
  45.6169415  49.0490723  67.4406528  71.7254408  67.4935783  14.1294080
  71.5629633  68.1421472  13.4444410  72.3633321  67.9111434  14.7081739
  43.8215590   2.0821981  58.7719440  43.6424208   1.1530084  58.9159870
  43.4222412   2.5222430  59.5223713  35.8728313  38.3672357  44.5791101
  35.3326130  37.5903964  44.7237444  35.3486371  38.9187598  43.9983606
  48.7659836  17.2511911  56.5215540  48.4124708  17.0836103  55.6479549
  48.7972450  16.3892603  56.9366789  57.8970575  25.4586482  48.9062023
  58.5831308  25.5584645  48.2462263  57.9617786  26.2501645  49.4405651
  28.6313295  16.3690805  72.4480820  29.1009688  17.2025704  72.4791718
  29.3091965  15.7189536  72.2635126  77.4544048   4.6424848  76.0911942
  77.8401279   4.8586935  75.2422523  77.8479433   3.8021228  76.3260365
  94.1332547  24.7210598  58.5343122  93.6240629  24.0317583  58.9607143
  95.0051419  24.3416214  58.4244394  38.6384130  26.5537858  43.6360979
  38.8194013  27.2642350  43.0206823  39.0339756  26.8426871  44.4584703
  58.2058859  18.3509731  61.9958067  57.8406191  17.6971614  61.3997030
  57.7656364  18.1871748  62.8298235  47.6434517   8.2802588   8.0435735
  47.3751450   8.9419658   8.6810571  47.3328591   7.4531085   8.4117872
  32.2983813  42.1128845  59.2279673  31.3703799  41.9383669  59.3847847
  32.7532125  41.3784695  59.6402693  43.0283165  17.2812116  37.2824931
  42.2751379  16.7669904  36.9917512  43.6029196  17.3177814  36.5178204
  37.0707870  42.9048395  41.9642782  37.2768712  42.5743055  42.8386402
  37.2013497  42.1526051  41.3869333  52.3887491  12.1175230  67.6416492
  51.4542723  11.9119120  67.6683283  52.4264812  13.0709410  67.7178240
  77.0004797  26.9690204  77.0579338  77.7346754  27.2066903  77.6242399
  77.1316481  27.4887729  76.2649107  69.4520855  14.5613170  82.2313118
  68.7593269  14.1613114  82.7569675  68.9933157  15.1748443  81.6574287
  61.9270372  23.1851196  79.1598177  61.9051218  22.2287440  79.1266966
  62.8583384  23.4044719  79.1316271  70.9148550  11.0373485  62.6463270
  70.7029009  11.1529195  61.7200708  71.8631983  10.9082103  62.6607227
  46.2069798  34.8422170  56.6574669  45.3864765  34.3535781  56.5923548
  46.1877823  35.2268624  57.5337696  14.9929702  37.8135037  42.3129988
  15.8596706  37.9409170  41.9272137  15.0672066  38.1787062  43.1946707
  41.6542101  22.2240829  71.8081999  40.7337141  22.4798894  71.8671942
  42.0915365  22.9881787  71.4325237  11.2848961  15.2713799  64.8222542
  10.4452634  15.2974176  65.2811337  11.2951481  16.0708928  64.2960358
  47.0690346  33.4130383  70.2125406  47.3179102  33.0198145  69.3760777
  47.5761938  34.2236519  70.2564430   7.1655089  53.9190006  38.8827991
   6.7286587  53.2022667  39.3428946   7.3372227  54.5706081  39.5626163
  19.9273813  49.1372967  39.4719219  19.6477699  49.7376156  38.7807870
  20.8730483  49.0544605  39.3490982  35.5458403  22.1085954  66.1721802
  35.2654696  22.0235801  65.2609205  36.0288429  21.3016510  66.3504410
  11.8736506   3.1597812  12.7421648  11.4443779   2.5411755  12.1511537
  11.6315937   4.0217835  12.4036485  51.5530920  27.8645873  58.2771063
  51.3053656  27.1496606  58.8634014  51.0877275  27.6778674  57.4617529
  28.3693981  76.5502405  55.4100418  28.4983015  75.8861256  56.0872173
  28.9337254  76.2701702  54.6893978  31.9739556   7.9929197  54.4205427
  31.4372683   8.4576315  55.0626040  32.8605270   8.3234835  54.5652866
  91.2695225  63.9028098   8.2725412  91.1877593  63.4806253   7.4173814
  90.5834778  64.5703114   8.2766897  29.4851398  19.5809591  38.0475926
  29.6334314  20.5243087  38.1134176  30.3635073  19.2025924  38.0083537
  56.3370609  29.1899252  33.2026887  56.4634466  29.0480065  32.2645426
  55.3868008  29.2086816  33.3162093  33.3616495  53.6709976  74.6629572
  33.3897138  53.8758898  73.7283659  34.2697716  53.4736013  74.8922539
  36.1462522  59.8693085  82.9094887  36.2318158  59.5611858  83.8116932
  36.9015789  60.4427528  82.7795887  56.1527443  46.8181944  62.8767920
  56.0470915  45.9482431  63.2618332  56.8135977  47.2433758  63.4233522
  49.6899462  24.4108939  65.6612539  50.5618000  24.0646625  65.8515882
  49.3535566  23.8443065  64.9669552  36.6958094  17.3116815  46.9397402
  36.2246084  17.0945513  47.7441359  37.6098919  17.3925936  47.2120237
   1.0941127  34.0689063  41.7981672   0.3018869  34.2298937  41.2856293
   0.9567045  33.2048607  42.1864700  10.1736116  70.5992746  29.5307279
   9.5729685  69.8831940  29.7373271  11.0281920  70.2890158  29.8301649
  40.4668856  42.6420975  53.9530563  41.0271168  42.7165079  53.1805038
  40.8242130  41.8977070  54.4372416   2.3267976  97.8482617  48.0957413
   2.8128234  98.0060456  48.9051342   2.9903833  97.8849263  47.4068737
  90.4032954  82.8222598  21.3826257  90.3468569  83.6006512  20.8284074
  89.9710186  82.1352066  20.8753473  26.5791535  21.2142873  76.1934566
  26.2172723  21.8249106  75.5512619  27.3465204  20.8391953  75.7613897
  35.4519200  31.8523097  60.4490948  35.3449345  31.1088490  59.8557568
  35.8095288  31.4697576  61.2503433  40.8671904  20.0380993  54.4015741
  41.7631769  19.8839855  54.1021061  40.8465338  20.9682250  54.6266747
  48.2561636  14.9554610  75.3237867  47.3546600  15.2487612  75.4560804
  48.7128925  15.7278872  74.9906397  59.9909210  29.4531083  79.6595335
  59.1504860  29.1288948  79.3358326  60.0561237  30.3413606  79.3088341
  29.7800088  21.6199374  65.6707001  29.9381042  22.1582937  66.4462090
  29.9895573  20.7289672  65.9508610   4.9543993  91.0592968  83.9423656
   4.7523157  91.5157122  83.1256199   4.8028032  91.7123909  84.6255398
  69.6898603  37.1510625  68.3947039  69.6731758  37.9391122  67.8516293
  68.7911749  37.0592046  68.7111759  93.2595078  13.5440118   5.6287939
  92.7355425  13.6665732   4.8371679  92.6158182  13.4767444   6.3340360
  37.9741263  37.3270440  61.9653606  38.6011362  36.6246271  61.7930126
  38.1332374  37.5717902  62.8769588  32.6406765  38.5789061  61.4276838
  32.9238844  39.4369888  61.7434645  33.2830453  37.9672813  61.7875528
  57.8710270  39.2111564  76.0612392  58.4191084  39.7492552  76.6324520
  58.4469938  38.5022092  75.7750845  35.4522109  52.3744678  59.4224977
  35.6813693  51.4830303  59.6853018  36.0541487  52.9317951  59.9157381
 107.1035274  87.5468070  84.4690800 107.5866302  88.2037694  83.9678383
 106.9436344  87.9620308  85.3165817  95.4004391  38.2768477   0.4049665
  95.6115445  37.4018802   0.0792390  96.2253436  38.7590648   0.3480894
  34.7881794  12.4975228  71.8982887  34.8265529  13.3184600  71.4075518
  34.2650890  11.9140875  71.3485527  42.0781565  23.8461995  78.8544226
  42.7188873  24.4254327  78.4418821  41.3943338  24.4346595  79.1743183
  76.0083389  37.2036886  80.4785252  76.3730097  37.4492121  81.3288021
  75.0724268  37.0891118  80.6433773  53.2545662  37.5850987  53.5835886
  53.5973263  37.6202250  52.6905537  53.3965731  38.4662509  53.9294720
  22.6684324  99.2488331  71.5669680  22.8914348  98.3958808  71.9397640
  22.6631824  99.8439182  72.3166895  76.1418637  66.1561157  19.0579683
  76.8058880  66.4141060  18.4186346  76.4671238  65.3328289  19.4221670
  32.5240445  41.7346764  65.1334000  31.7819428  42.1615601  65.5615234
  33.0524492  41.3928699  65.8546400  29.7202396  14.6553552  56.4058399
  29.2178631  15.4385614  56.6304207  30.1955032  14.4375634  57.2076654
  38.2006526  16.2199414  61.0681963  39.0136218  16.0228109  61.5334415
  37.5165415  16.1261153  61.7310858  31.1393809  19.5870221  80.3927803
  31.6129422  20.0682163  79.7142363  31.7659545  19.5082891  81.1121082
  85.8207607   0.8978140  67.5837708  86.4473915   1.1087950  66.8916321
  86.0160732   1.5224852  68.2822466  61.3262510  29.2309546  62.5029945
  60.5669785  29.7689795  62.2787952  61.9008684  29.8196673  62.9923439
  88.4815749  84.3026532   7.9651624  87.6493128  84.3305911   7.4931509
  89.1444071  84.4522942   7.2910005  29.6757579  28.0979466  68.8417673
  30.1113057  27.4047089  69.3377018  29.8847079  28.9011288  69.3187046
  73.5008717   9.4629741  67.4272251  73.4139204   9.0306449  68.2767868
  74.1805267   8.9646745  66.9733524  38.7564278  34.7051668  68.9390039
  38.6261940  35.6380820  69.1091251  39.6504235  34.6456432  68.6021709
 102.9446181  75.9388341   0.6843454 103.7655552  76.4110412   0.8233148
 102.7100667  75.6061400   1.5506822  15.3792993  98.7230534  74.0657091
  15.4452364  99.5939539  73.6740255  16.2602130  98.3572028  73.9858580
 105.8266362  83.3812465  35.4875356 106.4507397  84.0854587  35.3119928
 105.8867701  82.8112925  34.7208768  59.4894886  24.6984005  41.7782116
  60.1920223  24.4870973  41.1633682  59.9019003  24.6457744  42.6404047
   8.6512748  90.5022533  63.5990334   7.7576915  90.3919787  63.2740974
   9.1851942  90.5834467  62.8087378  22.6231265  40.3908062  59.5886946
  22.7496552  39.8538113  58.8064814  21.6786575  40.5420589  59.6251774
  53.3800220  28.4738278  63.5692549  53.8495827  29.3028355  63.4771061
  53.4776211  28.0473614  62.7178860  19.6404831  65.3244318  21.8018037
  19.0111629  65.0465371  21.1362535  20.3211013  64.6516324  21.7836267
  72.5554180  16.9621515  46.4867067  73.3113098  16.6744626  46.9986629
  71.8317509  16.4217222  46.8036842  70.3535366  23.2881570  66.6443634
  69.4536018  23.3120298  66.3191223  70.7681561  24.0598798  66.2586594
  44.1979500  90.2398480   0.9142477  44.3486824  90.9916176   0.3412229
  43.3311929  89.9189223   0.6653101   3.1462757 100.7095567  45.8962059
   2.2929446 101.1214585  46.0318375   3.7260882 101.1494282  46.5179443
  63.3477592  34.0849090  81.7690849  63.6715746  33.2618785  82.1351433
  63.6141396  34.7504044  82.4034214  56.3340044  21.8704867  55.4637003
  56.9411469  21.2513256  55.8689785  56.4270115  21.7165804  54.5235443
  42.8018236   6.3920295  72.4589348  42.8842449   7.2621953  72.0687437
  43.1625080   6.4895678  73.3402014  62.5900507  25.7313180  71.3929272
  61.6582537  25.8878446  71.5461683  63.0175352  26.5425038  71.6676378
  58.3200216  48.7315893  67.3332357  57.3634911  48.7260342  67.3684835
  58.5502100  49.6538925  67.2209644  50.3622627  27.7982766   0.9014017
  50.8000088  27.9410416   0.0622160  50.7398796  26.9836051   1.2329847
  57.4252701  55.9176397  83.4270954  56.5588951  55.5708647  83.2140923
  57.7776670  55.3030014  84.0707302 104.2675781  64.5244980  62.4211121
 104.3631935  65.4365635  62.1468306 103.3226109  64.3719578  62.4203205
 103.5523566  90.8826150   7.9423410 103.9625414  90.3280581   8.6060030
 103.5974272  90.3662886   7.1376020  79.1734791  47.2274828  83.8157463
  78.5566139  47.2909164  83.0865860  79.1612959  46.3020372  84.0599632
  81.3339520  63.5247564  68.6365318  80.6352234  64.0037394  69.0821457
  80.8838463  62.8133726  68.1809330  99.8639584  41.5770292  80.1651573
  99.9926662  41.9325542  79.2857981  99.6785450  42.3430061  80.7084179
  84.6371078  89.8631287  84.3000031  85.1850605  89.5352364  85.0130653
  84.4990540  90.7868958  84.5093536  15.8477576  45.8535051  62.3810387
  15.2083095  46.1118984  63.0447912  16.0279353  46.6586637  61.8957710
  80.7440281  40.0004673  83.6825562  80.3152561  39.3470955  84.2352676
  80.1131439  40.7181692  83.6267567  74.5527697  80.2003956  53.0147743
  73.9000654  80.1913643  53.7148666  74.4029760  79.3845224  52.5371218
  40.9416151  81.0743332  71.9027042  40.5838394  81.8325710  72.3645496
  41.4903116  81.4501858  71.2142992  87.4368000  71.5464878  79.5439434
  86.6608334  71.5581369  80.1042747  88.1525230  71.3029480  80.1310158
  51.3361597  74.8942184  23.4652066  51.0325575  75.6989336  23.8853168
  51.1116171  74.2007256  24.0855908  65.5218887  83.0194569  81.3803005
  66.3807106  82.6985836  81.6554356  65.0128126  82.2266293  81.2114716
   1.2262042  57.9297590  60.2869797   0.5324634  58.5419130  60.5323839
   1.3083347  58.0285788  59.3384457  84.8379898  21.7219806  71.1156940
  84.9406147  22.3372388  70.3896427  85.4688072  22.0183706  71.7717838
  80.8449268  61.1148119  82.2029781  81.6457653  61.4571571  82.6000786
  81.1013603  60.2674723  81.8389797  95.4924965  26.0602999  71.2080288
  96.1825466  25.4015779  71.2863874  95.4512882  26.4680743  72.0730448
  52.6682377  12.4302489  27.8322679  52.4627400  12.2802312  28.7550336
  53.5721111  12.1302087  27.7363283  78.5092354  51.1599922  80.1444721
  77.8444290  50.5561447  80.4755878  78.5213423  51.8751383  80.7805920
  65.3189945  19.3365580   0.2325231  64.8792744  18.5085160   0.4254610
  64.8061943  19.9949748   0.7013113   4.8579399  16.3662665  66.9275522
   4.5652477  17.2767013  66.9684219   5.8067648  16.4245170  66.8154287
 105.7422837  90.2330126  14.3386632 105.1120242  90.5362238  13.6851579
 105.4765709  89.3331875  14.5282442  61.4519119  33.8416106   1.7492754
  61.7345333  34.0416629   2.6416475  60.6786537  33.2886512   1.8612272
  66.6835880   5.5826146  17.4178392  66.2108517   6.2339885  17.9359705
  66.9857884   4.9396808  18.0593568  83.5116768  76.0091019  60.9655285
  82.7527428  76.5172863  60.6791592  84.2286587  76.6427755  60.9904671
  88.7810230  94.1493607  82.9039192  89.0131283  94.1412926  81.9753265
  87.8271103  94.0706348  82.9130650  59.4832134  72.6759052  77.5482178
  60.2189684  73.0508709  77.0641756  58.7964296  73.3403397  77.4926376
  61.4698458  68.8187838  80.3549862  61.4382172  68.1273127  79.6938515
  60.9467602  69.5292521  79.9837160  22.3876095   0.6956298  20.5959493
  22.6860809   1.5265328  20.9657461  21.6652537   0.4266173  21.1634618
  96.9198036  85.8388615  45.7874203  97.1307564  84.9152088  45.6510782
  96.0414505  85.9405708  45.4208422  52.4023104  85.9270096  64.0532112
  53.2447815  86.0305405  64.4956541  51.8270445  85.5496693  64.7187328
  39.8167610  19.3940980   6.9978601  40.2407980  20.2507264   6.9467050
  40.4439688  18.7920768   6.5973455 100.5339432  55.6649399  69.5966959
 101.1713409  56.3619709  69.4414616 100.3492641  55.3111410  68.7266684
 105.8893776  53.2166815  69.9544764 106.6771603  53.5705757  69.5416927
 106.2070465  52.4955702  70.4979038  94.7706127  23.7066150  61.7056036
  94.3338490  23.0383444  61.1775112  95.3750706  24.1340899  61.0988665
   3.1763919  44.4159508  88.2293510   2.5485690  45.1088238  88.0244446
   2.6630290  43.6089182  88.1922436  70.0483274  74.3640184  56.5567732
  69.5332432  73.5617781  56.6423941  70.9574699  74.0647745  56.5446043
 106.2224865  76.0131454  66.2370205 105.8949089  76.4072752  67.0454693
 107.1449089  75.8307123  66.4161348  59.0748692   3.6299712  14.6844465
  58.6075020   3.4543902  15.5011255  59.9426365   3.2488210  14.8183805
  78.5937881  66.2540102  47.1572971  78.4890842  67.1814394  47.3697758
  78.0436707  65.7986736  47.7946949  69.7311258  94.4167519  35.4294515
  69.8463821  93.6215019  34.9093270  70.2755499  95.0706768  34.9910378
  78.0683231  67.6045704  72.8092241  77.8054523  67.3165321  71.9350576
  78.9913654  67.8403139  72.7162457  83.2879829  61.5315533  44.5710278
  82.5332165  61.1464596  45.0162983  84.0334892  61.0104132  44.8691225
  68.1727171  81.3805294  54.0440035  68.5693169  80.7599831  53.4325647
  68.3754778  82.2410679  53.6771154  95.0034046  27.4759436  88.1402016
  94.7856045  28.2537293  87.6265430  95.0692844  26.7728710  87.4940014
  82.4100304  44.2425442  62.3216438  83.0508709  43.7911558  61.7722750
  82.2441292  45.0683308  61.8669128  97.8849697  52.5838184  61.4686203
  97.0318317  52.6758671  61.8927860  98.1067085  53.4697294  61.1818647
  72.2430802  32.7618510  14.4211465  72.3182011  32.1314437  15.1375085
  71.3327789  32.6906211  14.1338903  84.9275303  56.5074205  62.9893351
  84.3199253  55.8359623  62.6791859  85.2395058  56.9349480  62.1917629
  20.9890453  85.0624432   1.0426027  21.6263191  84.4972075   1.4792043
  20.1387874  84.7417344   1.3433534  43.0716181  89.0101433  56.0144711
  43.5958910  89.7955418  55.8579063  42.3908567  89.2942524  56.6244507
  99.7473907  67.7130032  59.3005276  99.5424080  68.4783077  59.8376703
  99.0095043  67.1190596  59.4383621  78.8988638  71.2899828  55.0857115
  79.1302633  70.9131145  55.9346294  79.6815157  71.1682129  54.5482540
  71.9935894  60.3766918  56.4381409  71.1414909  60.7130003  56.1605501
  72.0107269  60.5195236  57.3844671  42.3464823   1.0386855   5.7922536
  42.1648312   1.2948233   4.8880273  41.5091562   0.7119805   6.1214620
   6.6476615  67.1390915  80.7533455   7.4967654  67.5189257  80.9791279
   6.3228973  67.6864672  80.0384045  86.8425751  60.3583002  80.9461498
  87.6951504  60.1701832  80.5537510  86.7051220  61.2916517  80.7843018
  76.2950087  73.8060951  82.8356552  76.1335087  73.3714485  81.9982624
  76.4579296  74.7203112  82.6034927  79.6233320  69.7842216  75.3965425
  80.5097580  69.6103573  75.0799227  79.3065929  68.9337635  75.7008934
  67.5944662  62.6521206  47.3707294  66.7882347  63.1593180  47.2760010
  67.8022289  62.7045965  48.3036327   4.0819343  31.5560055  79.4652224
   4.6121009  30.8890009  79.9014139   3.1908878  31.3941860  79.7751951
  84.9830627  56.4772272  86.1736774  85.9049129  56.2786579  86.0093689
  84.9741745  56.8671989  87.0477962  84.4973373  62.7501297  71.1702633
  84.6492672  62.9796982  72.0870209  84.4006348  61.7978382  71.1746788
  67.7578020  65.8516693  67.7508020  68.4607315  66.0980654  68.3519793
  67.0896721  66.5258932  67.8743267  83.0273056  77.1808481  81.8398952
  83.6686897  76.5235662  81.5700054  82.7342606  77.5800514  81.0207558
  89.4796658  80.8376312  59.1182041  89.9624443  80.3353024  58.4618235
  89.9392414  81.6760445  59.1638613   5.8120616  54.1670418  46.8556595
   5.3996642  55.0156689  47.0168829   5.2908023  53.7768698  46.1540318
   6.2493745   0.7500308  72.9254150   5.9345476  -0.0222070  73.3952665
   6.3333599   0.4600184  72.0170832  47.3778057  36.9222648   7.5527269
  47.9398728  36.9392878   8.3273393  47.7483368  36.2317473   7.0030672
  69.8005772  22.0286662  19.2137891  69.7925091  21.8571097  20.1554567
  70.7293129  22.0690591  18.9856416  90.5491161  71.3366222  34.3701768
  91.4968491  71.3452625  34.5042205  90.2808952  70.4505348  34.6133661
  65.9514141   7.1131474   1.7014867  65.3201962   6.7676265   2.3326761
  65.4169750   7.4010379   0.9613973  92.0889091  70.3321648  75.2922297
  91.1524582  70.4466248  75.4540539  92.2639084  69.4221163  75.5318594
  59.3031216  53.0391788  80.3339481  58.5997391  52.3903990  80.3578186
  59.6758175  53.0209160  81.2154198  61.3599968  94.8845959  56.9115591
  61.7806864  94.1026211  57.2690153  61.8610334  95.0860500  56.1212349
  79.6245766  53.1085491  75.1290560  80.1523876  52.4956846  74.6171427
  79.3331003  52.5996923  75.8855820  87.8746700  87.7891922  31.2079430
  87.6284599  88.3869362  31.9138622  87.2028637  87.9193687  30.5386400
  74.7681475  45.4188013  59.3106127  74.3859625  45.2413368  60.1700735
  74.1017723  45.1288033  58.6876583  95.2808285  42.5883865  75.1366425
  95.7036495  42.6451349  75.9935188  94.4516182  42.1419048  75.3078222
  78.6199617  60.4566622  73.4810448  79.4405651  60.8800316  73.2288456
  78.0893326  60.4691458  72.6844835  95.7974148  53.9751053  64.9202204
  95.5770016  53.4969187  64.1208553  95.9512615  53.2922363  65.5731010
  88.2283592  69.9253511  24.3504953  88.0451488  70.8319521  24.1040349
  88.5029793  69.9768543  25.2660084  82.6635647  64.1748238  25.2088833
  81.7864037  63.9451885  24.9021339  82.7329922  63.7596226  26.0685444
   8.7604523  21.5130669   4.8319227   9.3884707  21.8118150   5.4896242
   7.9594803  21.9993884   5.0272638 105.3427124  31.2096429  84.2096710
 104.3882751  31.2355351  84.1417789 105.6164074  30.6143594  83.5118484
  74.2232704  56.2317276  85.2921200  73.7444544  55.8484364  84.5572376
  74.1160679  55.6001520  86.0033512  56.0080147  90.6256104  49.5463037
  56.3172579  89.9414444  50.1400375  56.0159922  90.2142811  48.6820269
 104.1335400  25.9896415  47.8469944 104.9196394  26.0241073  47.3019314
 104.3600615  25.3880828  48.5562563  88.4348297  90.0412273  69.5102453
  87.5213528  89.7574329  69.4749832  88.8482761  89.4411755  70.1309109
  30.3762198  24.8651988   1.1635000  29.5554447  24.9414260   1.6500742
  30.1082516  24.8348576   0.2450735 102.5368786  92.7407742  70.2827835
 101.7961311  92.3053360  70.7045937 102.3058224  93.6696243  70.2923870
  37.9442883  12.0122439  11.0215360  37.0301628  11.8324096  11.2412244
  37.9080153  12.7881820  10.4622156  66.7942333  64.2963791  65.3044796
  67.3362446  64.8662806  65.8500671  67.4200869  63.7252522  64.8591042
   6.4239581  47.0789194  77.6975536   5.7227214  46.8401814  78.3037615
   6.2873347  48.0111027  77.5284290  66.9564295  71.0684872  28.1742740
  66.0554743  71.1140060  27.8542209  66.9531250  70.3410816  28.7964487
  25.6132491  87.4671841  28.2452226  25.3741344  87.1011066  29.0967178
  25.1718982  88.3160877  28.2169986  33.4749603  44.5881755  28.5787756
  33.5330153  44.4123561  27.6396543  32.6795674  44.1350753  28.8585550
  98.3432293  73.1565714  83.5370159  97.4901199  72.8713989  83.8642788
  98.1634712  73.9822102  83.0873108  85.0799084  95.8936501  73.5597897
  85.7608986  96.0319328  74.2180872  85.5602074  95.6859684  72.7582884
  99.9679661  50.2775288  85.6189823 100.8857536  50.5396318  85.6910515
  99.6091747  50.8464432  84.9379253  85.4468441  68.5655546  61.4981937
  85.3941917  67.7964163  60.9308434  85.1172638  69.2842102  60.9586191
  95.2576637  52.4688387  34.8932719  95.3774452  51.7721272  35.5386209
  94.6239090  52.1123409  34.2707801  79.7329950  62.9170370  64.7602081
  80.5648899  63.3669281  64.6126127  79.3228388  63.4010172  65.4769802
 106.6413212  55.6988764   8.9435780 106.2286282  56.3631678   8.3916450
 106.6238403  56.0743189   9.8238999  68.0684900  79.9248934  48.0110931
  68.6711168  80.0179100  48.7489462  67.5246763  79.1710377  48.2395601
  80.5695534  67.8432274  71.8602037  80.8906651  67.5601768  71.0040474
  80.8418083  68.7584209  71.9275236  98.6149406  70.1046705  68.1290531
  99.5016003  70.4390812  67.9940128  98.6147881  69.7836399  69.0308094
  63.6153746  66.7344761  68.2785845  63.3160162  67.5996447  68.5580540
  64.4418669  66.9017696  67.8256464  89.5111942  78.3408785  40.2369404
  90.2481747  78.4601498  39.6378875  89.2611408  77.4232101  40.1293087
   3.0982192  37.0660758  58.9370394   3.0436977  36.5758228  58.1167269
   2.4487956  36.6533375  59.5063591 103.3599814  90.5674042  19.6040899
 104.2690285  90.4169716  19.8633939 103.2041987  91.4909090  19.8018438
  80.8225155  76.3062906  53.8005257  81.0897064  76.8484879  53.0583239
  79.9529457  76.6313219  54.0338230  62.1575880 101.6321278  45.7129574
  62.1917534 102.1888924  44.9350929  62.0165825 100.7497120  45.3698874
  60.4158497   4.2402846   7.2197229  59.8894978   3.6378915   6.6940671
  60.6361962   3.7417275   8.0065710  72.1683073  62.4557257  40.7332754
  72.4135780  61.5644121  40.9815454  71.2171459  62.4803019  40.8377552
  81.6093349  74.1093969  71.1867332  81.2549686  73.3968115  70.6548691
  82.5568104  74.0521288  71.0632420  13.9920417   6.5325110  65.5440712
  14.1798011   5.7259505  66.0241127  14.6992485   7.1283954  65.7910776
  66.3454580  91.5142822  62.4091005  66.2557602  92.0643425  61.6308832
  67.2555113  91.2182140  62.3895407  33.6773388  96.7170490  52.3224050
  32.7968589  96.3529934  52.4143392  33.5866348  97.3978199  51.6556627
  99.8557091  61.7681599  60.7160521  99.1035748  61.5217829  61.2544155
 100.1966476  62.5612879  61.1294889  78.0559015  99.2391109  62.6024771
  78.8402081  98.9529133  62.1342945  78.1115150 100.1946926  62.6011944
   7.6628001  61.0792303  50.7611465   8.0127509  61.9678354  50.8255482
   6.7127689  61.1935997  50.7855368  10.1562770  90.5854416  33.1035876
   9.6790584  90.1537323  33.8121963  11.0778602  90.4104614  33.2940912
  26.6081762  47.7863318   0.9361536  25.9762716  47.1973903   1.3485605
  26.6764593  48.5255153   1.5404588  92.3124599  93.8275433  43.0759382
  92.2253323  92.8995991  43.2940197  93.2429028  94.0160084  43.1983376
  66.4587831  72.4958515  48.3464050  66.8465519  71.8198872  48.9022255
  67.1685696  72.7613497  47.7616405  65.3804445  65.4226255  22.1079016
  65.6955290  66.2671566  21.7858386  64.4719648  65.5865908  22.3609114
  78.6088800  89.5644093  51.4527225  79.3292618  89.5349121  50.8231068
  77.8282881  89.3734741  50.9326696  53.1704092  84.5522881  84.6711540
  53.9697504  85.0741005  84.7418499  53.1765413  83.9978409  85.4514027
  99.4410801  86.6822338  46.0901642  98.5029221  86.5574551  45.9469175
  99.5500851  86.6112614  47.0384884  65.6490469  88.3534336  36.2869501
  64.9546337  87.6998043  36.2045407  65.4360771  89.0136051  35.6273627
  76.7956448  54.0744209  46.0456896  77.0543718  54.5666790  45.2666044
  77.0944881  54.6121931  46.7789888  87.3688889  66.8238258  78.5597467
  87.3173141  67.5697088  79.1574335  86.6658592  66.9742441  77.9277945
  90.6652451  23.8900948  60.8169222  90.0432587  23.6807919  61.5137339
  90.1554585  23.8148618  60.0102663  86.8809032  89.3745422  40.9098434
  86.2531853  89.6440029  41.5803671  87.6975632  89.2339706  41.3889408
 102.1418762  91.6654968  51.0961533 102.6001167  91.1436176  50.4374456
 101.6590309  92.3191833  50.5904007  84.7538185   8.7120969   6.0962850
  84.6334267   9.0721280   5.2175790  85.6181526   9.0225942   6.3659936
  83.3107376  67.3801231  40.8042288  83.4507942  66.7006111  41.4636850
  82.4582386  67.1712017  40.4223585  56.5108490  23.5708005  14.9469644
  56.9346142  22.7125651  14.9566061  56.7719174  23.9574487  14.1111547
  81.0897160  78.1194305  63.5503435  81.6966248  77.7488279  64.1910887
  81.6399097  78.3392572  62.7985525  84.2956924  82.3857594  47.9586744
  84.3641472  83.3083820  48.2042789  83.4272289  82.3067665  47.5640059
 100.7099628  43.0489874  71.3364029 101.6040421  43.3735514  71.4437342
 100.6375694  42.3332405  71.9678307  51.2885857  82.4400902  55.0222397
  52.1786499  82.1436691  55.2123880  51.3963604  83.0941963  54.3317604
  15.1975902  98.7919617  33.4106660  15.1825698  98.6550808  32.4634218
  15.2909835  97.9130840  33.7782121  86.6464233  72.6331520  62.3160553
  86.7360592  73.0660105  61.4670372  87.5051594  72.7320480  62.7271700
  85.6254482  53.0142021  77.5930309  85.1234055  53.3729744  76.8612766
  85.6620598  53.7270975  78.2307386  78.8918257  78.9586830  43.6121988
  78.8684702  79.2331409  42.6954889  78.0316019  79.1992664  43.9562416
   0.5561431  98.2671452  67.3404169   0.1362880  97.9688549  66.5335798
   1.3992294  97.8140831  67.3533392  91.5114117  95.4301929  48.2885313
  90.8255482  94.7693729  48.3841038  91.0521603  96.2079525  47.9716396
  70.8031607  93.6835289  43.2185459  69.9983644  93.2553482  42.9266548
  70.9131527  94.4212151  42.6185942  67.1679878  13.9574773  39.4790346
  66.4338303  13.3851678  39.7019846  67.0606709  14.7181708  40.0500471
  87.8447247  75.0650215  76.4583254  86.9592571  74.7314978  76.6030169
  88.1304550  74.6424627  75.6483698  73.4371090  67.1525002  83.3462334
  73.4052563  67.5125837  82.4599171  72.7562141  66.4798069  83.3560753
  64.0004349  72.3464012  55.1345015  63.4349489  71.9685316  55.8080530
  64.7194672  71.7206764  55.0467587  55.4949093  62.2106409  74.1524696
  55.3583622  62.5068998  75.0523663  54.8358822  61.5287733  74.0221882
  46.0165787  17.2601468   4.5806104  45.9458256  16.3181931   4.7353822
  46.9522667  17.4461181   4.6589548   4.5546706  35.0996709  82.6434898
   5.0477489  34.3823576  83.0416870   4.7086604  35.8463979  83.2222080
 103.3649731  76.9575787  81.4499950 104.2501926  76.7855883  81.7710018
 102.8176308  76.9386721  82.2350311  55.2743912  43.3728606  11.9032175
  55.4774189  44.1432101  12.4338419  55.5588913  42.6318080  12.4381429
  51.6310120  91.6997528  84.1562939  51.3334084  91.9234276  83.2744598
  51.2995148  90.8139229  84.3034649  32.9330722  88.7730779   9.8197538
  32.4930946  88.3436955  10.5534345  32.2988216  88.7337746   9.1039163
  21.2421219  12.7797931  54.3563509  21.4802925  11.9620460  54.7931433
  22.0267574  13.0273955  53.8671875  58.6437798  68.8931799  78.3239269
  58.9437199  68.0115032  78.1027746  58.2673597  68.8054991  79.1996288
  16.6961845  68.8618088  78.4844494  17.0918449  68.1463242  77.9866886
  17.4388011  69.3931007  78.7716389 103.6603737  76.0777092  59.2896700
 104.1957474  75.4587078  58.7932444 103.8331032  75.8624315  60.2062130
  82.8632164  86.7978859  66.5395451  82.0196724  86.8829536  66.0952187
  83.4478664  87.3827553  66.0575342  79.1050053  89.2129898  46.6105700
  78.7356997  88.5106087  47.1458340  79.6363068  88.7606812  45.9553051
  65.4743195  68.8142633  79.4381762  65.9669924  68.7014627  80.2510548
  65.5119038  67.9568195  79.0143728  56.3054323  76.9319916  54.2681551
  57.1790457  76.6593790  53.9875984  56.4408207  77.7874947  54.6756124
  70.5928469  81.6789818  82.7791119  71.5095186  81.4857292  82.5826454
  70.6058884  82.0167828  83.6746311  89.9685192  68.8477564  44.6276999
  90.5491829  69.2460108  45.2761269  90.1566219  69.3191814  43.8161516
  80.6982994  53.8716173  69.6955681  80.8406734  54.5973682  69.0879154
  80.2975178  54.2778111  70.4640865  87.6386642  84.3633842  81.8281174
  87.9153633  83.4679794  82.0228577  87.4763012  84.3640900  80.8847904
  98.6451244  34.4348907  60.3468370  98.5819054  33.4956956  60.5204678
  99.2350388  34.7646046  61.0247231  49.6872330  52.6999099  18.7933904
  50.4067993  52.1574408  18.4706289  48.9058876  52.1618373  18.6661035
  56.6906166  39.8282344   5.5877382  55.8928204  39.8518664   5.0593454
  57.0848847  40.6917769   5.4649335  64.7851849  76.0868549  70.8252382
  64.6149015  76.1793089  71.7626238  65.7278109  76.2284994  70.7379293
  46.5693712  78.3683491  72.7396870  46.7301321  78.4060383  71.7968369
  47.3064280  78.8402271  73.1273794   2.1377071  71.6341591  48.9294243
   2.8056224  71.3916779  49.5707750   2.3377784  71.0991573  48.1613255
  94.3325615  76.4405870  67.8773642  93.7405777  77.1874571  67.7881002
  95.1404190  76.8158293  68.2277822  13.8516696  97.6006126  29.2200732
  13.1019767  98.0583858  29.6003890  14.5781978  97.7987194  29.8109508
  62.3583508  67.8221083  59.0005636  62.3889303  68.3486700  59.7993326
  61.6846037  67.1643925  59.1729212  83.6929226  90.6056881  30.9713340
  83.8932705  89.8709106  31.5511513  83.2800102  91.2546730  31.5410376
  97.8640652  37.2878385  83.0766106  97.5592899  37.5816965  83.9350986
  98.0503750  38.0961800  82.5990105  17.0062717  61.1157703  83.2578850
  17.5965865  60.3631020  83.2224655  17.3265918  61.7037773  82.5738716
  97.1149063  72.8156090  60.5343056  97.0914364  73.7709570  60.4796267
  97.4946976  72.5372696  59.7009277  86.0011864  70.7850218  32.2639728
  86.8988132  71.1174154  32.2659945  85.9894753  70.1227188  32.9549503
  10.7229407  91.5991306  76.3709259  10.5842479  90.6551647  76.4479113
  11.5497859  91.6817760  75.8958244  86.0140475   5.1983111  47.3372078
  85.4967936   5.0577205  48.1302452  85.8401593   4.4268363  46.7979288
  99.8375320  89.9416637  73.5098171  99.0158081  89.6093178  73.8711309
 100.4200459  90.0132942  74.2659760  47.1676016  84.7149372  42.8789568
  47.4699116  83.8648510  42.5592613  47.5215244  85.3461266  42.2524023
  89.5553875  94.7551727  61.4838171  90.2619839  94.7815895  62.1290016
  89.9772739  94.9884415  60.6568813  84.4748497  67.2748280  67.9828644
  84.8869514  67.4025536  67.1284103  83.5464096  67.4501848  67.8296041
  90.0982952  86.7487335  79.8233747  89.8906136  87.0674419  78.9450121
  90.6558132  85.9848499  79.6753931  15.6606094   8.1311267  67.0574617
  15.5257980   8.1270163  68.0051088  15.4021351   9.0108149  66.7825747
  84.6749115  82.1998787  70.1325560  85.4260635  81.6826534  70.4232168
  85.0592422  82.9217243  69.6350956  -0.1794545  85.2204418  66.2627125
   0.2658923  85.2171135  65.4154348   0.0777419  86.0499382  66.6652250
  80.1336098  58.9340210  80.1552963  81.0840034  59.0267611  80.2215290
  79.8842621  58.4535313  80.9447193  89.8034477  69.1764402  68.6023664
  89.5995808  70.0642729  68.8963509  89.2588234  68.6116123  69.1506243
  15.9096042  93.8525547   7.0271093  15.0012008  93.8924469   7.3261816
  15.9386341  94.4382538   6.2705690  40.0172997  36.9957454   3.7967378
  40.8837128  37.2426898   3.4733564  40.1431942  36.1277778   4.1801721
  87.5837612  70.4885435  46.3098812  87.7153015  70.4279518  45.3637028
  87.0113564  69.7506428  46.5198565  76.2295341  72.8800392  79.9190521
  75.4503727  72.3250341  79.9523592  76.1895037  73.2976866  79.0587044
  64.8244715  90.3242207  55.2917147  64.7590590  89.7779083  56.0749722
  65.1229000  89.7259903  54.6066666  78.6333799  63.1723118  56.4662743
  78.0080700  63.7820530  56.0745668  79.3610525  63.1434965  55.8450699
  15.1785135   1.3437898   1.7002851  14.3185377   0.9364612   1.8039590
  15.2127028   1.5998561   0.7786066  90.6126881  49.8451900  40.2575636
  90.4978466  49.9906063  41.1966562  91.2195587  49.1070557  40.2019453
  88.0518532  68.2000780  50.8316946  87.7156830  69.0585852  50.5744171
  88.1942272  67.7407551  50.0040579  90.7046032  48.0014420  63.2636738
  91.2981510  47.7185297  63.9592981  91.2037277  48.6552429  62.7741241
  58.8826084  18.3870513  32.3146516  58.3442211  18.6232669  33.0700189
  58.9603806  17.4343211  32.3645002  89.3031406  72.9563665  62.8802776
  89.4206715  73.9062881  62.8724098  89.9428082  72.6306295  62.2470665
  67.1694040  94.3767548  80.1792812  67.0194674  94.6693230  79.2803049
  67.9395533  94.8677635  80.4656506  91.9104862  84.3571568  65.8018017
  91.6968250  84.7297382  66.6572380  91.2157631  84.6716690  65.2232933
  78.4443808  74.8260212  74.0521717  78.5908556  73.8801575  74.0413523
  77.5550413  74.9345350  73.7152290  76.7015648  66.5074778  40.4158878
  77.5264215  66.9084167  40.1418638  76.2971354  67.1591282  40.9886169
  71.0453701  80.2016449  75.2616739  70.2835751  80.2595234  75.8383465
  71.7788458  80.4918480  75.8039141  16.6603835  89.5422268  54.1463280
  17.5553878  89.3047619  53.9038229  16.6845973  90.4935360  54.2495489
  60.4029369  58.3723545  28.0816007  61.1909246  58.7137604  28.5043907
  60.5432653  57.4263382  28.0417037  69.4851780  73.3768702  53.3681202
  70.2665806  73.6089039  53.8699150  68.9727306  72.8289413  53.9625978
  93.7027454  59.2401361  38.8467193  93.9313126  60.0079679  39.3705726
  94.2906284  59.2811584  38.0924368  88.7710762  82.7287292  72.6177788
  89.4561958  82.0757580  72.4747038  88.9551926  83.0823326  73.4880066
  89.9553204  74.5061874  20.9933996  89.8746204  73.6412573  20.5913806
  90.8548927  74.7743654  20.8061147  80.9131241  49.8864651  80.0323772
  80.0805283  50.3584385  80.0162601  80.7316971  49.0650702  79.5756149
  62.9255915  94.6535015  15.9704494  63.3749104  94.0533543  16.5655649
  62.6276636  94.0980911  15.2500391  87.5012493  94.4845676  80.0766754
  87.9136086  93.6240196  80.1518440  86.5645885  94.2968464  80.0160980
  12.4218448  64.1467524  76.0088015  12.3682388  63.3803177  75.4378986
  12.2476371  63.8048601  76.8857241   6.9063036  10.0787681  51.0527897
   7.4517624   9.9170917  51.8225718   7.3199789   9.5705169  50.3550911
  74.8969793  73.5330296  47.3147631  75.5203533  73.0834293  47.8852797
  75.3514194  73.6082888  46.4756823 105.2433205  73.2921410  38.6791229
 105.4843712  74.1280746  38.2799459 105.4104710  72.6432705  37.9955602
  66.6902638  34.1152579   3.3416063  66.2695599  34.2795092   4.1855604
  66.3278961  34.7830302   2.7593595  25.8835300  73.3231974  79.2931223
  25.2124389  73.0235052  79.9063587  26.1271175  74.1926813  79.6107531
  41.4576896  85.4605198  47.3145533  40.8599742  86.2045670  47.2413588
  40.9318050  84.7695541  47.7173615   1.1244567  85.6398392  61.3852310
   1.6825183  84.8655033  61.3130760   0.8972724  85.8564472  60.4809618
  11.8997431  47.4651248  23.1305868  11.3026953  46.7611701  23.3840066
  12.7434206  47.2095115  23.5035497   1.3870700  70.8659029  77.0283794
   0.5473884  70.8319521  77.4866438   1.8665488  70.1024675  77.3500967
  64.4800377  75.9100056  22.3726702  64.5606470  76.7701674  21.9605231
  65.1744890  75.3866768  21.9725490  90.4584217  20.4912829  62.7760458
  90.7566261  20.4324579  63.6837053  89.9882698  21.3238955  62.7318907
  83.7026787 100.0519848  65.0610876  84.4470882  99.7652721  64.5320559
  83.9330769  99.7998619  65.9552813  95.6535053  60.7171869  64.9190140
  94.9622059  60.5543709  64.2772818  95.7961559  59.8684359  65.3379440
 105.2177811  43.4733057  76.9711876 104.5939255  42.7695322  77.1493292
 105.3770733  43.8741636  77.8256893  87.1197128  47.3151690  14.6045000
  87.2641945  46.7644507  15.3739530  87.1474457  46.7068679  13.8659650
  88.7684059  90.0511551  66.6383410  88.7491512  89.9635506  67.5913334
  89.3214989  89.3281174  66.3424778  78.9422560  69.1158152  52.8749514
  79.3999100  68.5774040  52.2292709  79.6260118  69.6679306  53.2542706
  82.5941753  75.8950186  47.4438429  81.6952229  76.0955143  47.7044439
  82.8376389  76.6090155  46.8546343  72.8937244  77.1555662  59.7200012
  72.6061106  77.9097652  60.2344894  73.2448626  76.5439796  60.3672171
 106.8740654  25.8961034  56.1337471 107.1203136  26.5531492  55.4826832
 107.6744843  25.3918791  56.2797594  82.4125957  97.9613018  52.0339680
  81.5105438  98.2786846  51.9914198  82.5230026  97.4456692  51.2351131
  23.0115398  64.4271517  32.5054741  22.2992309  64.2301941  31.8971539
  23.1194671  63.6245775  33.0158257  60.7072353  69.7398233  66.7125130
  61.3224888  69.7712231  67.4451160  59.9969816  70.3272057  66.9708776
 105.7126808  94.4652081  63.2406521 105.3301334  93.7049389  62.8025961
 105.1378345  94.6246719  63.9892244  67.0567608  62.9789066  68.9245176
  67.4197435  63.7689400  68.5241175  67.3968744  62.9858923  69.8192263
  56.4564419  20.2657229   7.0496351  56.6131973  19.3277366   7.1584684
  56.9270325  20.6731564   7.7768022   0.4558261  54.5097828  56.8188572
   0.2399715  54.7714043  55.9237623   1.4125331  54.4851494  56.8370724
   0.7243617  25.6511831  75.4031086   1.2482150  24.9131823  75.0914049
   0.9549697  25.7347441  76.3283491  52.5983811  19.5245273  12.1885854
  52.3328591  19.4085938  13.1008798  51.7762184  19.5278317  11.6984159
  73.2439860   7.5218909  41.2337065  73.4278210   6.7613833  40.6822872
  72.5542410   7.9944842  40.7677269  81.5294751  96.7916407   1.6081316
  81.8197068  96.6101135   2.5020296  81.5596302  95.9415258   1.1692316
 103.7872028  73.7514353  55.6296110 103.6969948  74.5191860  55.0651217
 104.2140007  74.0836382  56.4193678  74.5560694  62.9519987  73.8366938
  74.1531038  62.4411726  73.1346226  75.2619743  62.3943806  74.1637993
  48.3177376  22.8947646  15.4633123  49.0813351  22.6956612  14.9215490
  48.5357857  23.7238461  15.8891183  23.9692767  32.9116273  60.1178217
  23.8912185  33.5784125  60.8001232  23.1142314  32.4815845  60.1042461
  98.3244801  77.1521187  86.0441971  98.7404633  76.5166330  85.4616547
  98.8775826  77.9309464  85.9830856  47.9869652  84.9765491  78.2866573
  47.6587629  84.9885559  77.3875618  47.2107315  85.1240730  78.8269663
  71.5830755  40.4755640  69.0776348  70.7583332  40.2411175  69.5031500
  72.0119381  41.0671091  69.6960020  83.1188774  79.5489502  50.0946331
  83.5476971  79.7364140  50.9296179  82.3382664  80.1029110  50.0965881
   7.9584296  93.2674217  75.8220005   8.3291419  92.8314304  75.0547218
   8.3285506  92.7953053  76.5678883  32.4763441  64.9486930   7.4387914
  32.5273705  64.6573550   8.3491498  31.7740488  65.5990703   7.4344617
   9.7035392  95.6531334  66.7922163  10.0949748  96.0785961  66.0293293
   8.9634307  96.2135410  67.0255184  68.8768864  16.9943148   5.8310491
  68.3280564  17.6618487   6.2426549  69.7711277  17.2398097   6.0682851
  28.2431698  25.2254397   9.9304754  28.0627585  26.1645085   9.8875982
  28.0237866  24.9801928  10.8293420 104.2583179  96.9800758  52.2944355
 105.1737499  96.8780613  52.0340395 104.2977524  97.4378014  53.1341743
  67.3687220  67.7746916  58.9121199  67.2044420  67.1139908  58.2392740
  67.9655218  67.3475218  59.5266008  95.7736588  77.6949263  65.6472111
  96.6321850  77.6430178  66.0672903  95.9645939  77.9379416  64.7412729
  50.8399097   9.0438788  53.2397938  50.1519386   9.7093432  53.2305050
  50.6022827   8.4637969  53.9631701  77.5619745  52.1396685  73.6197424
  78.1326675  52.7844810  74.0377855  77.3184776  52.5405836  72.7853489
  63.9861679  65.8794028  13.3302003  64.5898152  65.5490596  12.6648313
  63.9253044  65.1711375  13.9711935  87.1385860  80.6964493  61.3219452
  87.3062801  80.2057457  62.1265078  87.9760075  80.6897449  60.8583593
  70.0094557  93.0787563  68.8084841  70.1624823  92.6943874  69.6716595
  69.4466877  92.4467278  68.3612061  49.4595623  86.6654301  75.7159615
  48.5055542  86.6819477  75.7923460  49.6660805  85.7585144  75.4899549
  49.6247578  30.2042109   1.9318563  49.8127842  29.3821437   1.4789850
  48.9309311  30.6105143   1.4124853  88.7817192  63.9489460  60.6222391
  89.2312908  64.3221855  59.8640823  88.5494709  64.7061920  61.1597061
  95.4745197  81.0492516  65.2137423  95.3883648  80.5922794  66.0503912
  94.9068165  81.8151379  65.2995825  77.6391983  50.3832388  47.0678043
  76.7584467  50.1732826  46.7572880  78.1158543  50.6420803  46.2791109
  79.4049740  82.3912621  56.4736986  78.7802362  82.6938725  55.8146334
  79.5308590  81.4631844  56.2760973  88.8094330  50.9664542  22.6899416
  89.5102787  51.4939792  22.3068315  88.0058193  51.3281066  22.3162538
  31.9951526   9.4779437  51.6684341  31.5759079  10.3316920  51.7760611
  32.2156040   9.2053740  52.5591326  37.9299442  20.4899829  52.0187521
  37.6497547  20.0598758  51.2108278  38.7555305  20.9165042  51.7891407
  30.1061622   5.2604430  34.7364640  29.8439304   4.5098250  35.2694154
  30.8350174   4.9358123  34.2076826   4.9635975  24.9901240  68.6236763
   4.1021816  24.7789710  68.2636595   5.5709020  24.8298686  67.9013681
  93.6264992  96.3878155  76.2819290  93.5347462  97.2186565  76.7483330
  93.6818409  96.6360188  75.3591251  66.7722702  93.4754181  50.9517145
  66.5989637  94.1724396  50.3189754  67.4247885  92.9206944  50.5242443
 101.0226917  86.1528873  41.4768457 100.9347534  86.9518757  41.9965744
 101.9647503  86.0632896  41.3328552  46.6408531   9.5987456  71.4567757
  47.0868770  10.1698821  70.8313942  47.2938339   8.9370196  71.6847372
  52.6623336   6.3636535  62.8042555  51.8556396   6.8781703  62.7767467
  53.1172172   6.6731399  63.5875320   3.6497482  96.2583542  19.8961341
   2.8472121  96.0920715  19.4016409   4.1944106  96.7748070  19.3021286
  21.7725937  25.7993358  36.9831610  21.3728229  25.0855678  37.4800992
  21.1348907  26.5115207  37.0317531  65.3744984  40.8986384  11.1678487
  65.5894470  41.3103587  10.3308755  66.0499573  40.2309329  11.2867719
  38.6874660  95.9369183  38.9846492  39.3529971  96.1417770  38.3278918
  38.5468181  96.7622471  39.4486380  89.4611550  44.0640647   4.3767816
  89.4938946  44.7420127   5.0517255  88.7963295  44.3714911   3.7605649
  11.4866058   5.2750438  56.4507246  10.9003250   5.9402984  56.0902548
  11.2704841   5.2449458  57.3827171  47.1857834  68.3086974  11.1394674
  47.9777241  67.8819663  11.4665395  47.2630596  68.2590587  10.1866800
  86.6137600  77.7899551  35.7719231  87.0623302  78.1397295  35.0020695
  85.7569122  78.2165575  35.7642865  14.1565506  10.4101699  66.1715794
  13.9300625  11.3273852  66.0177755  14.3685524  10.0670093  65.3035212
  96.5018177  64.6694660  24.2498684  96.6388416  63.7271929  24.1520071
  95.6892204  64.8439264  23.7750101  68.9651776  32.1156127  16.6742212
  68.8783169  31.1685378  16.5659124  68.1247139  32.3930842  17.0387250
  35.4630359  94.5852947  67.8090572  35.1196464  93.7110806  67.9936266
  35.3505500  94.6923161  66.8645334  99.2658520  41.2152678  17.9883749
  98.4057141  41.2195403  17.5684053  99.2197132  41.9186694  18.6359293
  43.0415869  87.7868271  51.4748287  42.3547173  87.7203751  52.1381760
  42.8484726  87.0803738  50.8584881  50.5643932   9.0547126  76.7123985
  51.5039913   8.9144462  76.8295383  50.5000011   9.6072905  75.9334660
  76.4127064  64.8832321  48.7207413  76.2095022  64.0442562  48.3071375
  75.6757975  65.4488134  48.4898281  49.3829719  -0.0105340  80.5352688
  49.4807712   0.4389804  79.6958590  49.4429294   0.6864493  81.1886120
  58.1400728 100.7655048  36.5468478  57.8829765 100.5742359  37.4488187
  58.3294344  99.9084759  36.1649084  78.7343502  26.8153674  26.1588079
  78.9279366  25.9491641  26.5172082  77.7811909  26.8312890  26.0724432
  43.8695614   4.6510833  86.8408489  43.7828628   5.2063601  87.6156902
  44.7206012   4.8866218  86.4713955  67.2847605  82.9004383  86.4742565
  67.2425890  82.8229713  87.4273872  66.9675446  82.0571136  86.1511421
  71.5616035  92.4431705  63.0418158  72.4867392  92.6490021  62.9076910
  71.0924673  93.1204414  62.5545216  29.4285472  67.2968483  76.6546774
  29.4878371  66.8625879  77.5056362  30.3220351  67.5870514  76.4711094
  73.2259226  70.8753967  77.3177862  73.4938478  69.9577904  77.2683239
  73.6232615  71.1976480  78.1268072  15.9870331  19.1271632  85.3070068
  15.9159939  18.1765788  85.3940392  16.9288437  19.2980807  85.3083134
  40.2085964   3.3018916  72.1996880  40.2210228   2.3760169  72.4422503
  40.3870289   3.7661593  73.0175161  26.7943748  69.3425751  72.4570465
  27.1418842  69.9800205  71.8332386  27.5385936  68.7758493  72.6600313
  21.2524883  11.2163012  74.6406126  21.7855827  10.8086913  75.3231812
  21.3382045  12.1563762  74.7991705  31.4208118   4.9622672  45.1711845
  31.4998810   5.8676951  45.4714584  31.3312046   5.0320857  44.2207479
  46.2448208   7.4476283  53.7614632  45.8894436   6.6335624  54.1181660
  46.2433998   7.3145335  52.8135633  27.2081081   4.9620669  73.9520741
  28.1455223   5.0838511  74.1025686  26.7881099   5.6014293  74.5274401
   4.6706756  68.6776972  72.6281452   3.8534244  69.1296291  72.4181843
   4.6008952  67.8354311  72.1787500   6.4891418  82.4381161  83.1587315
   7.2156604  82.9806423  82.8520203   6.2434180  81.9137192  82.3965836
  72.0187998  72.4666786  81.4242840  71.1601448  72.1406889  81.1546993
  72.2454977  71.9393826  82.1903038  54.3305111  62.0044810   0.0895006
  54.5164490  61.7756278   1.0001546  55.0010300  61.5438372  -0.4149264
  28.5835735   3.4111731  62.4995661  29.2994205   3.1395381  61.9251156
  28.2833664   2.5994151  62.9084206  93.9114626  30.2703612  41.7890406
  92.9851540  30.1878207  42.0156765  94.0844258  31.2110370  41.8269730
  68.6852169  38.8206775   7.8743822  67.7574253  38.7598044   8.1018335
  68.8061237  38.1678111   7.1849138  62.5134516 100.4253864  65.3320074
  62.0099735 100.8198357  66.0441542  61.8759918 100.2994919  64.6291351
  87.1761704  28.6698062  24.2957479  86.2821961  28.7593228  24.6259386
  87.3867607  27.7446849  24.4223768  32.7605430   6.3195460  76.1402893
  33.6461727   6.6443961  76.3026714  32.7969925   5.3939193  76.3813496
  20.7028373  89.7685719  60.0982428  20.0827296  89.9706936  59.3976355
  21.2682326  90.5393791  60.1474190  21.0461982  66.6651678  49.0878153
  21.8065818  66.1173439  49.2825794  21.2227328  67.4897242  49.5407820
  13.7241824  56.7145967  45.9865570  13.0459197  56.3154173  46.5313959
  13.2963832  57.4728537  45.5887365  33.4556858  19.2640155  59.0874815
  33.5459987  18.6870139  59.8458672  33.2480423  18.6752170  58.3619261
  57.3401070  56.2500388   8.6059839  56.8372822  56.2614352   9.4203931
  56.9225598  56.9140727   8.0573923  50.8388893  25.2771895  47.7697086
  51.4914314  25.9102862  47.4703503  50.6506530  25.5356830  48.6719179
  78.5506058  35.2860934  20.5472070  79.0286541  35.9979159  20.9726602
  78.8341713  35.3196341  19.6335966  87.0459422  19.5956080  52.8469515
  87.2533902  19.9080413  53.7276268  86.4939412  18.8266986  52.9894352
  57.0349121  59.7571952  11.9447691  56.6059685  60.5423552  12.2850210
  57.7949143  59.6339518  12.5134737  16.2082664   0.2346652  61.2710476
  15.7607547  -0.4528291  60.7777834  16.9822685   0.4404300  60.7468271
   3.9491733  95.4273701  55.7689905   4.2333778  94.8597813  55.0525379
   3.1028255  95.7700539  55.4817724  89.1031456  89.4158363  81.0547924
  88.9552593  89.5319748  81.9933414  88.5596275  88.6643791  80.8178616
  98.5570431  69.6542549  54.0182877  97.6622200  69.7488642  53.6918497
  98.5111713  68.9231920  54.6344614  60.1994562  80.3678799  49.0715647
  59.7553921  81.2119484  48.9904213  61.1117506  80.5936813  49.2531300
  48.5618575  91.0986042  79.2518044  47.8731807  91.6236496  79.6595907
  48.3864577  91.1611271  78.3128881 105.5667210  75.1161623  75.7379198
 106.4787960  75.2657270  75.4889536 105.1433754  75.9663248  75.6186199
  19.6892357  58.6844451   2.5323183  19.8722458  57.7888209   2.8162080
  20.5236054  59.0012557   2.1863634  34.3984270  64.5894343  17.9432565
  33.6240530  64.1212947  18.2553846  34.3446350  64.5320994  16.9892961
  95.0860214  96.5843964  54.4523191  94.7590923  97.4823952  54.5067596
  95.2692413  96.3407898  55.3596830  18.0129417  87.6156330  67.9897213
  17.7604373  86.7376709  68.2754707  17.2751697  87.9162407  67.4590921
   6.7336257  94.7435474  42.8011990   5.9339889  94.3761635  43.1778288
   7.3046477  93.9871407  42.6669979  69.9731732  17.7069671  20.2422697
  69.3900967  17.1157271  19.7661478  69.4305325  18.0634696  20.9456140
 103.8524151 100.1758480  41.3094997 103.9346600 100.3716087  42.2428513
 104.6743584  99.7408867  41.0826731   2.5802215  63.1804037  66.8100739
   2.9350932  63.9235878  66.3222456   2.8434165  62.4128962  66.3022423
  56.3021080  18.9310973  80.5603027  55.5438797  18.9601748  81.1437893
  56.0632698  18.2920688  79.8888636  53.7083244  83.5408306  58.5527468
  53.8159752  82.8889942  57.8601122  54.4915915  83.4460068  59.0947247
  21.0510914  29.8058837  71.2040567  21.2123672  30.7306903  71.3910389
  20.7591144  29.4400828  72.0390224  49.2638199  14.6613639  80.6546974
  48.8952724  13.8456481  80.3155613  50.1948444  14.6119063  80.4379368
  17.9938308  34.6727031  63.7457323  17.1904079  34.9220984  64.2023945
  18.0013839  33.7161296  63.7794018 103.6470994  25.3897326  76.8256855
 102.7493390  25.5764049  76.5510654 103.5943755  24.5338672  77.2510815
  86.3205719  80.5749702  38.1532621  87.2212219  80.5063343  38.4700418
  85.9512329  79.7026443  38.2906127  51.5491438  75.7551003  66.5070343
  52.2229815  76.4281607  66.6027784  51.3783073  75.7193899  65.5658817
  83.9064884  84.7715950  75.1457119  84.2910194  83.9968014  75.5556583
  83.1035137  84.9313641  75.6416464  91.2823391  46.4718348  19.2683012
  92.1368027  46.7224318  19.6194917  91.0454464  45.6824595  19.7551328
  94.2351818  68.7090445  42.7172565  93.8213730  67.8480864  42.6560640
  95.1715755  68.5207939  42.7801037  98.4381294  68.4149456  82.4538136
  99.0977859  69.1074419  82.4929047  98.2349300  68.3300304  81.5222931
  24.2978080  97.4214554  51.1873627  24.1590675  97.2689629  52.1220970
  24.8537429  96.6947937  50.9060669  79.0713883  36.8675620   0.3131467
  78.1707382  36.5950782   0.4886991  79.0077400  37.4150855  -0.4694193
  97.4546146  54.4548655  50.5123997  98.0171013  55.2273130  50.4561615
  96.5677834  54.8087502  50.5797148   5.9758655   5.9128707  51.8352842
   6.7421095   5.6387561  52.3392296   5.4586927   5.1140349  51.7321968
 103.6773491  96.1695290  81.4330196 103.9005852  96.0002995  80.5177307
 103.8873386  95.3527069  81.8857384  92.6940727  62.9515553  64.4809866
  92.6385784  62.0030737  64.3646145  92.9154396  63.0669403  65.4050636
  87.7809238  98.2337189  53.0358219  87.5044155  97.6565838  53.7476444
  86.9654846  98.4909534  52.6055574  85.3286131  14.5862811  53.3311176
  85.3081377  15.5245917  53.1429958  86.1513289  14.4543593  53.8022470
  31.3246441  19.9531276   1.3169557  30.8547115  20.5386693   0.7232076
  30.6349373  19.4776160   1.7800123  65.7008171   0.1048476   9.5069391
  65.2610684   0.9078652   9.2276365  66.5983582   0.3772551   9.6978361
  27.6756469  12.8444617  82.7217293  27.4925510  12.6286738  81.8073177
  27.9378311  13.7648528  82.7027607  82.3684978  55.0580168  40.6146193
  82.5147629  54.3937683  39.9411130  81.6968250  55.6307077  40.2443361
  61.1369697  19.3317740  81.4430237  60.3755085  19.2473166  80.8691978
  60.9009449  20.0307982  82.0528603  33.8740524  84.0012741  71.3119936
  33.5906394  83.1128693  71.0959768  34.5202621  84.2166901  70.6395102
  79.8551750  97.6879883  69.0577030  80.6775379  98.0169678  69.4206429
  80.0994492  97.3148823  68.2107353  35.0597374  18.5629981  62.0634604
  35.2497665  17.7672141  61.5666151  34.1337291  18.4863990  62.2934055
  74.2888975  93.2453728  84.7955513  74.1620779  92.3478794  85.1032257
  73.5757971  93.3882332  84.1732121  25.4085533   1.2265628  61.6477013
  25.4651252   2.0633262  61.1863279  25.3164188   0.5753463  60.9522486
  19.3940727  33.4884398  66.5449667  19.1064350  33.8084929  67.3999882
  20.3173725  33.7358706  66.4948225  83.2405178   6.7596286  83.8772964
  83.4826080   7.6708167  84.0427113  82.2834865   6.7653792  83.8602638
   0.6268962  99.0917587  75.1145363   0.3342708  98.2319355  74.8123646
   0.3600867  99.6934414  74.4195414  74.6516180  76.0199451  87.0634365
  75.2365589  75.3479052  86.7135239  74.2891693  75.6311321  87.8594780
  30.3898613   2.9386085  60.2965784  31.1335460   2.7110618  60.8546019
  29.9457351   2.1056407  60.1379681  98.3067187  17.5280421  63.6853456
  98.8552912  18.2400840  64.0144205  98.7826880  16.7312186  63.9193535
  72.5824451  82.0682430  86.7606640  72.6357698  81.3566971  87.3987103
  71.6626453  82.3328876  86.7733479  68.9014196  92.8081608  31.4730835
  68.5735321  93.5721302  30.9986663  68.8610792  92.0950413  30.8358526
  95.6276226 100.6379223  77.4457741  96.4960766 100.7491016  77.8326130
  95.6501961 101.1690712  76.6497850  53.1037903  45.7396609  17.1568758
  53.7771702  46.0850627  16.5707952  53.4521961  45.8882911  18.0359346
  60.0368118  31.9079310  11.8549615  59.1270638  31.9725901  11.5644342
  60.2105522  30.9673125  11.8907053  60.5780697  13.5239846  19.4368059
  59.7983551  12.9688317  19.4272501  60.4979801  14.0629870  18.6498529
  12.6227943  21.2503951  38.6187816  12.5398533  22.0139640  38.0475354
  11.7728512  20.8140510  38.5602641  24.8133556  11.6129535  74.7568321
  25.4173271  11.0407680  74.2834949  24.5885078  11.1223166  75.5473709
  89.9631119  64.2901516  34.3029261  89.5005989  64.7404337  35.0097203
  89.5215034  64.5802402  33.5047674  65.4302692  59.6376657  79.5420742
  64.4801807  59.6254110  79.4262505  65.7018852  60.4906702  79.2031956
  45.6040088  24.7727054  56.8878126  45.9268085  25.0296252  56.0240841
  46.1188404  23.9985030  57.1153641 104.6507263  52.8267765  86.0841942
 105.1951599  53.6140585  86.0814762 104.9202633  52.3464680  85.3013229
   7.3770944  17.0075267  20.4304838   8.0849926  16.9360488  21.0707974
   7.1174804  16.1024135  20.2584243  34.5807552  15.0410087   4.3797285
  35.3640127  14.5041711   4.2591459  34.0488959  14.5511920   5.0069791
   3.9585956 101.8435478  43.4324408   3.8132365 101.4132595  44.2750263
   4.5591243 101.2615681  42.9667425  77.0314074  77.0782804  64.4539070
  77.5025368  77.8558779  64.1545534  76.4731216  77.3950624  65.1639795
 104.5451069  91.9685745  67.8622580 103.9513206  92.1708202  68.5852671
 104.6332359  92.7944756  67.3865032  59.7433281  37.6971824   2.0397169
  59.6486950  37.1062858   2.7867872  60.6411839  37.5596530   1.7377740
  10.0855152   7.3379367  54.8327875  10.8377258   7.7265590  54.3862581
   9.6769993   8.0698340  55.2950287   7.6772292  99.7103596  78.9518929
   8.4995731 100.1645470  78.7683630   7.5353511  99.1532230  78.1865835
  84.2087746  99.4500160  55.5091763  83.8689137 100.3370380  55.3912020
  85.1601505  99.5531750  55.4873991   3.7704070  66.2043619  60.2214622
   3.4535392  65.6417751  59.5148373   4.5393069  65.7486105  60.5639648
  70.2540827  84.9812984  48.8859892  71.0642004  85.4877949  48.9443207
  70.4519939  84.1602230  49.3364334  91.8691882   8.2594531  45.6691647
  91.6252621   8.1015437  46.5811920  91.1573895   7.8714221  45.1602364
  96.8877411  71.6323478   8.5934812  96.1662388  71.9409663   8.0453760
  97.0247555  70.7251651   8.3205873  86.5598679  71.6719866  56.6525316
  86.0655689  71.0378885  56.1330891  86.8335056  71.1839867  57.4291992
  55.1012421  26.2492234  11.2713892  55.0203705  27.1911151  11.4214975
  55.3909969  26.1756188  10.3620702  50.9896270   8.9772838  64.9352455
  51.8341343   9.4123309  65.0526333  50.9001724   8.8797419  63.9872408
  92.8069115  97.5162601  69.9761915  92.0399284  97.4710560  70.5470896
  93.3912086  96.8333435  70.3055143  85.3773499  69.7197825   7.7657587
  84.7846604  69.5732791   7.0285398  85.9454155  68.9494140   7.7731306
  90.3170586  73.9430857  82.2711182  89.4735622  73.8954687  81.8211555
  90.1128674  74.3300390  83.1224728  68.5721731  87.4094677  71.9224215
  69.2476177  87.3030853  72.5922680  67.7576208  87.1675205  72.3631001
  71.8154335  78.7371206  61.4698744  71.3436937  79.4947720  61.1239624
  71.7313147  78.8159800  62.4201059  18.2760612  14.8584693  47.3397732
  17.7243320  14.9330848  48.1183958  18.1796543  13.9468234  47.0643806
 107.9246998  67.5970984  41.6240978 108.2440090  68.1827068  42.3106337
 107.1931934  68.0698824  41.2271118 103.1984711  92.2024250  28.2515931
 103.8113213  91.5076447  28.0109024 102.5102329  91.7548275  28.7437415
  27.0169051  84.9400520  66.3238668  26.8728431  84.6380901  65.4270411
  26.2217982  84.6864510  66.7926121   5.9266647  76.0104179  82.2596073
   5.2369197  75.3662634  82.0997810   5.5249294  76.6508245  82.8467274
  92.8269577  87.7686501  74.7653008  93.3762169  87.1512890  74.2821741
  93.1158733  87.6858616  75.6740952  79.7916794  40.0452716   3.8467580
  80.6899071  39.7559935   3.6863596  79.3558121  39.9542338   2.9994279
   4.8314651  91.2475014  43.5494709   4.7475322  92.1334267  43.9020634
   5.1196750  91.3757038  42.6457405  56.3963024  97.1468796  21.6928751
  57.2574989  96.7308535  21.7314035  55.7810299  96.4174093  21.6183836
  65.2545253   8.5784762  82.8940201  65.1443283   9.5283168  82.8506470
  64.6204654   8.2348102  82.2646523  59.6878139  12.5989669  29.6843433
  58.8929550  12.0919173  29.8496318  60.3959934  11.9568294  29.7330165
  73.9408636  92.3739147  34.3113947  74.5192623  92.9157734  33.7746692
  74.4294167  91.5616989  34.4450378  82.5861168  95.7115746  60.6316853
  82.5008488  94.7581863  60.6337452  83.0788994  95.9062576  59.8345089
 101.2410259  63.3895588  73.5941601 101.2779236  62.5062895  73.9611816
 100.9913254  63.9454174  74.3323326  12.7612003  93.4939289  82.1223545
  13.1348212  93.4360790  81.2429810  13.3572372  94.0722656  82.5982666
  78.7862110  24.1886956  17.8243524  78.7741852  23.6426741  18.6104471
  79.4582176  23.7938458  17.2687131  61.8975782  80.6308174  41.2726021
  62.3734426  81.3825989  40.9196043  61.1686134  80.5023098  40.6657028
 107.6767691   6.7763274  36.7150760 106.8251284   6.3699668  36.8757415
 107.6582392   7.5829738  37.2300649  24.7000678  63.8990545  45.1963711
  24.4374259  63.2837152  44.5118189  23.9971145  63.8508844  45.8442736
   7.9758056  62.4988747  53.2964516   8.7351497  62.9492188  53.6663389
   8.1675132  61.5686703  53.4156275 102.2705650  98.2524490  57.8322601
 101.4946938  97.7327156  57.6221848 102.0834637  98.6245251  58.6941051
  57.0070458  39.3033034  18.7577135  56.4983082  38.6027724  19.1659814
  56.5762425  39.4529635  17.9161436  91.7858982  89.3598652  80.9432316
  92.2639465  88.5742760  80.6776047  90.8832932  89.1945362  80.6708336
  25.3908149  19.3174785  50.1500320  25.6554023  20.1518195  49.7626114
  24.9019329  19.5625155  50.9356451  94.8098660  68.7725496  48.9652300
  94.8711205  69.5683384  49.4936228  94.4132328  68.1267643  49.5499277
  39.1996566   6.1767714  71.0715866  39.3749420   5.6133216  71.8252659
  38.2452575   6.1905616  70.9996796 101.6438198  71.0001040  81.4365005
 102.1424866  71.5272760  82.0607281 100.8418751  70.7688713  81.9051552
   3.2007487  54.4972706  83.8869190   3.7929328  55.1915216  84.1759872
   3.0687984  54.6678829  82.9543400   8.7833770  79.6641302  52.4668837
   8.4323962  80.5384445  52.6360512   9.7260364  79.7991037  52.3698807
   6.1689647  70.3377104  61.5714407   5.4109080  70.2103233  61.0010386
   6.9241508  70.1778269  61.0054350  82.8818989  95.5154705  47.1446753
  83.6170673  95.0271702  47.5152493  83.1462288  95.6987572  46.2431383
  28.6489956  24.0086120  60.5548954  28.0478279  23.6653369  59.8938465
  28.7949363  23.2737296  61.1506128  62.7108288  46.7708594  -0.0077647
  62.3011494  47.4027545   0.5830843  62.8393746  45.9890944   0.5294019
   4.2784111  14.4496482  42.3329496   4.8890201  14.6380752  41.6202879
   4.7475568  13.8313048  42.8931236  93.7256813  75.9059620  35.5344200
  93.7892151  76.6500235  34.9356103  92.9077625  76.0505629  36.0101652
  86.8182945 100.4126549  50.1910448  85.9856415 100.4450321  50.6620789
  86.6514206 100.8872604  49.3767118  99.6821308  91.5853691  78.7248278
 100.2114391  92.3336029  78.4487581  98.9398003  91.5811348  78.1205463
  23.2950203  10.5274146  50.2902794  24.2095749  10.7897609  50.3951311
  22.8626434  11.3033526  49.9336243  17.4508182   3.9671081  75.5608177
  18.2367126   4.5062201  75.6500530  16.7300884   4.5965426  75.5364227
  53.3417320  93.9447021  87.5364494  52.4357891  94.2525578  87.5633049
  53.4905863  93.7181187  86.6184425 101.5160998  91.8876810  22.2573042
 102.0154842  91.8503494  21.4415503 101.5426238  90.9926266  22.5955439
  83.1105526  41.8514629  13.9135343  82.9253634  41.5144445  13.0369741
  84.0454682  41.6895343  14.0398103   9.2719022  91.5417761  87.4200249
   9.5903818  90.7197566  87.7929688  10.0568525  91.9695277  87.0778084
   9.9438993  73.8090069  65.5054617   9.8013250  72.9044826  65.7842827
  10.1209966  74.2847092  66.3169861 101.0894998  99.0691362  31.9045186
 100.5281432  98.9909903  31.1331511 101.7935618  99.6565727  31.6298437
 104.0312227  92.4429322  54.2709446 104.6084007  92.1666200  53.5590792
 103.5479315  93.1872416  53.9122438 104.8983582  44.2838205   2.2529489
 104.4330700  43.7234457   1.6318876 104.7113951  45.1750512   1.9580156
  96.5262850  67.8914458  65.8352709  96.7268785  67.8028519  66.7670155
  96.4893087  68.8363750  65.6870222  79.3386157  81.5754182  22.5706720
  78.8895925  81.0984642  21.8727279  79.9418988  80.9354097  22.9483891
 108.0483397  94.8656804  56.0164547 107.2839721  95.0962234  55.4884148
 107.8812345  95.2686597  56.8684626  48.2041502  31.8661594  76.3306046
  48.0608225  32.8122091  76.3567257  47.3506451  31.4886427  76.5433121
   6.1314678  45.0265980  64.9507856   5.8300060  45.3857803  64.1163158
   6.4493930  45.7867908  65.4378796  20.4593507  75.8297617  61.2587357
  20.1782648  76.2711913  62.0602131  19.6864454  75.3454930  60.9683418
   4.9416963  82.1698601  68.3433771   4.4311182  81.3757283  68.1855917
   5.6660215  82.1167440  67.7198744 106.0721954  72.4640328  63.9675331
 106.4058741  71.6792566  64.4022942 106.6984924  72.6324517  63.2635307
  41.1534691  39.6351242  26.4241743  40.7473564  39.8207545  25.5775070
  41.0991335  40.4625034  26.9024205  30.9858418   8.5254562  66.5266085
  30.1982403   8.0306923  66.3005018  30.7297325   9.4423020  66.4264441
  42.1408550  78.2503850  58.7550688  42.2604600  78.3189017  59.7022915
  42.5238840  79.0553600  58.4064436  53.8081638  77.5319225  66.6771841
  54.2703144  76.9493348  67.2798777  54.3481056  77.5361330  65.8868217
  94.5460518  76.6963131  53.1261396  95.4752215  76.5714914  53.3192539
  94.5334538  77.0884068  52.2530174  12.7868644 100.5693606  33.6532903
  13.7398712 100.5114336  33.5850716  12.4826995  99.6704424  33.5281420
  99.4659861  96.9604490  57.7199936  99.5928796  97.0929990  58.6594391
  98.7368306  97.5375492  57.4930191   2.6789415  11.4775050  38.8518381
   3.1532723  12.2476041  39.1651893   2.6629621  11.5769649  37.8999519
  19.9238054  87.5172503  50.6529713  20.0354806  88.4013278  51.0024929
  20.6450740  87.4121172  50.0325251  29.2869854   6.3000256  79.4244099
  29.4069648   5.4448593  79.0114594  30.1629329   6.5483463  79.7198439
  63.5566521   9.8927611  50.0714588  64.4164228  10.2618682  49.8695040
  63.7421799   9.0017915  50.3680849  38.1923056  17.1889162  14.9479127
  37.9810548  16.2659764  14.8072410  38.4485650  17.5104153  14.0835035
  29.0065503  14.1233087  14.3177640  29.2283702  14.9354744  13.8623357
  28.2663012  14.3572056  14.8777235  46.1548424  26.6646385  26.7894030
  45.2191973  26.6792989  26.9908738  46.3866806  25.7359600  26.7957258
  25.6668464  88.8938970  48.4417772  26.0744993  88.8851292  49.3077850
  25.8313266  88.0187053  48.0907536  70.9492007  85.0430889  53.2754946
  71.6458265  85.6685943  53.0762768  71.3503454  84.1853077  53.1357574
  54.3943167  42.0796394  66.1990070  53.5843277  41.9543505  66.6934347
  54.9970198  42.4817038  66.8245697  27.1265578  10.8761430  54.4704676
  27.3586607  11.7811096  54.2621517  27.3400664  10.3853691  53.6768770
  16.8755221  14.6922302  64.3082285  17.4021292  13.9537036  64.6140003
  17.2927964  14.9613857  63.4898949  39.8006797  11.9379783  69.3756580
  39.8314786  12.7190113  69.9281693  39.8048949  12.2774029  68.4806681
  68.3940029   1.6567127  46.2925625  68.8620424   1.0833569  45.6855774
  67.6761150   2.0197168  45.7738161  35.2699280  10.4308975  48.8907337
  35.5133629  11.0349512  48.1892443  34.3343830  10.5832362  49.0240765
  56.9235802  18.6181939  44.2330217  57.0915174  19.1025686  45.0413561
  55.9875631  18.4201074  44.2625666  99.8800619  88.0686481  78.1548977
 100.7816442  88.3817226  78.0816460  99.7024830  88.0678279  79.0954828
  25.4803872  19.8409569  66.0856676  24.8633766  20.5696893  66.0187340
  26.2440491  20.2134299  66.5264797  26.3693372  89.5344669  21.2144828
  26.5394870  89.4773132  20.2742624  27.1801940  89.8842508  21.5837979
 103.6345180  86.4647157  54.7861814 104.0859707  86.8953330  55.5121231
 102.9516085  85.9412760  55.2055597  26.6623632  79.1771037  23.0636454
  26.3776247  78.2670719  22.9799819  26.3664238  79.4415457  23.9346933
  17.4354116  81.1634881  48.9261961  18.1651346  81.6870505  48.5951138
  17.4848310  80.3447277  48.4328175   4.2631713  79.5194752  67.9933834
   5.0978414  79.0717489  67.8551912   3.8836376  79.5942289  67.1178293
  65.9161504  46.7979056  15.2962339  64.9899872  47.0029933  15.1681983
  65.9182932  45.9049565  15.6410050  53.0849858  44.3264766   6.9499952
  53.8108786  44.3746920   6.3279134  52.9473074  43.3889307   7.0852071
  71.8695688  20.4926229  72.5359392  72.4056149  20.3164315  71.7627335
  71.4814186  21.3512635  72.3676920  41.0162163   9.7635239  40.5457306
  40.5781889   8.9698839  40.8531380  40.9586048  10.3701282  41.2839365
  75.5099591  22.4948610   5.2355081  76.0740860  22.5096597   4.4623548
  75.0529178  23.3356418   5.2146513  39.5787477  24.1179132  43.0463505
  39.3871117  24.9395514  43.4984779  38.7188244  23.7427878  42.8565025
  37.9950468  99.9100315  54.0710640  37.8384296 100.8526826  54.0152836
  37.4582807  99.5362850  53.3721876 104.3806942  51.7444447  -0.0064295
 104.7069939  52.4988662   0.4840833 103.4685620  51.9608445  -0.1998824
  99.6070488  86.0162336  52.4304342  99.0965422  85.7132608  51.6795540
 100.5129774  86.0124011  52.1213818  30.7717029 100.6796866  63.0884743
  31.3335935 101.2874467  62.6077080  30.0226585 101.2100263  63.3603239
 107.4856446  47.3552990  45.4006672 107.5340904  48.2033873  44.9594975
 107.5647854  47.5645828  46.3313484   4.6266691  86.2202293  29.9367905
   5.2339164  86.9580574  29.9924254   3.8796608  86.4837904  30.4741430
  73.6938233 101.2903849  70.7175493  74.1772496 100.6927695  70.1471233
  72.8250650 101.3505095  70.3202152  69.2630196  24.9726939  45.8307552
  69.9265432  25.6438637  45.6710625  69.0642357  25.0496602  46.7639160
  28.2558513  48.3600903  50.1198959  27.7183032  49.1133642  50.3645468
  27.6738620  47.6071024  50.2224922  76.8800601  56.8258197   1.0167009
  76.4013251  56.2452347   1.6082841  76.2172755  57.4342038   0.6898767
  29.3574691   0.8521387  42.1553707  30.2055478   1.2953623  42.1320152
  29.5741749  -0.0742075  42.2609758  42.4256754  28.7405252  49.3127680
  42.6785374  29.0779686  48.4534550  41.6963005  29.2979884  49.5838451
  16.1139242  51.7998178  62.6686478  16.7167894  52.5171430  62.4731207
  16.5502349  51.3019855  63.3600473  70.4686602  60.0109757  31.6456968
  70.3537901  60.7987381  31.1142236  70.4249009  59.2898919  31.0177213
  36.8751812   3.5621282  79.1704702  37.5499845   2.9727736  79.5074177
  36.0919428   3.0159864  79.1033936 104.5305641  80.3306062  35.9014630
 104.2927488  79.4660122  36.2363625 103.7321695  80.6535728  35.4837418
  11.3937163   9.4056559  63.9809132  11.1892724   9.7159415  64.8630476
  12.2363842   8.9610046  64.0727234 105.3619655  69.2081387  59.7989225
 104.4321760  69.4227297  59.8742533 105.4028877  68.5657985  59.0904331
  30.1934043 100.9258929  70.1698446  31.1196128 100.9490225  70.4103327
  30.0546161 100.0394813  69.8363113  68.1478691   3.3413723  27.2008705
  67.3868132   2.8646466  27.5321698  68.0176926   3.3714068  26.2530398
  29.1612855  97.1913335  69.8448420  28.7857954  96.3215811  69.9818420
  28.4155027  97.7378900  69.5972109  23.2042877  96.4310385  66.9919825
  24.0788738  96.1789913  66.6956711  22.8885261  97.0350636  66.3199091
  51.3208667  91.9103313  37.3835230  51.9263069  92.0921166  36.6647506
  50.7027046  91.2756056  37.0212650  37.1838355  19.0041554  49.7970963
  37.7955651  18.4582841  50.2911043  36.3439250  18.5513127  49.8726892
   2.8649086  15.2447724  36.9698501   3.4918308  15.9588635  36.8546343
   2.0464513  15.6805933  37.2073793  30.6849790  27.6555228  59.1527033
  30.7442999  28.5796809  59.3948746  31.0620451  27.1879530  59.8979759
   2.6539127  97.0946104  83.9122677   2.1615330  97.8142334  83.5173798
   2.7259580  97.3325510  84.8366261  23.0193377  18.4095871  65.1492405
  23.9363480  18.6701763  65.2353621  22.5660419  18.8978064  65.8365488
  63.2499218  13.3523321  48.6213350  63.8273239  13.9890099  49.0426207
  63.8392782  12.6689053  48.3022404  49.5871067  27.7023387  73.5236406
  48.9074707  27.8921485  72.8768778  49.8271751  28.5588360  73.8772058
   9.7264568  92.1051217  61.2941408   9.0598957  92.2098989  60.6152058
   9.8408071  92.9842014  61.6552162  51.1234760   3.0683225  48.6167288
  50.8730030   2.1449929  48.6477137  50.4220772   3.5225528  49.0835762
  59.8042822  23.5072803  67.0759058  60.5138254  22.8768110  67.1995640
  59.0169144  22.9689717  66.9952202  21.9863216  94.5766348  64.0474224
  22.2122470  93.6910410  63.7629700  21.7288105  94.4754893  64.9637699
  72.5363432  96.3801468  39.9175167  73.1045433  95.6836910  39.5883822
  72.1671936  96.7802394  39.1301870  28.9416194   4.3012777  66.5258312
  28.9793587   3.7385353  67.2992182  28.4307003   3.8004681  65.8899212
   9.6764652  69.4620306  54.6423197   9.4178525  70.1747782  54.0580750
   9.5761053  68.6704952  54.1135216   1.3787676  11.9439113  60.1371479
   0.8862159  12.7505064  59.9853897   0.7435570  11.3458812  60.5309725
 106.9482692  98.7811611  44.5742893 107.4921974  98.6482615  43.7979412
 107.5740131  98.8630796  45.2939844  22.5433564  46.9404650  24.5853877
  22.8527832  46.1792183  25.0762963  23.1264949  46.9902134  23.8279533
  13.6702196  85.9606571  85.8148289  14.0987627  86.5915067  85.2363777
  12.8485910  85.7490427  85.3716946  32.6002836  13.1295228  60.9366798
  31.8687725  12.8897643  61.5055704  33.0441380  12.3010802  60.7552719
  74.7477113  91.7378587  60.8739662  74.8296665  91.0507972  61.5353727
  74.5075970  92.5204653  61.3700533 103.1452545  92.2066332  79.5402288
 103.2407626  93.1511141  79.4174862 102.8876003  92.1090830  80.4569244
 106.8874248  82.1809358  53.5883093 107.8182801  82.0185632  53.7411880
 106.8388446  83.1125600  53.3739519  57.1148920   5.7325906  74.5895195
  57.8485250   5.6559306  73.9794922  57.0461130   4.8665950  74.9914551
  79.9113512   2.8674942  74.3147230  79.7803020   3.7053281  73.8707733
  79.6452188   2.2110775  73.6708927   2.7572624  99.3082909  39.3499947
   2.5589983 100.1653332  39.7273540   1.9716112  99.0772451  38.8544154
  29.0479374  14.5379674  64.6402597  28.4066415  14.0822148  65.1854753
  28.5284019  14.9374473  63.9425993  27.5287151  17.4767649  65.1354694
  27.7424335  16.7713094  65.7461166  26.7330217  17.8704858  65.4933643
  64.3755086  92.9067058  76.9561672  63.8957592  92.1286733  76.6720247
  64.4773205  92.7934701  77.9011774  96.7464765  93.9835215  49.4554234
  96.8217882  94.7638018  48.9061308  97.2397931  94.1992236  50.2468395
  21.8104068  77.1997792  40.9992743  22.6596252  76.9743139  40.6194925
  21.1741582  76.7334730  40.4570770  52.4053049  26.1217570  77.7245045
  52.0287323  26.8413162  77.2178888  52.3558950  25.3655672  77.1397305
 106.9671448  64.5717938  41.6763783 107.1311386  65.2459223  42.3358345
 106.5858920  65.0467951  40.9379673  38.5173750  26.0575938  65.2551460
  38.5027790  25.1041985  65.3391647  39.3692923  26.3160133  65.6068373
  48.1004524   1.3786158  62.3001194  48.6196375   2.1207033  62.6099300
  47.6291561   1.7172095  61.5388918  57.4291277  23.0929446  40.3552628
  58.0534267  23.5097146  39.7613072  57.7685022  23.2814145  41.2302113
  53.0231667   5.5013990  71.5342188  53.5671806   6.1923224  71.9122458
  52.8056145   5.8201396  70.6582546  43.5048620  98.7003417  19.0926754
  42.8979055  99.4341023  18.9955616  44.2910186  98.9757899  18.6211693
  13.5664523   1.5323803  48.9492989  13.0382073   0.7357236  48.8990307
  13.8426542   1.5792578  49.8645878  49.6360445  12.4597824  50.5995369
  48.9541149  12.6852119  49.9667788  50.1669407  13.2529342  50.6722784
   2.4699632  85.2787883  40.2911425   1.7936341  85.1130147  40.9478998
   3.1967417  85.6571288  40.7859993  33.0740873 100.5836697  86.1748314
  32.4993745 100.9418076  85.4983139  32.8099863 101.0346054  86.9767857
  49.9854203  77.5647534   6.6128713  50.4084917  78.2957376   6.1624128
  49.4963869  77.1111168   5.9263593  30.6991092 101.2027881  42.8046989
  30.3581802 102.0948173  42.7392673  30.4829732 100.8014303  41.9630194
  83.5390759  22.9175115  84.6371651  83.0259132  23.6731362  84.3509197
  83.1240940  22.1695423  84.2075539   7.6189271  94.7516549  57.9952049
   7.5458614  95.6975681  58.1222582   7.8605024  94.6516246  57.0744085
  41.1176252  40.2720261  71.1542177  41.4026451  41.0800934  70.7275677
  41.2596035  39.5910597  70.4966784  28.7441254  37.5581884  42.7143621
  28.3790112  37.1977901  41.9062567  27.9900336  37.9270577  43.1742668
  39.8381448  14.9203229  75.3538084  40.3228331  15.6646311  74.9969959
  38.9516187  15.0238240  75.0079918  62.8576946  21.1297011  18.8971567
  62.8721523  20.6777382  18.0535018  62.4988365  20.4857588  19.5077240
   6.0930769  97.3641241  19.2590666   6.7976944  97.6749379  19.8275197
   6.0485689  98.0125672  18.5563767  59.4170284  20.0145173  66.5198851
  58.5583210  19.6725142  66.7686701  59.7587633  20.4101086  67.3217297
  19.6970057  26.8408608  56.2554169  19.8935401  26.1663771  56.9055510
  18.9305913  26.5076137  55.7887411  48.3600903  37.5391340  47.6536608
  48.7389898  37.6606679  46.7830896  49.0644979  37.7765107  48.2567310
  13.2331888  93.3888239  79.6555996  13.4901325  92.5175227  79.3538618
  13.4667055  93.9711589  78.9327002  35.9616319  99.6971270  72.3016644
  35.4314271  99.2541585  72.9641581  36.1302797  99.0250982  71.6412354
  42.9056120   9.0593767  62.3863411  41.9802284   9.2639446  62.2519779
  43.0381250   9.1574204  63.3292389  51.6459552 100.1789825  40.5845690
  52.3129646 100.3766920  41.2420225  51.2479488  99.3620510  40.8853102
  22.7996437  94.9697614  83.4948730  22.5194303  94.7879536  82.5978470
  23.4815876  95.6350929  83.4025764  45.2819204   4.3666619  63.6950779
  44.5407867   4.8187131  64.0983200  45.6905985   5.0278348  63.1364489
  11.0417406  81.9260723  68.4946966  10.6454555  81.4745695  67.7494907
  11.4827339  82.6831157  68.1091595  26.4683008  46.4477587  62.6755810
  26.8752313  46.5688944  61.8176985  25.6443644  46.9318151  62.6203442
  50.8403492  38.0731869  27.6606226  51.2790537  38.2499933  26.8284512
  51.4944601  37.6079774  28.1821132  39.9742866   3.8307849  46.6068602
  40.3816795   4.6961373  46.5690851  39.7050023   3.6532867  45.7056332
  99.3939074  75.3642692  12.2420961  99.6196230  74.4495095  12.0732767
  99.9740275  75.6260981  12.9570276  56.6637611  14.9989450  27.8685546
  55.7330942  15.1189518  28.0574536  57.0627260  15.8416510  28.0851340
  49.8992205   4.5023456  43.5796881  49.4994164   4.0336466  44.3122911
  49.5436478   4.0759891  42.7999306  71.9375753  27.7364635  71.3361597
  72.1863699  27.6942563  70.4128218  72.2510767  26.9114232  71.7066431
  91.0857781  48.0752857   0.2432043  91.3853558  47.4214311  -0.3884333
  91.5090998  47.8262104   1.0647756  33.1435005 100.9802006  64.9143791
  32.8308813 100.7606544  65.7920456  32.4037496 100.7821382  64.3401241
  52.3321390  29.3339753  60.4651642  52.6539183  28.4706402  60.7246685
  52.0229721  29.2143846  59.5671988  58.4914589  20.0989580  50.4303169
  57.5898647  19.8011804  50.5515146  58.4449768  21.0498905  50.5293083
  38.2493949  17.2352350  64.1053152  38.7786961  17.8895271  63.6492729
  37.4522114  17.7030802  64.3540192  74.4409704  29.2791915  75.8102560
  73.8205194  29.9223852  75.4673672  75.1234770  29.2245340  75.1413584
   9.8159210  88.7848765  15.3160250  10.3002731  88.3152289  15.9950435
   9.5867244  89.6215601  15.7205772  42.6935092  98.4706322  55.0870609
  42.9416648  99.3869234  55.2097845  41.7379323  98.4863830  55.0336027
  71.3183880  34.8566937  23.7568307  71.6134214  34.1167974  24.2876244
  71.2661219  35.5875516  24.3727422  22.2566692  93.5570157  44.5829725
  21.7767946  93.2890935  43.7992859  23.0371133  93.9977390  44.2469597
   8.7886755  94.4245894  15.6269467   9.2682640  95.1341910  15.1995242
   8.7561838  93.7283111  14.9709189  41.6210747  25.1341414  62.7058315
  40.8345747  25.4561639  62.2654343  41.4168930  24.2253971  62.9265690
  78.8424301  26.3080287  60.5767632  79.5630598  26.9208980  60.7227516
  78.1546736  26.8384719  60.1744556  17.3524189  32.1283507  53.0277491
  17.3485446  31.4844561  52.3194981  17.1753943  31.6169953  53.8173103
  32.9393744  10.8457243  41.8554926  33.5301948  10.6657910  41.1242008
  32.9209161  11.8006289  41.9191265   4.7511479  46.2693882  62.0659018
   3.9064324  45.8339167  62.1801519   4.6629491  47.0928621  62.5458384
  15.6928579  91.3714654  32.2802973  15.5480615  90.4798121  31.9637227
  15.7117311  91.2870640  33.2335806  35.1938319  27.4882627  40.5149364
  35.6489205  27.8676033  39.7631216  34.7837758  28.2363176  40.9491062
   1.9841949  77.8873498  44.8915577   2.4025766  78.7406332  44.7771263
   1.0630409  78.0422933  44.6825075  65.0075722  28.6650181  32.4220419
  65.1843882  29.2233539  31.6649222  64.0580082  28.7080002  32.5347829
  17.0313287   7.5324702  60.4391146  17.0646226   6.6064137  60.6789923
  16.8046117   7.9826677  61.2528419  24.6903411 100.5405531  35.6934142
  24.3541948 100.3930547  34.8094010  25.2729169 101.2949315  35.6053638
 107.0859202  17.9615736  44.7759438 106.9008286  17.1325290  45.2171469
 106.5232770  18.5982847  45.2166986  49.9091768   6.5086317  65.1128912
  50.5817747   5.8649898  65.3355360  50.3237009   7.3553425  65.2786732
  52.4209166  35.3492522  68.2803011  52.5746346  35.5896854  67.3666286
  51.9084549  36.0752392  68.6360455  44.7844648  18.0154455  68.1037903
  44.5981884  17.4216247  67.3765278  44.0166855  18.5851479  68.1505156
  75.3926373  33.2834172  71.2340975  74.9840021  32.8495669  71.9831085
  74.7573805  33.9473510  70.9660053  36.4842772  16.2750041  54.5858002
  36.3962126  15.9750199  55.4904985  37.2776794  16.8104899  54.5871782
  42.0143700  23.1244731  49.5632267  41.9840574  24.0669322  49.3986511
  41.9272375  22.7271104  48.6967707 103.7101364   6.1095607  22.9615235
 103.8901329   7.0101672  22.6918149 102.8070068   6.1302692  23.2779813
  31.2428451  48.4844971  70.2345848  31.1227560  47.9399920  69.4565630
  32.1420121  48.8054466  70.1658535  96.9304951  88.9272840  66.3336229
  97.3068627  89.1937608  67.1724176  96.1321791  88.4543795  66.5687466
  24.0273611  98.3653719  57.6430798  24.1604272  99.0243889  58.3244181
  23.8218872  98.8715795  56.8570995  59.5942259  12.0401096  52.1012449
  58.8102722  11.6529083  51.7117310  60.2827215  11.8899012  51.4534426
  19.1075603  58.8935811  39.9189639  19.7309486  58.3297879  39.4609761
  18.9802925  59.6376283  39.3303800  50.2151004  80.1273710   8.3481491
  49.8376552  80.7422669   8.9771760  50.0650207  79.2653591   8.7362754
 105.5975493  83.1963999   7.0105094 105.4246434  82.2561330   6.9632381
 106.5518673  83.2660265   6.9848025  79.9441870  82.9341663   5.0121099
  80.5102976  82.4689712   4.3961984  79.6249827  83.6904205   4.5197565
  65.2647646  96.9062866   1.2801820  64.5413073  96.2863029   1.1882001
  65.0705179  97.5967707   0.6463510  46.6909361  43.7404346  28.7609673
  47.6004791  43.7677383  28.4639597  46.2002659  43.4265137  28.0014086
  62.0722314  82.8599984  44.9552822  61.5896805  82.0877416  45.2502298
  61.7427142  83.0253954  44.0719414  46.7083979   5.9476733  39.3971825
  46.2957382   6.4469546  38.6924434  47.6453638   5.9946543  39.2071342
  59.6515846   3.3989388  37.0072532  60.5859137   3.5499194  36.8642020
  59.2412281   4.2434096  36.8209529  50.1550055  41.4999485  86.1636066
  49.8108864  42.3219299  86.5131187  51.0676765  41.6939449  85.9500027
  58.2635641  26.2265730  32.0918465  58.0674219  25.6814766  32.8538346
  57.4453592  26.2477946  31.5955377   8.8452093  93.0661196  39.4102621
   8.4654895  93.0714685  38.5316181   9.4363538  92.3132736  39.4111347
  44.2369699  37.9632735  47.5100708  44.1192484  38.7730098  47.0133829
  45.0419378  37.5820875  47.1594191  48.7427521  27.4573660  53.4206676
  48.1344509  28.1947303  53.3707285  49.4797230  27.7169800  52.8677607
  55.6322527  25.6624794  62.4201488  56.5869951  25.5949903  62.4322081
  55.3270054  24.7744894  62.6059675  29.5377628  96.7910267  48.3814049
  29.3529216  97.4745936  47.7373552  30.3984539  97.0192809  48.7326145
  49.7338772  25.0040627  29.7048330  49.8939896  25.9464669  29.6551180
  48.8490629  24.9299788  30.0623918  50.9773159  12.5532317  38.8344622
  51.4380503  13.3900452  38.8952899  51.0552454  12.1727610  39.7093344
  48.4040976   9.9323219  52.7649736  47.7346992  10.3447473  52.2190428
  48.6269474   9.1248930  52.3016930  67.7275276  28.9099717  46.1243010
  67.4669552  29.2468548  45.2670670  68.4710169  29.4558120  46.3802576
  36.7945051   6.1420453  48.3916140  35.8832264   6.3926595  48.2399702
  36.9566154   6.3705426  49.3068933  49.3051291  27.6238966  22.1184158
  49.5865107  26.7968106  22.5095510  49.2460346  27.4378324  21.1813354
  54.0535355   3.5042012  60.5396461  54.8713160   3.9322630  60.7930803
  53.6370039   3.2728627  61.3698387  65.8101368   1.2549944  68.2445908
  65.9712791   0.6256650  68.9475918  66.6799068   1.4563268  67.8993416
   6.0677330  90.6989450  50.1090002   5.1940147  90.3407247  49.9523687
   6.3630620  90.9950859  49.2480040  44.9732637  28.6410904  59.6242285
  45.5192471  28.5175633  60.4006767  44.8023176  29.5825624  59.5989466
  45.6665325  35.1932716  49.8721743  46.5498829  35.2929473  49.5172262
  45.7152653  35.5778790  50.7473516  16.3520900  84.7262675  21.5203261
  16.2600938  85.4637391  20.9170818  17.2781984  84.4896073  21.4698148
  71.6589880   2.8760213  72.4213266  72.0763016   2.0178998  72.4968910
  72.1098709   3.4193695  73.0676317  17.8475086  90.2701897  27.7477884
  18.4788028  89.6287806  27.4217629  17.1913091  89.7474987  28.2086873
  96.9705160  93.1793822  59.2406654  97.1660002  92.9914201  58.3226871
  96.6197522  94.0699685  59.2333651  88.8223362   3.0030820  54.3992567
  89.3364334   2.2130054  54.5657158  88.1321049   2.7179706  53.8004875
  21.9207374  96.9343401  73.6113453  22.3803417  96.2114299  73.1842613
  21.1790124  96.5196366  74.0519047  52.1304893  20.6377769  50.9647226
  52.6028252  21.3963914  51.3077021  52.5299168  19.8877001  51.4052677
  50.2870893  31.8831706  61.7578506  50.4703093  31.8050194  62.6940966
  50.1342630  30.9838605  61.4678144  11.4738822  29.1287231   3.9126077
  11.1063254  29.1001773   4.7959641  12.3372614  28.7246203   3.9992598
  21.5188360   9.4738585   4.1900522  22.3784399   9.5638663   4.6014005
  20.9584189   9.1207988   4.8810751  33.9046526  12.1511769  37.4269485
  33.6137319  11.3872814  36.9288921  33.6320996  12.9004395  36.8972778
  53.0967351  80.4395546   1.3863451  52.8440269  80.8646597   2.2058851
  52.7141651  80.9900464   0.7030946 107.6207169  87.1045460  11.3320142
 107.3611315  87.9657592  11.0046560 107.7374514  86.5739669  10.5439168
  94.4656237  98.1697930  57.5351906  93.8028773  97.6777381  57.0505476
  94.0276106  98.9850927  57.7794552  59.5585155  24.1621900  20.9425926
  59.7224808  23.5919213  20.1915002  59.0148830  24.8682570  20.5930686
  18.5364000  72.3092396  39.8789549  18.3532182  71.8770678  40.7131624
  18.0440275  73.1290299  39.9207139  17.9558651  87.0310421  71.4850998
  17.4125759  87.7120418  71.0884857  17.7071611  86.2286944  71.0261679
 102.5722965  84.2509014  57.7757120 102.1439918  84.8285527  57.1439648
 103.2854565  83.8443763  57.2834015  62.0835018  36.5525031  73.4129524
  62.5198030  35.7617116  73.7300014  62.4528933  36.6969514  72.5417948
  65.9872675  25.0164056  33.8621068  66.4715385  24.9066162  33.0437779
  65.1312113  24.6250749  33.6881709  11.5052692  85.6795473  76.5422392
  12.0822374  84.9555106  76.7853737  10.7792894  85.6264026  77.1638203
  87.6448441   4.7140366  63.3858919  88.1955147   4.2786974  62.7351379
  86.8050098   4.2578891  63.3326769  63.9042091  19.0300381  46.2484980
  63.1117344  18.4981203  46.1758566  64.0062618  19.4271231  45.3835440
  10.3654854  80.1714291   0.8811742  10.0479309  80.8986248   1.4165002
  11.0677997  80.5514134   0.3533441  69.7623587  22.5364017  41.3029575
  69.7149801  22.5338984  42.2589827  70.6687498  22.2987747  41.1074495
 107.6855334  99.9537150  27.0676160 106.8592175 100.2662752  27.4360442
 107.5203832  99.0353809  26.8540287  23.5943151  27.3205590  82.3039913
  24.0289974  27.4231768  83.1506062  24.3063378  27.3445058  81.6647148
  55.3343916  30.1333284  53.1477451  56.0924196  30.1547456  53.7318373
  55.6749058  29.7790241  52.3263121  48.5611868  19.5599353  60.0475359
  49.3694353  19.0910852  60.2552509  48.6059666  19.7075868  59.1028500
  61.2223864  17.6873410  72.6862574  60.3582525  17.6854670  72.2745514
  61.8270302  17.4758911  71.9749784  41.9842339   1.0518490  63.1489229
  42.3348856   0.7280282  62.3192167  42.7401543   1.0749918  63.7356758
  75.0169182  12.3993254  57.6091909  74.4303656  12.8613591  57.0102644
  75.8805847  12.4732435  57.2031736  58.1282330  33.1777048  42.7741623
  57.1750927  33.2357502  42.7078867  58.2848644  32.3837900  43.2854319
  44.2064619  27.2646022  85.8327866  44.8711681  26.5758467  85.8293438
  44.6940184  28.0688882  85.6548977  21.5408134  12.0668185  66.9461298
  21.3828754  12.1767795  67.8837824  22.4691749  11.8419564  66.8843651
  56.9690132  21.9984078  75.1232481  57.5245476  22.7765274  75.1695681
  57.2522306  21.4576793  75.8605623  11.1375213  24.4486642  34.5731068
  11.4442718  25.3192234  34.3196106  10.3486633  24.3106127  34.0488195
  70.0170946  22.6733279  75.9076595  70.5484009  21.8813872  75.9899950
  69.5832300  22.5835276  75.0591755  80.1568564  74.0083851  23.9104253
  79.4270524  73.4587873  23.6248285  79.9197634  74.8899473  23.6225587
  20.4696409  96.1005361  70.1353645  20.3803245  95.9210695  69.1993952
  21.4084331  96.2351579  70.2649117  94.1511726   6.8858641  77.6050520
  94.1067886   6.4100653  76.7756701  93.5809898   7.6439828  77.4770689
  65.2866348  63.6017252   8.4828359  64.5835598  62.9524340   8.4644681
  64.8434170  64.4294871   8.6688501  82.2227192   2.2169551  79.8564482
  81.9190025   1.5276238  80.4470539  82.2553539   1.7982182  78.9963198
  17.4488461  12.0613825  67.8991413  17.8238332  11.7227197  68.7121153
  16.6415036  12.4976945  68.1712866  41.6727257  13.5293162  71.3013840
  41.2675858  12.9132605  71.9117689  42.2767210  14.0391672  71.8412638
  66.5875999  96.0680295  55.7042122  67.4641506  96.0491622  55.3201151
  66.1070816  95.3838546  55.2381182  87.7087840  90.2663697   4.7608644
  87.2792300  90.2807630   3.9055807  86.9988879  90.4050936   5.3877813
  37.6205492  29.2362094  60.3070831  37.6359940  28.4633207  59.7426033
  36.8612790  29.1031957  60.8745766  18.8464061  90.4267211  36.2112784
  19.7469608  90.7501323  36.2365651  18.9317647  89.4753272  36.2728906
  52.4729776  16.1346745  57.2367620  51.7139578  15.9022617  57.7716446
  52.4866581  15.4767299  56.5416670  45.5164433  12.1290600  65.3866577
  45.8938313  12.2952616  64.5228386  45.5129576  11.1752462  65.4670238
  34.4850922  10.4810274  39.6029639  35.3971100  10.6235325  39.3496871
  33.9941764  11.1388826  39.1105604  16.8927900  96.4197136  65.3233290
  17.2145645  96.3489587  66.2220430  15.9477846  96.2858970  65.3960466
  24.3364994  86.1325938  57.2174120  23.5766307  85.8470625  56.7101622
  24.6663324  86.8969733  56.7450094  33.8903832  21.3315034  33.0884099
  33.3287239  22.0936441  33.2295156  34.2717743  21.4722013  32.2218204
  53.5037613  11.4714479  72.5681782  52.9696226  12.0700014  73.0903482
  53.3349752  10.6082761  72.9459047  42.8386966  99.2287419  36.4817858
  42.5022499  98.5436127  35.9041762  42.3730556 100.0200913  36.2112689
  18.7907124  22.5769663  44.2737484  17.9626870  22.2303295  43.9414120
  19.1885674  21.8414330  44.7395134   8.3326570  95.9815223  47.4299717
   7.6487390  95.3779627  47.7201557   8.6724369  96.3650651  48.2384729
 106.0764027   9.9950838  11.7596114 106.5829849   9.1997933  11.9242859
 105.9541130  10.0089073  10.8103561   8.1373731  89.9436349  37.3645449
   7.3455612  90.1125736  37.8751588   8.2027046  90.6907076  36.7696953
  57.4941111  16.3719642  41.1708307  57.3715878  15.5581367  40.6820536
  57.9334402  16.1029923  41.9775963  59.2698908  40.4133797  78.1714487
  59.7563076  39.6560526  78.4971571  59.9393559  41.0800886  78.0180025
  89.8133477  78.4533109   1.4424116  89.6825131  79.3678607   1.6928369
  89.1104563  78.2730068   0.8181745  70.9062576   8.8514197  66.6395092
  71.5495348   9.1907990  67.2618055  70.4533434   9.6296811  66.3148499
  39.6236396  15.7862365  78.1629372  38.9016271  16.4108300  78.0935860
  39.8146653  15.5395222  77.2580242  74.7438240  30.4213047  29.6802092
  73.8760519  30.0863099  29.9059916  75.3344250  29.9937749  30.3004026
  42.0204973   5.9259278  25.0102592  42.6593971   6.3146150  24.4127941
  41.9372320   6.5632558  25.7195616  44.2077208   4.6038327  57.7491522
  43.3773947   5.0082177  57.4976397  43.9576817   3.7666744  58.1401491
  64.2018986  21.6765428  65.1603699  63.8116074  22.2460055  64.4973326
  65.0770235  22.0378232  65.3013086  73.6036825   8.3171827  49.1668558
  72.8987122   8.9329350  48.9665985  74.1391134   8.7698048  49.8185253
  24.0188169  47.7445698  62.6426792  23.8519216  48.5836840  63.0719471
  23.2099652  47.2476673  62.7654552  12.3457138  97.2108994  78.0424738
  12.0458929  97.1389682  78.9486599  12.8780881  98.0062745  78.0287552
  32.4345922  22.3906565  61.6028833  32.6306391  23.1620049  62.1346951
  33.2885122  22.0922160  61.2898636  71.3404465  21.3586283  64.7668982
  70.9705019  21.4778042  65.6416368  71.2591362  22.2180414  64.3533373
  69.1228533  19.8264205  34.0739083  69.0446615  19.2057109  34.7983646
  69.6629190  19.3725991  33.4269094  83.5351714  45.1487483   3.1607706
  82.6527985  44.8163487   3.3255655  83.5528143  46.0042824   3.5896951
  20.1161901  75.7904393  39.6392727  19.3481485  75.5526979  40.1587200
  19.7571270  76.0893638  38.8038373   2.2374709  11.4988267  35.8110046
   1.9371780  10.6283152  35.5497289   1.4739116  12.0626807  35.6874371
  42.3905134  16.9043195  55.3497887  42.2131348  15.9919584  55.1209497
  42.8816414  17.2473669  54.6032381  52.1251535   5.1157498  66.2312603
  52.3371315   4.2696476  65.8370399  52.7424669   5.7279509  65.8308029
  96.8490791  44.2857623  84.1454521  97.2119617  43.9566403  84.9677807
  96.2419081  44.9764460  84.4110298  68.4417725   6.5865666  80.2039528
  67.7667952   6.4587736  79.5373869  69.2371655   6.7758107  79.7061825
  29.9148885  96.6401834  82.0007229  29.4800941  97.4463267  81.7226601
  29.4919054  95.9509892  81.4885426  61.9599152   1.1434944  44.2556667
  62.1067810   0.9760561  45.1865911  61.0900927   0.7836970  44.0819073
  63.6712122  21.5318656  32.7737284  63.6583948  20.8908319  32.0629930
  64.5951843  21.7615581  32.8724647  48.6074638  19.8122299  57.1790409
  48.7378120  18.8750994  57.0340347  47.8201437  20.0249028  56.6779089
  33.4978000  93.8961733  78.3469486  34.2247335  94.5177830  78.3843803
  32.7136222  94.4449890  78.3372307  50.7520676  15.1175475  33.1329870
  49.8674726  15.4793918  33.0802155  50.8175802  14.5338821  32.3771596
  56.3146591   8.3735114   6.7283839  57.0965147   8.1835908   7.2469038
  55.5852795   8.1107277   7.2897929   6.5618841  82.6089997  45.1669359
   6.1139671  82.0214505  45.7755280   7.2549955  83.0122358  45.6896496
  50.9066478  98.5443611  61.3442087  51.4805500  99.1378490  61.8286085
  50.0885479  99.0310589  61.2438774  69.7417688  30.3370428  36.5566850
  69.5923376  29.3970394  36.6581559  69.9985123  30.6343484  37.4295664
 107.0756515  65.9961540  47.5140381 107.6452287  66.6761310  47.8738260
 106.1889799  66.2946136  47.7164459  53.6652517  15.8403468  71.9716311
  53.8014364  15.6417203  71.0452223  53.5387230  16.7888045  71.9971466
  54.8989534  16.1812735  51.3303137  54.7003412  15.8865595  50.4415321
  55.6641006  15.6670058  51.5878105  87.6460131  29.8947562  26.7027742
  87.8259476  29.4554151  25.8716089  88.0638417  29.3405951  27.3619825
  91.9559916  88.5986466  46.5189409  91.9522198  88.5131247  45.5655766
  92.3564633  89.4527669  46.6812134   1.9246468  40.9453440  52.3828888
   2.7645558  40.4927015  52.4596834   1.7313993  41.2440205  53.2715273
  55.9111214   6.9097537  52.5991678  55.5301476   7.1376687  51.7511415
  55.3156996   7.2967201  53.2410097 107.1455868  72.8080709  61.5133953
 107.3946484  72.1173460  60.8993101 106.2239559  72.9796059  61.3199902
 108.2715877  67.1758444  52.4399281 107.4556049  67.2222693  51.9416809
 108.0405196  67.5037009  53.3090353   8.8842050  88.9562900  47.6972485
   9.5636312  88.5565419  48.2402182   9.2579881  89.7940881  47.4241018
  26.2411022  34.7829318  40.2842712  25.7100844  34.9121261  39.4984198
  26.7281580  35.6012034  40.3814173  31.5430212   7.9522187  61.0962343
  31.2257290   8.4342611  61.8599033  32.0751286   7.2460443  61.4628553
  72.7795156  41.0135080   3.0867273  72.8574046  41.7947592   3.6342794
  72.6321586  40.2997960   3.7073213 102.9707201  70.3070552  32.3010921
 103.6149653  70.5991680  32.9459572 102.4501165  71.0877378  32.1120453
   4.3897817  41.9393635  50.3279352   4.2493203  42.8245211  50.6640863
   4.4775152  41.3966942  51.1115456   2.0730940  77.4913294  68.0888462
   2.7659360  77.8600175  67.5408745   1.3083021  78.0377538  67.9078865
  74.7424364  25.1344562  60.0816154  74.9503374  24.8719192  59.1849089
  73.9017534  24.7151613  60.2651358  41.1192656   9.6482384  56.8804979
  40.4597330   9.9163568  57.5203133  41.5160894   8.8641006  57.2598219
  54.5719910  19.3331397  42.2903109  53.8121557  19.8729777  42.0724583
  54.3514204  18.9384782  43.1340075  44.7207975  39.3777609  29.5666265
  45.6090546  39.6835542  29.7502732  44.2681932  40.1484919  29.2240548
  37.5576536  77.9944808  15.7067752  37.3644392  78.5708363  16.4461780
  38.2093994  77.3806817  16.0454702  52.8812551  24.5412803  73.5230827
  52.8655767  23.5864925  73.4569883  53.6991930  24.7363019  73.9804411
  80.5373955  18.2649076  67.0337391  80.9210300  17.9631317  66.2103367
  80.5700302  19.2198896  66.9773722  38.4116936  34.9238610  44.4072485
  38.8411283  34.6400332  45.2142525  37.8852344  34.1709661  44.1385078
  62.5761747  12.9458821  65.2424002  62.0495272  13.6509347  65.6189251
  62.5834322  13.1279659  64.3027067  28.6521983  26.5858960  75.5391693
  28.5098386  26.6465592  74.5945644  28.3652472  25.7019472  75.7683563
  27.1331048  24.1153121  79.5292807  26.9255686  23.1820202  79.4831419
  26.9687080  24.4412613  78.6444283  88.0587061  44.7281553  19.3847353
  87.4415549  45.0621821  20.0357133  88.6751421  44.1974266  19.8892767
  43.6738968   1.6484384  52.1609640  44.2211914   1.8194661  52.9274178
  42.7847862   1.5876928  52.5102854  39.3873835  19.7975254  38.0954719
  39.3448186  20.3732038  38.8590264  40.2741289  19.9162292  37.7551508
  18.4156887  94.6373356  59.8075056  17.8193180  94.4135679  60.5219984
  17.8693143  94.6100307  59.0220356  23.7036220  94.8492426  21.4602661
  22.8374187  95.1126195  21.7710137  23.5273973  94.1829968  20.7959652
  60.0825500  28.2823515  52.2876787  59.8148727  29.1537571  52.5796270
  60.7970047  28.4450626  51.6717958  50.3368092  41.3308144  71.0343933
  50.1919603  41.7322636  71.8911839  49.4651747  41.2834311  70.6416512
   9.1349260  98.7419555  32.1759677   8.9675752  98.7183825  33.1181288
   8.2709495  98.8633347  31.7822075  35.7491485  89.9955124  58.9373112
  34.8155443  90.0423188  59.1432905  36.0691730  89.2493827  59.4443655
  48.0245972  24.1944432  34.2519331  47.9064798  23.6114955  35.0019026
  48.9394712  24.4708443  34.3051720  61.8920803  24.4729114  40.6345415
  62.3320627  23.8863611  41.2498522  62.4764919  24.5077395  39.8772573
  60.0115633  26.1480546  46.9843864  59.5593023  26.7301321  47.5950241
  60.4367542  26.7377567  46.3617373  87.7428818  20.2839947  26.5603447
  87.6705647  19.3412042  26.7091632  86.9118595  20.5264330  26.1518693
  34.6566192  53.2920959  12.9076654  35.2457420  53.2262377  12.1561128
  34.6683876  54.2204492  13.1405908  48.5162441  92.2784514  23.5582113
  48.0418388  91.7189533  24.1731405  49.3229286  92.5100822  24.0184736
  84.2546034  72.7128404  79.0395897  84.4724274  72.7508681  79.9708992
  83.5070324  73.3029788  78.9441722  60.1391363   0.1960590  52.7260828
  60.9903526   0.5596935  52.4822903  59.5816803   0.9620963  52.8626823
  55.1621771  27.9083776  58.5762739  55.9836483  27.4293280  58.4670734
  54.7089148  27.4486184  59.2829609 102.9160078  99.7715148  80.4268742
 103.2012518  99.2575432  79.6714258 103.6519130  99.7285201  81.0374641
  40.2339983  24.1382265  24.6694183  40.0431061  25.0725484  24.5867395
  39.3751001  23.7159896  24.6538568  70.4638767  16.6401482  34.9960232
  71.0281515  15.8704579  35.0695419  70.9074545  17.2025549  34.3610668
 106.3638782  47.1137365  79.3163877 106.1212683  47.3579135  80.2095562
 106.6850281  47.9260235  78.9248740  62.7693653  28.8902283  66.1740255
  62.8278875  29.7081375  66.6678190  63.5776663  28.8611436  65.6621313
  30.8112001  19.2985880  66.9668722  31.5095496  19.7266352  66.4715767
  31.2643814  18.8488126  67.6800060  35.8917999  30.8522224  42.7693605
  35.3353572  31.1378431  42.0447731  36.4812660  30.2070785  42.3787785
  94.9956989  12.7707922  57.0332479  94.6003056  13.6320662  56.8987179
  95.6570053  12.7006614  56.3447809  65.5407524  18.5734022  53.9062595
  65.1977730  17.7751160  54.3079233  65.3594685  19.2609274  54.5471001
  46.3114405   6.5923363  61.8958139  46.9889307   5.9892815  61.5899420
  45.8138371   6.8128532  61.1084175  96.9908714   2.9179767  86.6059494
  97.3813057   2.9300463  87.4798203  97.4734211   3.5858321  86.1187744
  82.9065522  62.7379919   7.0571405  83.4082468  63.1142761   7.7802927
  83.5023364  62.1052433   6.6560251 102.8365087  72.4485653  87.8567534
 103.1308651  72.4499815  88.7675682 102.3546314  71.6269463  87.7620549
  53.9679480  18.2271981  44.5636082  53.9703083  19.1115510  44.9298668
  53.5306644  17.6941359  45.2275801  76.8844414  22.2155285  57.6684475
  76.2376404  21.5373063  57.4737835  77.7288008  21.7727900  57.5831890
  52.6149893  42.4118280  69.7152853  51.8999052  42.0608950  70.2460670
  52.3150873  42.3100090  68.8119984  25.3916645  56.7340708  32.7017498
  24.4729376  56.8075180  32.9601622  25.3840375  56.8569899  31.7525053
  39.7446704   7.4467117  41.2884665  39.9807954   6.5814394  40.9541273
  39.8465991   7.3728400  42.2373533  41.2375402  47.0681810  54.0558910
  41.4612961  47.7524376  53.4250546  40.2824306  47.0972443  54.1120672
  56.3803005  11.9977891  51.3373804  55.4678583  12.2037899  51.5404797
  56.3521004  11.6313779  50.4535341  43.9321653  91.7240650  36.4452505
  43.5697404  91.8573488  35.5693984  43.2018844  91.3747556  36.9560385
  43.4145308  16.2299430  26.8023419  44.3298769  16.3559628  26.5523648
  43.4155416  15.4222286  27.3159862  63.6658716  25.3026485  43.3738518
  63.4708643  24.4329906  43.0247164  64.0955830  25.7600665  42.6511145
   0.3806774  85.5829777   3.0100709   0.2433435  85.5359973   3.9562017
   1.3170664  85.4207887   2.8956300  69.5751953  25.6320071  83.1572056
  68.7473869  26.0657406  83.3641911  69.9677563  26.1778140  82.4758625
  46.6383410  27.3584557  23.8235855  47.3916006  27.0229506  23.3375096
  46.6405916  26.8615580  24.6417046  19.7294188  29.0670061  31.0013294
  19.2413509  28.4362912  30.4719710  20.1821208  28.5325837  31.6537762
  90.6602383  17.0449352  38.3478451  91.5974617  17.2360241  38.3842087
  90.3206444  17.3507285  39.1889143  60.4340029   3.0186749  79.6729898
  60.3485775   3.3307675  80.5738449  59.5436525   2.7770811  79.4177628
  47.6541615  33.3569717  64.2560339  48.4181690  32.7843571  64.1879034
  47.2470570  33.3171344  63.3906364  85.7495880   7.4002546  25.2998018
  86.1073494   8.2843852  25.2188420  85.4679489   7.1737522  24.4134569
  65.4091024  39.2837811  19.8671055  65.6531334  38.9469290  20.7292032
  64.4525576  39.3148041  19.8840618  36.2204552  34.1221356  37.7685714
  36.2734914  34.7553802  37.0527387  36.9224262  34.3777776  38.3669996
  72.6693535  31.1400914  75.2436399  71.7341423  31.1509991  75.0399303
  72.7811193  31.8342686  75.8931446  36.0365701  17.4212134  44.0119314
  36.2633777  17.2537935  44.9266768  36.6185904  18.1336010  43.7473774
  14.1309679  47.2092867  53.0904913  13.8116598  46.5039587  53.6533260
  15.0758708  47.2277212  53.2423210  37.4244070   9.7921985  38.3007693
  36.8114495  10.1811159  37.6768637  38.1201386   9.4247371  37.7556467
  61.4119959  26.5529990  63.6892986  61.4662981  27.4337196  63.3183336
  60.6539726  26.5852451  64.2729044  33.5269332  40.7746887  62.6489687
  33.2168865  40.9026289  63.5454845  34.4582510  40.9929514  62.6841784
  52.2476625  26.9477129  26.3834000  51.3359022  27.2203970  26.2805891
  52.7507114  27.7578759  26.3008904  25.2081633  28.9824343  35.8587813
  26.1517406  28.9619923  35.6991720  24.9871325  28.0838466  36.1035609
  65.9952974  34.7685242  87.6985931  65.8240223  34.0877438  87.0478725
  65.8770561  34.3297648  88.5410595  63.1823254  34.4820571  75.0394583
  64.0848112  34.6156621  74.7497940  63.1872988  34.7343612  75.9627914
  24.4359199 101.1848759  17.9946411  24.6604482 101.8878912  17.3850608
  25.2620594 100.9707660  18.4281015  19.5963613  99.2133597  67.1593571
  20.2012531  98.9962787  67.8687334  18.7642137  98.8227964  67.4262285
  43.4885359  40.1774549  58.2589436  44.1259718  40.8914995  58.2658339
  43.8637781  39.5157862  58.8399935  61.0905313  30.3079987  84.2775440
  61.6789198  29.5537567  84.2435932  61.3464689  30.7758379  85.0724411
  48.8088274  32.9629350  38.8105989  48.5984612  33.8783097  38.9951658
  49.5535040  32.7688432  39.3798256  73.6546707  11.4129150  62.9656601
  73.9513922  12.1070802  62.3771667  74.4604492  10.9907734  63.2635689
  47.0451117  17.3689878  49.3731785  46.5590858  16.7264533  48.8563061
  47.2622967  18.0625808  48.7502909  79.9274111  21.7647362  48.8313866
  80.4688072  21.6873169  49.6169615  80.0640488  22.6642585  48.5340261
  32.8206778  29.9190044  37.1953440  32.8276587  30.6654811  37.7944708
  33.5363698  29.3609548  37.4996448  61.5472404  93.9384622  67.7488804
  61.7954628  94.6986122  67.2227716  62.3156063  93.7616081  68.2916260
  40.3342152   9.8517352  62.9525423  39.4809079   9.7502816  62.5308752
  40.1466322  10.3283322  63.7611818  57.2263145   5.1446992  27.4918699
  57.7510405   4.7075486  28.1625390  56.9172239   5.9461308  27.9142475
  55.8606577  12.1186566  56.4468336  55.7879257  12.9926205  56.0632563
  55.1443481  11.6227198  56.0503769  87.5781441  24.8253226  86.8488598
  87.2494793  23.9685893  86.5764332  87.4476051  24.8415184  87.7969837
  20.3919125  17.4869645  53.3804989  20.6340671  18.2464528  52.8506231
  20.6350684  16.7328703  52.8434229  31.8360519  34.8597121  55.5697489
  31.9967461  35.7719564  55.3284645  30.9737563  34.6634173  55.2034903
  99.3353210  29.5877957  67.5722170  99.0736161  28.7990546  68.0472183
  98.6921297  29.6676731  66.8678331  64.5147689  92.5382770  10.9141618
  63.6109694  92.7995743  11.0905248  64.5156392  91.5877499  11.0269720
  53.0715895  21.4798355  67.0549393  53.2707119  20.7521939  67.6441050
  53.8444567  21.5530133  66.4949799  35.4490757   2.6815564  35.3855497
  35.6136465   3.0974442  34.5392686  36.2546969   2.2014720  35.5771905
  48.8252687  17.6131678  67.9197836  49.3443537  17.5995910  68.7238979
  48.1174183  18.2311976  68.1020498  41.6607189  29.2490435  33.5239720
  41.1144686  29.1488385  32.7443576  41.4747477  28.4702158  34.0484476
  47.7965307  12.2986841  82.5844288  47.3476839  11.4591730  82.4844837
  47.1753740  12.9440522  82.2469425  41.4079571  36.2610865  73.4829521
  42.1679640  35.7664061  73.7894058  40.8222580  35.5981612  73.1172752
  65.0101995   3.7623671  67.3837137  65.0961733   2.8965712  67.7827597
  65.8992863   3.9901963  67.1119547  36.6353416   3.4488010  68.2613230
  36.2138081   3.1938452  69.0820169  36.1641359   4.2344889  67.9840279
   8.7833587  98.4217570  46.1423969   9.7323362  98.2969026  46.1516476
   8.4271900  97.5694648  46.3933420  18.2140819 101.6189131  70.1995230
  18.5067121 101.4677313  69.3007755  18.0468933 100.7430237  70.5475140
  60.3192186  23.1113267  51.9238567  60.1547909  22.2835040  52.3754168
  59.6481705  23.7051582  52.2604418  51.9272137  35.1867008  28.6053061
  52.7510118  35.2281237  28.1196380  52.1316576  35.5726504  29.4570565
  29.5092583  28.5167408  63.2503414  29.0563941  27.6766181  63.1772804
  30.3719711  28.3578992  62.8672838  89.7837885  81.6795887  15.2317506
  89.0649661  81.6125788  14.6032316  89.5107468  81.1312069  15.9672529
  50.0180531  28.1192732  48.9626694  49.9490404  28.2822347  49.9033689
  50.9438419  27.9215026  48.8211346  40.0681400  28.1388521  56.4200497
  39.6341991  28.9032412  56.7990398  40.9721470  28.1990027  56.7288780
  73.6444092  10.8155715  38.1453991  73.2854319  11.1986101  38.9458036
  73.8049173   9.8989487  38.3696103  64.0797043  30.0084853  74.4526100
  63.7736797  30.7934809  73.9983368  65.0333977  30.0461602  74.3799162
  53.7608528  31.9437504  38.9381099  54.2138481  32.7838278  38.8653183
  53.8526869  31.7011619  39.8594928  96.7910290   9.8586857  38.9465523
  96.7034626  10.1029825  38.0252051  97.7213669   9.9767804  39.1382742
  93.2877064   8.9154285  84.0292835  92.4940300   8.5513383  84.4213963
  93.4498501   9.7207677  84.5205784  49.1149036  93.4422226  14.8190999
  49.9888031  93.6987770  14.5246279  49.0783016  93.7228627  15.7335031
  68.0845920 100.4071712  37.0043898  67.3808376 100.8296518  36.5119791
  68.3446304  99.6637026  36.4604497  77.9541874  28.7321067  18.5834813
  78.4266853  29.1977096  19.2735493  77.8019714  29.3939447  17.9089212
  67.6243591  14.3775630  51.5891695  68.4147167  14.8228741  51.8945599
  67.4158192  13.7551105  52.2858000  14.3220417  89.7990550  27.4788839
  13.4371940  89.6464385  27.1472532  14.3267433  90.7219066  27.7329618
  74.7884560   2.4221623  57.6831818  75.3308582   1.7395666  58.0782700
  73.9390278   2.3332052  58.1153679  53.5108423  10.4424632  45.1520109
  54.0348196   9.9388963  44.5290327  53.0611324   9.7803462  45.6769800
  70.6137991  27.8014731  47.7108049  71.1831617  27.5634527  46.9790888
  70.4943371  28.7471724  47.6235390  74.3069792   2.5308871  32.1074700
  74.4861555   1.5909921  32.1344042  74.2630816   2.7927944  33.0270934
  83.3517647   4.8356828  65.4710436  83.6601353   5.3819531  64.7480488
  83.9059162   5.0829357  66.2113237  57.6673698  29.6354556  54.5010567
  57.7783489  28.7142634  54.7362566  58.3393383  30.0940561  55.0054121
  60.0746441   1.7923295  75.7921743  60.8357239   1.3820612  75.3814793
  60.2773285   2.7278242  75.7914829  55.4559374  20.0827384  66.1250353
  54.7431707  19.5583665  65.7600307  55.9013414  19.4918525  66.7322445
  83.9919186  28.7639427  37.6565504  84.4614983  28.3636594  36.9247746
  84.6768856  29.1720581  38.1861567  21.5912906  95.1317055  53.3582067
  22.5402776  95.1912714  53.4682178  21.2645666  94.8884059  54.2244005
  70.0120592   7.9584289  77.6770926  70.6331968   8.6263943  77.9673338
  70.5535698   7.3022896  77.2383690  20.0096178  21.4386344  76.6042948
  19.0964174  21.3523579  76.8778849  20.2371931  20.5772710  76.2543011
  54.5089436  10.9007716  19.1653311  54.4086456  11.2496018  18.2796168
  54.3717718  11.6560376  19.7371614  37.7082419   3.8697818  42.1077156
  37.0620418   4.2628199  41.5210533  38.3938050   3.5435301  41.5247965
  14.4350807  91.9668395  58.9618921  13.9355318  91.3961823  58.3779144
  13.7976448  92.2605015  59.6127939  82.6224518   9.9419725  31.6205812
  82.9954815  10.2759624  32.4363852  82.9272175   9.0359336  31.5711379
  79.4272041   6.9294244  57.0142365  79.0406990   6.5116113  57.7838326
  79.2259789   7.8592306  57.1200705   8.7968580  88.5536892  40.7109356
   9.4288246  88.0501349  41.2240458   8.1362192  87.9125995  40.4486465
  56.5141392  19.0664589  40.4021120  56.8477488  18.1692982  40.3959370
  55.8853436  19.0832186  41.1236095  51.7016697  29.4341111  55.1146460
  52.4274015  29.0289760  55.5894184  51.1282158  28.7030673  54.8845148
  94.9595261  28.6320162  76.4222860  94.1323090  28.1671309  76.2964773
  95.0234318  28.7551379  77.3693848  87.3545512  89.4731177  33.3182794
  86.9209488  90.1667847  32.8212434  87.4988993  89.8536314  34.1846544
  42.7860776  97.1860180  58.7416935  43.6515609  97.0531813  59.1283798
  42.6241580  96.3887519  58.2373333  37.4959993  36.4808655  79.9888420
  37.7385163  36.2391424  79.0949774  37.1498752  37.3698950  79.9109983
  13.6254867  27.6235056  62.6567698  13.9221652  27.8967857  61.7887068
  13.0020412  28.3001328  62.9208136  85.3730392   9.6036595  48.5113859
  84.9280453   8.8449574  48.8889885  86.2667656   9.5501453  48.8499355
  71.8856001  38.7359357  50.7299805  71.3322306  39.3869734  51.1614513
  72.6641321  39.2236614  50.4611969  91.8966103  54.5983171  57.7705812
  91.1466217  54.3656826  57.2231913  91.5250015  55.1355553  58.4702349
   4.9253448  15.8150482  77.0958424   4.7798713  16.3337278  77.8870678
   4.2099746  15.1790845  77.0914555 100.1469231  36.7072368  32.6853132
 101.0516453  37.0138931  32.6247263  99.6799946  37.4225426  33.1172204
  93.5469913  20.3025913  50.8878374  93.1493092  19.8643589  50.1354837
  93.1168270  21.1569977  50.9222603 104.5380402  47.0811939  50.8778811
 105.2943420  47.0511961  50.2919292 103.8002110  47.2927856  50.3059864
  71.4857435  34.0049744  49.6344519  71.2235737  34.2428398  50.5237865
  71.4508724  34.8276377  49.1463518  84.9237919  46.2295771  66.6245508
  84.9987984  46.0890293  65.6806993  85.0249100  47.1750259  66.7347002
  68.5783672  36.8867564  48.7218952  69.3836403  37.3056459  49.0257025
  68.8601160  36.3167381  48.0064011  90.4679108  50.9701490  45.8049011
  91.3966560  51.1206675  45.9810209  90.2897739  50.1075888  46.1797142
  86.9761658  45.7996607  61.6070366  87.9288292  45.7091188  61.6285276
  86.8231297  46.7409945  61.6889095  88.9320850  44.8903084  79.8771477
  88.1775856  45.4708481  79.9768448  88.5506153  44.0266275  79.7197962
  75.9053278  40.5640841  56.7353106  75.2080059  40.2209139  56.1765575
  75.7962322  40.1012373  57.5660372  76.5933037  26.8570185  64.1980982
  76.2379313  25.9691024  64.2374325  76.1284494  27.2690082  63.4698057
  96.6411209  38.5519195  61.2440872  96.6641617  39.0492082  62.0616484
  96.5716362  37.6383781  61.5212965  85.3567123  26.1422777  59.7944069
  84.5086288  26.4549565  60.1093960  85.9283352  26.9083810  59.8451233
  40.9291593  97.4589220  51.6439772  40.7934705  96.5816230  51.2859726
  40.1763240  97.9628263  51.3348675   8.1422408  40.1319599  27.1857786
   8.1591590  39.2283750  26.8703675   7.7462753  40.6283045  26.4694834
  64.0835754  94.8042501  27.4483377  63.4376232  94.9832882  26.7650301
  64.9004261  94.6543564  26.9723875  89.2497444  34.8940849  80.0892353
  88.4669685  34.5231104  80.4965019  89.8717594  34.9911618  80.8102798
   9.5255168  51.3599682  53.4449959   9.6070274  52.2883701  53.2266808
  10.2308829  50.9361267  52.9560661  84.3779755  50.9881163  75.3698254
  84.3192768  50.8927488  74.4191980  85.3074837  51.1428308  75.5380774
   7.3965637  69.2596067  13.4362871   6.9899122  68.7889267  14.1638357
   7.5620596  70.1369978  13.7812978  82.1924210  57.4020386  35.6048942
  81.2814331  57.1092939  35.5796862  82.3123264  57.8825855  34.7857928
   6.9081481  14.0485597  34.3949485   5.9975799  14.2801619  34.2120337
   6.8836768  13.6491954  35.2645111  14.9371425  94.7761597  10.1806146
  15.1419441  93.9927257  10.6910211  15.7492248  95.2828707  10.1833517
  96.9060421  20.6147885  80.3912640  96.1598587  21.2046480  80.4985237
  97.4068165  20.7123399  81.2011719 104.0164757  44.6972752  43.0281734
 103.2330608  45.2330971  43.1522560 104.0379333  44.1234303  43.7939882
  65.5063725  20.9516430  61.7278004  64.7028971  21.4458704  61.8902636
  65.8325768  20.7312751  62.6003027  93.7740612  24.7341776  69.4655991
  93.9832115  23.8187432  69.6512413  94.2508793  25.2287316  70.1321507
  75.0086109  98.7885929  47.9628372  75.4232112  99.6229307  47.7432394
  74.8492519  98.8410360  48.9052200  87.5716972  56.5295792  50.3977966
  87.5802517  57.0690346  51.1884594  88.1426716  56.9933033  49.7852707
  83.9802170  45.0036192  15.3495562  83.8740253  45.5506516  14.5712817
  84.5316410  44.2773867  15.0584412  88.6963558  30.0778627  43.9086008
  89.5679760  30.2004051  43.5324526  88.2023716  30.8467269  43.6238956
   1.0806163  35.7257795  60.1067781   0.6554015  35.0551724  59.5722580
   0.3587611  36.1742377  60.5472898  95.1079941  43.9895916  35.6248426
  95.0956249  43.2592964  36.2435055  95.9746838  44.3810368  35.7336783
  73.0311632  44.9992752  21.4398575  73.8144159  44.4521332  21.4980578
  72.4775457  44.7025967  22.1621609   3.4336360  19.3512380  43.6760902
   3.5209163  19.8887479  44.4632959   4.3007453  18.9652109  43.5522985
 107.0505866  73.0183972  29.2990572 107.5970133  73.8023342  29.3546754
 107.6745471  72.2930850  29.2701704  98.9886856  18.2388234  54.6530008
  98.2680988  18.8509250  54.8023748  98.7618446  17.4696755  55.1756716
  89.3803024  45.2245235  75.9156561  89.6969509  44.4340897  76.3528967
  89.6486282  45.9405613  76.4914322  84.9069214  45.8581066  69.4936895
  84.2684746  46.5691566  69.4386053  85.6076527  46.2075138  70.0442600
   2.3123820  95.7809353  68.6699724   2.9515441  96.3806343  69.0547752
   2.4441417  95.8642101  67.7255487 104.2075253  62.5008965  55.7501173
 104.7224331  63.1824207  56.1821222 104.5691204  62.4522591  54.8651791
 102.4137115  62.4656725  81.4028358 102.6576710  62.8288174  80.5514622
 102.3661232  61.5210629  81.2555695 104.5489502  96.8867779  57.9103756
 104.0762043  96.4556217  57.1984434 104.2359829  97.7911949  57.8924894
  77.8367901  80.1138115  60.8718300  78.0830097  79.4902849  61.5550709
  76.9142914  79.9267244  60.6979799  56.9059944  77.8420162  41.1853075
  57.4967670  77.0909882  41.2417173  57.0855618  78.3480453  41.9777203
  44.4569206  94.2728806  61.9263506  44.1059065  95.1583290  62.0212936
  43.7561941  93.7023258  62.2420645  84.1708183  20.6922626  74.0609741
  84.7955227  21.3122630  73.6846924  84.5946121  19.8390436  73.9679623
  93.5447025  70.6571150  44.8817205  93.9581394  71.2398767  44.2447805
  93.9367962  69.8004818  44.7123909  13.1868060  44.8563433  68.4721518
  13.9869769  44.7182894  67.9652977  12.6151450  44.1313791  68.2194471
  28.2665435  97.4536146   0.9952146  28.8270466  98.2260002   1.0692483
  28.8447849  96.7695202   0.6577474  84.5770741  18.3402610  43.9768171
  85.1403046  18.9313924  44.4763851  85.1248837  17.5738788  43.8071299
  96.2091637  56.3414097  44.2097378  95.3117180  56.1051607  43.9751863
  96.2730980  56.1417150  45.1436901  33.5213653  87.7759058  44.0321732
  32.6370851  87.9203124  43.6953831  33.6723033  86.8380410  43.9144564
  72.8626490  75.8454323  47.7604580  73.7168217  75.4634905  47.9622984
  72.2565603  75.1050949  47.7885675  76.2292337  50.2153397  51.3716412
  75.7468224  49.6977472  50.7269669  77.1440458  49.9639559  51.2445402
  77.6846743  34.2437696  63.4633112  78.4106970  34.5339561  64.0155077
  77.2886896  33.5202193  63.9490080  10.4229824  68.0616154   0.5291826
   9.8020641  67.8709353  -0.1739138  11.2833969  67.9766990   0.1184351
  84.2133141  43.2055712  54.8428583  85.1407719  43.0666590  55.0345755
  84.0443802  44.1068840  55.1173210  93.5102749  69.0448475  63.7089968
  94.2134285  68.5018206  63.3527231  93.1014156  68.4976625  64.3795633
  25.5608837  78.5942306  10.0906164  25.4895298  79.0590228  10.9243566
  25.1246635  79.1664256   9.4593221   2.5726112  73.9103079  68.9263296
   3.3650001  74.4472122  68.9167976   2.1835502  74.0727425  69.7856760
  71.5621138  65.7128572  87.4691105  72.5104952  65.6122160  87.5508118
  71.2851620  66.0670376  88.3141422  98.0945015  99.5985508  45.8523750
  98.9958763  99.9152946  45.7939196  97.9335499  99.1769886  45.0082111
  83.1228447  64.0773964  56.7792082  83.9682579  64.4049406  57.0861578
  83.2322693  63.1270885  56.7449856  97.9712868  17.6378131  25.2931976
  97.1481705  17.3623252  25.6966996  98.3566093  16.8281400  24.9582410
  98.6620903  61.7784595  68.8925552  99.4038296  61.7704678  69.4975281
  99.0621758  61.7729139  68.0229950  77.8051996  77.7692461  51.1476517
  77.6783752  76.9260788  50.7126570  78.3900452  78.2537508  50.5650377
  86.7625713  47.7619791  48.5649538  87.0527172  46.8873024  48.8237715
  85.8480930  47.8035021  48.8446712  79.5748997  48.4557199  48.9962244
  79.6084070  48.6994171  49.9212790  78.8079500  48.9157009  48.6549950
  68.9345503  50.1192999  24.8244095  69.5955944  50.2423143  24.1431427
  68.3915663  49.3990612  24.5040131 102.5301361  45.9956646  56.5569592
 102.8910828  45.4991817  57.2914314 101.6394424  46.2147570  56.8306398
   0.2925761  69.6082497  43.4914017   1.1924060  69.8765182  43.6773539
  -0.1636521  70.4248095  43.2881355   0.7413085  41.3221407  34.6164322
  -0.0982396  41.3668823  34.1588497   0.8322795  40.4010630  34.8604989
  68.8307667  27.3204041  78.9741468  69.4391870  27.3933458  78.2387972
  68.2217360  28.0490661  78.8542891 103.0007553  43.7429905  64.0278435
 102.1255779  43.6638975  63.6483192 102.8491688  43.7893343  64.9718237
 104.8548698  16.7271817  53.1821156 105.1801872  16.1155057  52.5216150
 103.9181137  16.5396082  53.2415438  74.8446274  29.4582033  83.2433224
  74.3841076  29.5544457  82.4097252  75.4439545  28.7252331  83.1026268
  71.5921974  73.6502266  75.2590275  70.7040167  73.3156967  75.1346779
  71.5817213  74.0381050  76.1340523 105.9133625  34.4905448  29.3269587
 105.0012398  34.2244339  29.2109728 105.8884430  35.4471612  29.3047047
  82.8117371  50.9842730  32.2008729  83.5830498  51.5493584  32.1562839
  83.0962849  50.2309990  32.7184081  97.7943325  52.1464014  71.5016508
  98.2794571  52.3999357  70.7164049  97.4038601  51.3011789  71.2794828
  89.6825981  20.7091761  44.9245834  89.7711182  20.6158638  45.8731031
  90.1227188  21.5349460  44.7230387  67.3424530  67.2152472  32.2915506
  67.5206041  67.6245165  33.1383061  67.2755146  67.9488325  31.6803169
  86.8058681  42.9863358  56.1849022  87.3576927  43.7659979  56.1228991
  87.3357201  42.2868633  55.8024931  86.9980335  68.6212540  63.5667086
  86.5414143  68.4674644  62.7396250  87.8873062  68.3025694  63.4122038
  15.3035720  48.3136797  36.5083313  14.5943912  48.0259752  37.0832348
  15.9668239  48.6639643  37.1030045  88.8802528  59.4358730  54.6310425
  89.7367859  59.7424316  54.3333626  88.7689400  59.8363209  55.4932976
  70.7214785  81.9923496  30.9471464  71.4628553  81.6811848  30.4277539
  71.0642147  82.7473259  31.4254594   0.1652797  71.4701414  17.0581341
   0.9436114  70.9392881  17.2273445   0.0160773  71.3831520  16.1166453
  86.9551468  49.1752481  56.1475801  86.9204426  48.9231443  57.0703316
  86.2558365  49.8214388  56.0493755  92.9645824  82.6732063  45.0379992
  92.4115849  83.3751965  45.3809881  93.1437492  82.1172428  45.7963133
  92.5589275  44.1394424  42.2992945  93.4784222  43.8752270  42.2685051
  92.5860500  45.0941420  42.3628712  82.7748013  57.4820614  56.0472631
  83.7092113  57.3643780  56.2183094  82.4133682  56.5960646  56.0718441
  86.4046764  44.4726658  36.2286949  85.8259869  45.1404047  36.5967584
  86.4493465  44.6822596  35.2957940  97.4309063  38.7122869  37.6149726
  97.8826809  39.4843364  37.9556632  98.0824852  38.2764459  37.0656824
  68.7897921  73.9316368  50.6637192  68.8700438  73.8703871  51.6155815
  68.1155348  73.2906437  50.4384661  86.1333752  43.2218170  47.5387049
  85.2258682  43.0017233  47.7489853  86.0723591  43.7630129  46.7515469
  81.2718868  10.7137239  48.9857101  82.1783733  10.8476746  49.2624140
  81.1410236   9.7673064  49.0440321  93.4106731  76.7279291  64.5949459
  94.1448975  76.7959833  65.2052832  92.9882908  75.8989382  64.8198748
 101.0628700  56.4526939  60.8094645 101.1494350  57.3987627  60.6924295
 101.8444824  56.0875463  60.3947592  87.2421074  67.2637939  56.5501833
  86.5788078  67.8816700  56.8575954  87.5652504  67.6456738  55.7341099
  87.3346043  27.4200344  77.6698685  87.7659607  26.5882778  77.4740505
  87.7533627  28.0507374  77.0841312  98.7753296  47.9899359  11.2061787
  98.4214401  48.8115501  10.8656704  98.6948967  48.0701542  12.1566153
 106.4100075  30.8169031  57.5640726 105.6244946  31.2878442  57.8423023
 106.1758041  29.8922420  57.6439714  79.7600317  77.2876215  73.6935472
  79.1138268  76.6411686  73.4093904  80.4722881  77.2092533  73.0589008
  72.2391844  71.7737627  47.3159981  73.1882572  71.7089510  47.2097206
  72.1220064  72.2191715  48.1551123  82.8533554  89.9101543  47.1947908
  83.0711269  90.0960541  48.1081629  83.6330986  89.4783974  46.8457556
  81.5539360  50.6151247  35.1575661  80.7753372  50.3498268  34.6680403
  82.2873211  50.2870989  34.6372056  95.0255489  50.4315948  36.9269061
  95.7953930  50.9321308  37.1971655  94.3500233  50.6696939  37.5618911
  85.9069729  77.2221041  51.6093588  85.2986336  76.9073677  52.2780132
  85.7469273  78.1647682  51.5646076 100.6775856   1.7443608  68.3833456
  99.9146461   1.9487296  67.8426123 101.3884640   1.6151926  67.7554989
  10.2861198  73.3776045  56.8199205  10.9291061  74.0673256  56.9844866
  10.7803138  72.5628710  56.9105721  88.9312077  51.2444210  43.3630800
  89.0098000  50.2992392  43.2339048  89.3255424  51.4025450  44.2208242
   7.0643790  35.8886814  21.0029888   7.6181110  35.6853628  20.2491474
   7.6199802  35.7134604  21.7624855  24.9529536  79.3059540  40.9215069
  24.3835052  78.5366392  40.9111691  25.7350619  79.0187025  41.3927031
  99.9723721  58.5994053  57.7984095  99.5621967  58.1014299  57.0912981
 100.4877567  59.2705631  57.3510218 101.6052914  54.8896408  47.7881908
 102.1893024  54.2786884  47.3388529 100.8260822  54.3716192  47.9899979
   4.6431629  84.5180906  32.6773626   5.5328743  84.8259272  32.8502256
   4.2250482  84.4983829  33.5381872  84.7364330  72.0694113  16.0910356
  84.2695522  71.9898319  16.9228518  85.2263260  72.8880692  16.1687100
  96.2387371  70.8491039  72.9352379  96.6817284  71.5362501  72.4374247
  96.2160683  71.1804533  73.8329744  74.9041367  50.4065704  53.7031651
  75.1615715  49.6706152  54.2584467  75.3083611  50.2201223  52.8557777
 103.0105305  97.7537251  85.1893902 102.3473167  97.4236870  85.7955742
 103.1160736  98.6746597  85.4280567 106.7785454  71.8996811  43.0944538
 106.0808563  72.3487663  42.6171875 107.2541809  72.6010752  43.5394859
 101.6545486  30.5884910  65.2218866 101.3572884  29.8552179  65.7605696
 101.3944817  30.3524423  64.3314505  65.1132154  47.8137684  27.5729156
  64.1831493  47.5896358  27.5417185  65.5566978  47.0467949  27.2105503
 107.2889709  57.8855944  56.8827581 106.6699696  58.5626078  56.6093969
 107.9961205  58.3669424  57.3122740  93.1089497  50.4242754  68.7017441
  93.0434418  51.2564659  69.1701412  92.4235535  50.4700327  68.0351305
  93.2410622  77.5919390  73.6536837  93.2054710  78.4589243  74.0577936
  92.4666977  77.1396875  73.9884233  79.9091768  48.6984253  55.3625822
  79.3910456  48.2350063  56.0206175  80.8139706  48.6046314  55.6605530
  64.9669456  66.0593462  35.2640533  64.2236137  65.6510592  35.7078886
  65.5272293  65.3256798  35.0109625  99.0429974  27.0786476  68.6623573
  98.7631130  27.4190998  69.5120573  99.2844677  26.1689377  68.8365793
  11.9659321  72.2444238  15.6033403  11.5809337  73.0193318  16.0126382
  12.9050247  72.4281157  15.5787736  72.2379875  44.9405622  57.6999044
  71.8671322  44.2356443  58.2307434  72.0936346  44.6609735  56.7958975
  72.9122066  54.9533463  19.9194515  73.3266830  54.4913673  20.6481624
  72.2076988  55.4582357  20.3256345  93.6140060  46.9168186  41.6892195
  94.4712162  47.2285366  41.9794893  93.0127621  47.6276445  41.9116211
   5.2852519  50.1613855  57.2946167   6.2355979  50.2652311  57.2466898
   4.9707969  50.4335070  56.4324665  71.1012650  52.3261356  54.1250801
  70.4550600  51.6334152  53.9879942  70.5918550  53.0675459  54.4522572
  69.5408630  76.1089754  53.1095839  69.4001293  75.1743889  53.2611561
  69.6653366  76.4773893  53.9842367  77.4157619  64.8493338  35.7039738
  76.7187929  65.1710987  35.1321912  77.1206665  65.0682640  36.5878391
  66.1211252  76.9856262  48.8344288  66.7648840  76.5693140  48.2612848
  66.2019682  76.5173769  49.6653557  69.0072632  50.5075550  54.4611073
  68.1063938  50.2516890  54.2631340  69.2890453  49.8895741  55.1355934
  88.4634209  73.7734652  55.7441187  88.5706902  73.7421560  56.6947699
  87.9335117  73.0035925  55.5373955  96.1884117  71.4116096  68.8922596
  95.3305149  71.8282366  68.9738417  96.0265255  70.6320000  68.3610010
  86.8073845  18.0851793  55.4013681  86.2652397  18.7982094  55.7388592
  87.6758099  18.2501435  55.7685852  93.7920952 100.6783199  61.8209648
  94.4752502 100.0684261  62.0994663  93.8352203 100.6659126  60.8648205
  82.8616428  24.4616342  41.3996506  83.4753513  24.2364144  42.0988369
  83.2962513  24.1727662  40.5972195  74.9870729  46.9495058  76.6197252
  74.3724442  46.2862778  76.3057423  75.5140829  47.1703386  75.8517885
  60.8594227  71.3845301  41.4863253  61.7861319  71.5657616  41.3294840
  60.6067801  72.0038891  42.1710062  10.4124721  72.1637106  39.3958616
  10.9045680  71.7818117  40.1226521  10.4561504  73.1078959  39.5469785
 106.6441154  42.4963140  57.6018572 106.3599586  42.6566505  58.5017347
 107.0857620  41.6478491  57.6377201  93.5144711  67.1329498  55.4028797
  93.7264538  68.0647898  55.4573870  92.6806927  67.1040392  54.9336147
  85.7102871  83.3218098  28.5584378  86.2219048  82.8803921  27.8804803
  84.9708557  82.7358627  28.7201095  77.1569490  75.6049681  49.4647455
  76.9686985  74.6786642  49.3138838  76.7203999  76.0586166  48.7437296
  10.5187114  41.6895056  59.7982740   9.7878059  41.9622993  59.2436647
  10.6699641  42.4351692  60.3790808  93.5147095  66.4013386  18.2641137
  92.8248692  66.4915371  17.6066804  93.6278439  67.2845745  18.6152959
  86.8730640  86.4731598  48.3509684  87.3823929  85.9541416  47.7285242
  87.5121784  86.7595768  49.0034437   8.6332401  75.6421709  61.6425705
   9.1840823  74.8692513  61.7666483   7.8067954  75.4185104  62.0705938
  73.2434940  76.0476828  74.5965385  72.6265812  75.4694271  75.0451708
  73.7700272  76.4279413  75.2996731  95.0985432  59.7186184  36.3444281
  95.6659985  60.4111099  36.0057783  94.2607117  59.8582792  35.9031057
  70.3136921  66.4391851  41.5829325  70.1339006  65.7529640  42.2255945
  69.5433426  67.0063496  41.6162825 104.9973583  58.1727457  30.3920269
 104.9025822  58.9113474  30.9934568 104.8305225  58.5457754  29.5264363
   7.4364837  26.6333532  69.8862791   6.5684589  26.4174628  70.2270937
   7.8709777  25.7866192  69.7838306   1.5171512  54.4077587  75.6799269
   2.4255355  54.3610382  75.3817987   1.0051711  54.4926643  74.8756266
  96.5732861  42.8367472  44.5142126  96.9067287  41.9898415  44.2179012
  96.1506462  43.2114315  43.7414169  93.9075851  39.8151326  70.8107328
  94.5950985  40.4616308  70.6507492  94.0546703  39.1401339  70.1481819
   2.7386649  55.0585985  78.1455326   2.4263747  54.8539209  77.2641611
   2.0474132  54.7382116  78.7249756  84.0827847  31.8081856  46.5515089
  84.2759418  31.4671254  45.6782389  84.9408817  31.9160986  46.9616985
  13.5459789  61.7826700  53.8162136  14.3326839  62.1662617  54.2037487
  13.8581260  60.9952784  53.3703327   3.8121502  72.0562900   6.5193826
   3.1901399  72.7688135   6.6665155   3.8634292  71.9759716   5.5669385
 100.9908581  48.1027651  46.8133307 101.1819363  48.9694023  46.4546442
 100.4491711  47.6814651  46.1460114  96.5303421  43.7735081  61.3043833
  97.4133396  43.8040113  60.9361267  96.0183716  44.3604565  60.7479572
  95.9996414  31.8945694  78.4555721  95.6243896  32.7713680  78.3740616
  96.8373489  32.0327091  78.8976049  92.0114517  99.5418072  36.8138576
  91.3608074  99.9527836  37.3830581  91.5338707  98.8396549  36.3721228
  98.6270523  58.4728527  69.4660616  99.0954399  57.8922462  68.8662767
  98.6348152  59.3247652  69.0296888  89.8164272  35.0732827  56.6613293
  88.9192486  35.0374508  56.9930220  89.7316933  34.9052954  55.7228041
  15.7087890  62.1804203   8.7527734  15.7310764  62.1698929   9.7096521
  14.7898761  62.0271732   8.5328943  86.8653679  52.0606947  40.5138731
  86.8373775  52.7580738  39.8588061  87.5749779  51.4876604  40.2234793
 103.7682629  85.9748173  59.7911310 103.7437153  85.4711723  60.6047487
 103.5270882  85.3447819  59.1120720  76.9507122  23.7957501  60.8123684
  76.1411572  24.3057704  60.8394098  77.5999641  24.3962216  60.4461241
   6.1852630  75.3242445  79.0976763   6.2274631  74.5160913  78.5864639
   6.9257816  75.2647924  79.7012663  19.0850909  52.1543884  77.6581144
  19.1513713  53.1051159  77.5689030  19.1837772  51.9944382  78.5966825
   4.9991687  50.3068399  64.8934889   4.3244632  50.1198149  65.5461979
   4.5270236  50.3313351  64.0611982 104.4321823  36.5822577  34.2505050
 104.9491215  35.9135246  33.8012862 105.0635052  37.0405078  34.8051834
  72.0332813  41.5859556  54.0429974  72.5200939  41.2326050  53.2984209
  71.6272783  40.8200455  54.4489288  88.4438419  57.5666904  60.7838345
  87.5139713  57.4116135  60.6178951  88.8248444  57.6906967  59.9145269
  64.8526525  67.0237684  55.9859419  64.3224669  67.2227669  56.7576551
  64.5629787  66.1527872  55.7144403  68.6257172   6.0900217  42.0152473
  68.6437750   6.0286933  42.9703093  68.6529303   7.0297086  41.8350267
  79.3961430  68.5633802  32.2434282  80.1808262  68.9951420  32.5811958
  79.3356991  68.8541174  31.3334560 103.5308743  40.9728241  82.9816055
 103.0902386  40.7079315  82.1741962 104.1620159  41.6365147  82.7033710
 107.8692722  46.0532808  50.3278732 107.6760101  45.1274252  50.4750824
 108.0363274  46.4050627  51.2022734  85.4051113  41.7567015  51.7526340
  85.6321716  41.1438465  52.4519825  84.4501495  41.8136883  51.7847919
  78.8732433  72.6608372  27.3977518  79.0680265  72.2065258  26.5780616
  77.9361057  72.5201750  27.5327158  88.9642906  43.2598829  52.6968765
  88.5369682  43.7361860  51.9850063  89.6618652  42.7639198  52.2683477
 107.0546818  48.1167459  54.7985363 107.4037266  47.2254562  54.7964478
 106.1530685  48.0201626  55.1051235  72.2094345  63.5675621  56.6312885
  71.6932678  64.2070818  57.1220255  72.3461962  62.8472519  57.2466564
  87.0219803  65.4633999  64.6926308  86.3168430  66.0786295  64.8939037
  87.7465057  65.7371569  65.2550793   2.9029353  85.5857754  57.3931122
   2.6187022  86.4076138  56.9930840   3.0514510  84.9977303  56.6525841
  80.3093624  53.7451696  47.5611067  79.5330667  54.2834377  47.7155685
  80.8294201  54.2489433  46.9350195  87.4565792  65.0602102  82.9210472
  86.9090080  64.7495461  83.6420727  86.8361378  65.2756453  82.2247219
  83.4008598  38.8033342  70.5700541  82.7824783  38.0842113  70.6992769
  82.8501034  39.5589232  70.3651571 102.7878857  20.0895286  69.7044706
 103.6681175  20.3110242  70.0083923 102.2620773  20.0480318  70.5032444
  78.0176687  83.7243176  46.4831400  77.6078415  84.0425968  47.2874832
  78.7212181  84.3496037  46.3091612   4.2928116   3.8098758  52.7485132
   4.0483991   2.8978770  52.5911665   4.4744770   3.8505786  53.6874342
 102.0384693  49.2778826  51.8924236 101.8929577  48.5845232  52.5360966
 102.9860306  49.4133282  51.8963480 100.2575684  59.4076061  38.3176231
 100.6905460  60.2000237  38.6351728  99.4253540  59.3837309  38.7899375
  57.1915619 101.6413416   7.2527963  56.7029754 102.4631800   7.2986394
  56.5186302 100.9610142   7.2762853  66.6504955  86.4315891  60.4731703
  67.5770283  86.4397335  60.7133913  66.4092445  85.5053139  60.4807138
   5.3678878  76.8656445  67.0374775   6.1345752  77.0794344  66.5057611
   5.2710231  75.9175920  66.9477844  13.0335601  67.1410608  42.1145344
  12.9741367  66.2439632  41.7860317  13.3213313  67.0451164  43.0223942
  76.4447832  69.6429634  50.5731487  77.3767519  69.8151302  50.4388857
  76.4229107  68.8753557  51.1445761  82.2008801  63.6109359   0.6307203
  82.1528149  63.5104854   1.5814191  83.0371475  63.2124144   0.3897459
 106.0415173  62.5592756  39.5436287 106.7805195  62.5369215  38.9356780
 106.3630390  63.0603600  40.2931404  82.3019505  81.9681168  73.6877728
  82.7594471  81.6252041  74.4554567  82.9738235  82.4472427  73.2027483
  73.4772730  53.7970257  34.1153550  73.2162952  54.5307112  33.5587358
  73.8634586  54.2084885  34.8885250   2.6693614  32.2009182  29.7329497
   2.7937682  31.8575644  28.8481545   3.3140739  32.9042435  29.8097825
   1.5390762  61.7440557  59.2383432   2.4928363  61.8162012  59.2753601
   1.3785537  60.8666039  58.8911486  58.5125065  45.5483539   0.5035669
  58.2643128  44.8446280  -0.0959319  58.2132912  45.2484424   1.3619119
  96.3290882  57.9661703  71.1100960  96.8986511  57.9866076  70.3410625
  96.7709732  57.3751831  71.7197704 104.8826218  83.7189102  11.3293087
 105.0808048  84.4360161  10.7270527 105.2407360  82.9410458  10.9016252
  86.7687130  75.8534193  31.3935590  86.8760586  76.4674282  30.6671262
  87.6259899  75.8333778  31.8188906  93.2067394  76.1558056  85.0008106
  93.5526657  76.8602562  84.4528008  93.6623669  76.2567520  85.8365440
  88.5017395  41.4277124  54.6062613  88.7361431  42.0512724  53.9189053
  89.3324757  41.0230732  54.8560190 100.3106785  99.9665642  27.0276809
 100.0712776  99.3204498  26.3632631 100.2329540 100.8095646  26.5809679
  12.6642593  66.9119787  53.4885550  12.3834689  67.8097391  53.3113050
  13.5344394  66.8509626  53.0944777  18.3546909  99.9322224  34.0058589
  18.7339385 100.2030659  34.8419452  17.4368079  99.7498989  34.2070675
  98.4294605  80.9545422  86.7816925  99.0619946  80.2403355  86.8594360
  98.6577415  81.3882256  85.9594822  17.7194484  75.9063053  57.4727392
  17.5354751  75.2961731  56.7585039  17.1515639  75.6171799  58.1869841
  75.3349257  71.5485382  35.5588460  76.0769558  72.1025085  35.3164697
  74.7103357  72.1492100  35.9654331  87.6047897  78.8955307  86.6183949
  88.3845997  78.8633919  86.0642338  86.9082069  79.1955709  86.0344601
  41.2748337  35.8529860  10.5195028  41.8138123  36.0801036  11.2772256
  41.8064690  35.2284533  10.0259763  43.6703857  91.1916447  66.7644787
  44.6022208  91.4010334  66.8282938  43.2948859  91.9190121  66.2683249
  80.0614071  75.5518484  41.3843822  80.7836628  76.1715269  41.4872599
  80.1169014  75.2687359  40.4716921 105.6690216  62.0030594  77.8004313
 105.8641624  62.3699617  76.9381428 105.0564003  61.2890863  77.6238728
  77.3173237  80.7808495  51.1155462  77.0740128  80.3913784  50.2756977
  77.1716309  80.0830269  51.7543364   9.1778072  76.1323023  44.9679565
   8.6439975  76.0884523  45.7612801   9.9043353  76.7107773  45.1998091
  10.1341994  95.5721188  38.5432935   9.5394977  96.1530209  39.0177560
   9.7691901  94.6969604  38.6740756  52.7963344   5.3940337  50.3505993
  52.7421657   4.5104926  49.9863863  52.4641220   5.3056281  51.2439346
  84.9157333  44.0990639  60.8644724  85.4131794  43.4068012  60.4290962
  85.5611515  44.7839117  61.0395479  18.8255389  81.5902519  52.7986526
  19.5163615  81.8575859  52.1924067  19.1726478  80.8080196  53.2274294
  77.7225685  61.8964481  47.7094507  78.0351734  60.9965611  47.8027964
  78.5195494  62.4263239  47.6925898  94.3764973  64.2692995  31.0638762
  95.2697945  64.2060757  31.4019036  93.8891888  64.7149706  31.7567968
   2.9349216  38.5328627  68.3463621   3.6369022  39.1647530  68.5018587
   2.1513065  38.9534998  68.7002420 105.5904579  84.4664955  56.9273853
 105.6079865  85.3875542  56.6674232 106.1031151  84.4358158  57.7351427
  56.2233925  42.9244906   9.4791776  55.7270146  43.1558425  10.2642328
  55.7604218  42.1690089   9.1170579  81.6447353  77.7416754  60.1394415
  80.7525063  77.4505615  60.3276300  81.6178131  78.6906719  60.2615547
 107.9697704  53.7562895  53.3838749 107.6379681  54.6512651  53.4557581
 108.0297565  53.5980415  52.4417543  84.5022202  76.1146736  78.7691069
  85.0864983  75.8114290  79.4640160  84.0727139  75.3196430  78.4533787
  98.6037922  73.7407351  32.0761037  98.0819416  74.2874813  31.4887595
  99.3224812  73.4212780  31.5305161  91.5169621  98.8155460  59.3455696
  91.4765930  99.1056538  60.2568531  91.3014412  99.5965290  58.8358164
  -0.2244393  80.4717255  75.4483843   0.2710422  79.6693993  75.6127071
   0.4123862  81.0710239  75.0591183  76.0065079  64.6809769  58.8072586
  75.3282928  65.3514385  58.8893414  75.5704880  63.9519882  58.3660173
  34.2494003  22.4704116  63.9528990  34.4263832  22.1300548  63.0759335
  33.8990394  23.3484500  63.8028479 105.9507275  37.9060078  39.6907163
 106.8566227  37.9215574  39.9994755 105.9809780  37.3894334  38.8854408
  52.5654364  92.6476574  66.1657715  52.4915648  91.7187023  66.3844395
  53.4935331  92.7742481  65.9686708 104.7603607  55.5448151  71.0106516
 104.6344471  55.9164858  70.1375866 105.0897408  54.6606636  70.8493471
  97.7031898  80.5191708  51.5704632  97.1455669  80.6304264  50.8004570
  97.5208759  81.2876225  52.1112680   5.5979331  76.7079353  60.2156115
   5.8338149  75.8007383  60.0217485   6.0426315  76.8998528  61.0412264
   2.9538234  66.2330389  37.6128149   3.2635482  65.4139233  37.2263575
   2.9263576  66.8482685  36.8800306   7.0436938  73.1603432  43.6601734
   6.3620456  73.5364008  44.2170954   7.4075587  73.9093447  43.1881237
  83.2224846  68.6531544  85.2853680  82.8604889  68.9193344  86.1305523
  83.7594986  67.8864908  85.4855633  87.9884434  74.1365814  42.1069908
  88.6606121  73.6216688  41.6605711  88.4224701  74.9622726  42.3216724
  34.9068252   2.2265284  31.0686398  35.7357589   2.0991939  31.5300345
  34.2838852   1.6714232  31.5377235   6.7860397  99.7646618  47.7015352
   6.6783412 100.7157898  47.7010059   7.3383506  99.5857334  46.9405079
  90.3205013  87.1259117  36.1416674  90.3406715  87.1604156  37.0980334
  89.4911194  86.6950512  35.9349775   8.3512099  85.4041767  55.5112171
   9.0189441  85.9575367  55.9163761   8.2311900  84.6826363  56.1286354
 104.2154884  94.0286636  83.2048130 103.5264015  93.9022636  83.8570595
 104.8269176  94.6386433  83.6174965   5.2479156  59.2061710  52.4632549
   4.7312053  59.2843437  53.2652092   5.7488902  60.0206995  52.4207687
  30.2374069  16.1172431  23.0150914  30.8369724  15.4808181  22.6255918
  29.3931953  15.6668036  23.0401778 107.8647327  63.8772869  36.2531233
 106.9614887  63.8888121  36.5697646 108.3972454  63.9444733  37.0456767
  32.2450304  55.8440692   8.1748373  31.6629839  55.2640159   8.6657411
  32.1397114  55.5731589   7.2628290  95.9759903  87.2295475  21.0871291
  95.9175777  87.2925377  22.0404673  95.5737686  88.0376244  20.7686043
  95.7766724  77.6326227  48.5643148  95.9868717  76.9021034  47.9826069
  96.5325546  77.6993608  49.1477680   8.7635501  55.7980394  54.7857141
   7.9418643  55.3709650  54.5435095   9.4061740  55.4485655  54.1683531
  72.2644472  96.2450600  28.5671115  72.6826668  95.7751369  27.8456616
  72.6399612  95.8551693  29.3565392  67.4543810  61.9458246  26.2566590
  68.3537865  62.2732496  26.2663293  67.0138741  62.4752903  25.5919409
  74.7094584  73.1638718  14.6927953  75.1174402  73.0203962  13.8388658
  75.4426718  73.3429050  15.2815032 103.6927509  56.8554735  79.9050570
 102.9162979  57.1387100  80.3878975 104.4180489  56.9973278  80.5133724
  92.4249840  46.9767237  46.1319113  92.1519375  47.5158978  46.8741798
  93.3671188  46.8600130  46.2543917  66.7948580  95.9145546  40.0598860
  65.8393097  95.9559822  40.0978756  67.0688248  96.8219662  39.9265862
   6.9264873  63.7248087  69.1151905   6.2845023  63.9768839  68.4514570
   6.4836105  63.0532455  69.6339226  42.0840542  12.6926082  27.6602578
  41.7473690  11.8243926  27.8817892  42.5958435  12.9535621  28.4259009
   6.1451610  74.0749693  59.9121714   5.4439433  73.4353399  60.0362635
   6.6981776  73.6947155  59.2296696  86.9912243  71.3491583  76.5925980
  86.5250301  72.1851063  76.5832663  86.8542480  71.0083818  77.4765348
  98.0480576  68.2863092  49.7365046  97.7048683  69.0122461  49.2154837
  97.2688293  67.8395462  50.0673199  78.7277317  77.0595789  45.4772186
  78.7404919  77.6322079  44.7102976  78.9714956  76.1985922  45.1373434
  91.5182209  43.0666542  68.0068159  91.8240738  42.5431633  68.7475252
  91.5476513  42.4669695  67.2613335 101.8868351  34.0892029  64.0735435
 102.2355652  33.3531857  63.5706615 101.1746120  33.7109280  64.5891762
  88.0169010  31.8927026  63.0278254  87.9073048  31.6935802  62.0980024
  88.8794994  32.3037004  63.0847025  14.9801715  40.5623484  59.5106077
  15.4376205  39.9049401  60.0348091  14.0666087  40.4972410  59.7888327
  95.4960155  79.3518305  53.6216211  96.4124393  79.0882778  53.5383844
  95.0123310  78.7001848  53.1140327  58.2733965  65.9274054  39.0503597
  58.8895321  66.5974474  38.7542939  57.4348021  66.1881018  38.6695337
  10.2883514  70.6846523  84.1662598  10.5220874  69.7616291  84.0681362
   9.3666156  70.6722164  84.4240761  97.5528773  96.4843954   4.2307455
  97.9474553  96.6291489   5.0907403  98.2885893  96.5250648   3.6197549
   4.5640929  61.4721203  58.5768890   4.6353038  62.4061346  58.7738180
   4.9839004  61.3748646  57.7221775  83.4881965   5.4415744  53.6201048
  83.3798877   6.0709899  54.3330812  84.2561046   5.7525485  53.1406784
  83.9685822  77.2402430  53.4644794  84.0971661  76.7483521  54.2754936
  83.7848663  78.1342030  53.7531233  93.2357883  97.8872871  42.1172237
  92.7922344  98.2311249  41.3418055  92.8011131  97.0524406  42.2913361
   6.9126932   8.4781592  19.0688789   6.9567911   7.5711196  18.7662733
   7.6894466   8.5855430  19.6178365  34.9777508  36.4387805   1.0597593
  35.2522898  35.6545932   0.5844671  35.7390833  37.0179946   1.0262376
  83.7095165  49.4977903  83.9053440  84.1817379  50.0253010  84.5495319
  83.7765312  48.6014128  84.2343521  57.4544573  80.4188156  59.4948530
  57.1887302  79.5358133  59.7516060  58.2705545  80.5713844  59.9712420
  99.3553734  72.3643684  54.5772886  98.9333344  71.5919638  54.2011118
  99.6499729  72.8693438  53.8193703 102.9847813  42.8689289  60.2421904
 102.9507065  42.4576759  59.3785143 102.0716667  43.0685949  60.4485846
  83.0739021  98.8253880  59.5322371  83.6950779  98.0996990  59.4709969
  82.6710033  98.7236691  60.3945303  89.5943356  82.0791149  66.2681103
  90.0770664  82.4594307  65.5342388  90.2729893  81.7318535  66.8469620
  85.8312607  61.1232758  55.0040388  86.4452171  61.8211508  55.2326345
  86.3148212  60.5703926  54.3902636  92.2094822  71.6025305  53.3845854
  91.4896202  71.4925957  52.7633429  91.8505478  72.1663904  54.0697575
  60.6545353  89.7775078  21.9992638  60.6059885  90.7117748  22.2018290
  61.3690662  89.4507122  22.5459623  97.2347546  16.9340742  70.7147503
  97.7700806  17.6326919  71.0910320  96.7854786  16.5458155  71.4655066
 104.1484451  82.3053074  84.6375179 103.3307171  82.4335098  85.1182747
 104.5462322  81.5347195  85.0427341  36.6912452   5.9450858  44.0538311
  35.8128921   6.0147040  43.6798096  37.1506778   5.3370231  43.4746790
  93.3260345  78.5248566  34.5485926  92.6189423  78.6135769  33.9095449
  93.4341908  79.4046593  34.9098158  72.5115538  87.3846722  45.4032087
  71.7605495  87.6144409  45.9504128  73.2424021  87.8729248  45.7822752
 106.1463833  69.4141245  38.6422181 106.5152454  70.0342035  39.2712402
 106.8192768  68.7399435  38.5477519  76.1982107  73.6364126  41.5980577
  76.1324501  74.5051575  41.9945335  75.3353643  73.4828615  41.2131548
  87.1500492  50.5080605  69.4676208  86.5450573  50.2874279  68.7594271
  87.7883625  49.7947645  69.4682741  14.8655971  59.1780615  54.1067505
  13.9792903  58.9406252  53.8341427  14.8141368  59.2406988  55.0605106
  81.2950420  67.9215527  35.9742808  80.8241940  67.1825981  35.5889511
  81.8477345  68.2495260  35.2649236   5.0074943  72.2556973  70.9660244
   5.0812991  73.1960630  70.8032513   5.9129222  71.9477081  71.0057688
  95.9738064  62.7354908  69.0228033  96.8082809  62.3135996  68.8181162
  95.5100250  62.0981026  69.5658302   1.0919841  76.1165857  81.3322449
   1.3097556  75.4232454  81.9552135   1.8884166  76.2316656  80.8138943
 101.6121101 100.0967026  61.5913486 102.5343227  99.8672295  61.7057896
 101.2777615 100.1966095  62.4826765  81.0822487  81.5833569  50.4142666
  80.8876896  82.3019886  49.8126507  81.2616158  82.0130253  51.2505913
  93.8936329  44.7047567  67.4612904  93.7251472  44.4091034  66.5666199
  93.1674767  45.2962875  67.6588202  38.3782379  63.4527244   2.6266462
  38.2852832  62.5018825   2.5675470  39.3165771  63.6087455   2.5198728
  87.1267700  69.8660612  85.2151585  87.2521782  70.2869606  84.3646526
  87.9502678  70.0149584  85.6798267  95.0112820  65.6302500  78.5153008
  94.5735836  66.1986637  77.8816128  95.8025360  65.3343916  78.0651760
  29.4161463  18.1734807   2.5857049  28.6222792  18.6968381   2.4756986
  29.3048382  17.7449662   3.4343606  23.1609615  74.1139746  43.2024574
  22.3354610  74.2023706  43.6788654  22.9071983  74.1244698  42.2795677
 101.1596584  71.3033819  68.3741665 101.4472485  70.9414053  69.2123175
 101.9457817  71.7053556  68.0044985  81.7052555  72.2374773  62.4416637
  81.8340778  71.3446712  62.7618837  80.8734894  72.2047424  61.9690800
  99.8214626  72.7700090  44.1050959  99.8264790  72.5872421  43.1655216
 100.4078770  73.5197401  44.2063904  73.4059095  59.7380447  47.3745394
  73.3933640  59.0477562  48.0375385  74.0497875  60.3684902  47.6973200
  77.7049541  66.0103369  60.4581404  77.3533249  65.3859615  59.8235226
  78.6544704  65.9486151  60.3540182  92.1947098  66.2250042  61.9374800
  92.2436619  66.8393755  62.6698637  91.4847469  65.6277227  62.1729326
  28.3452495  51.0695410  86.3560009  27.8116687  51.7992592  86.6706944
  29.2122825  51.2284231  86.7291546  75.7188511  63.0453539  52.2544432
  75.2800131  63.6394119  52.8633356  75.6477594  62.1843958  52.6666689
   6.2094196  81.5675163  33.0320835   5.6543334  82.3471928  33.0170369
   7.1018584  81.9098282  33.0832148  68.6553669  -0.2124500  29.7788787
  69.5567322  -0.0107358  30.0300503  68.1280947   0.4486712  30.2273583
  55.7080364  17.0722110   5.0373346  55.9988976  17.1500070   5.9459478
  55.4564381  16.1533744   4.9442274  90.3311157  69.5272493  59.0877438
  90.9055424  69.2889929  59.8154116  89.5253468  69.0360165  59.2479229
  91.4781475  55.8055019  60.2410364  91.2392902  55.0677156  60.8021498
  91.0019493  56.5500164  60.6086826  14.9918254  69.7315836  63.4956837
  14.1979869  69.3189812  63.1553745  15.6858524  69.4392586  62.9048347
  67.4696636  11.1002595   9.7960645  68.3553505  11.4306361   9.6455938
  67.0744610  11.0689694   8.9248163 102.3947915   0.4358046  43.4943581
 101.8420847  -0.3237302  43.3103800 103.1637343   0.3129332  42.9377031
  82.6759243  65.4785585  47.9069042  82.1420479  65.1926231  47.1656609
  83.1307983  64.6867847  48.1940031  73.2719564  88.4846401  42.6514339
  72.6700592  88.0508995  43.2562685  74.1408682  88.1945705  42.9290628
  54.5149755  82.5732231  23.0623412  54.4834566  82.5228596  24.0176940
  54.4562054  83.5090065  22.8697610   0.2598651  90.7879066  69.4996071
   0.9158977  90.8577633  68.8060856   0.5598529  91.3960171  70.1752090
   7.6004108  65.8735847  55.8213520   8.2200511  65.1712418  56.0188293
   6.8888553  65.7488108  56.4493275  96.5693188  49.5668268  44.6027565
  95.8395386  50.1856613  44.6290731  97.0764351  49.8270893  43.8337803
  82.3159981  70.0886011  25.4716516  82.9942989  69.5709419  25.9054255
  82.7811241  70.5642748  24.7834516  82.0810795  67.3228693  69.8405743
  82.1596909  67.6283264  68.9368343  82.6475048  66.5524292  69.8831224
  93.2445335  58.6398411  80.2806759  92.8777218  58.8635826  81.1360264
  92.7101135  59.1293812  79.6553993 106.3902187  84.9627495  52.8954363
 106.7066002  84.6948624  52.0326662 106.3347912  85.9169865  52.8445435
  15.5374892  64.5929670  62.1050119  14.7201331  64.3148232  62.5182915
  16.1216911  64.7888803  62.8375196  89.0671253  71.4410877  49.5781803
  88.8299656  72.0922995  48.9179468  88.3272266  71.4352226  50.1854181
   9.8511879  12.4844497  35.5193686  10.2181045  11.9198554  36.1996889
  10.0405876  12.0266860  34.7003365  81.8231869  74.1804647  79.0271473
  82.0029354  73.8047266  78.1653214  81.0966492  74.7855139  78.8778496
  24.0264686 100.4225063  68.9878082  23.2366069 100.1206875  69.4364214
  23.7213405 101.1222458  68.4103155  99.1634369  72.5934601  23.2088661
  98.8069725  72.6196194  24.0968299  99.9104786  71.9979334  23.2681227
  84.9906826  58.9462137  39.2470956  84.9188232  58.0118752  39.4422364
  85.7027531  59.2539454  39.8078871   4.2699512  76.6167116  74.1611385
   3.9170917  76.0326433  73.4898806   5.2025588  76.4042187  74.1973257
  13.3903972  15.0912517  31.8599820  14.2271606  14.7083705  32.1235442
  12.7336590  14.5808547  32.3336983  97.6981926  79.6327114  34.9287939
  97.6458359  80.3675079  35.5399871  97.1497726  79.8962593  34.1898680
  69.2116833  16.3218820  54.0016365  69.8172235  16.6331840  53.3288431
  68.6360359  17.0679903  54.1695166 106.2977600  52.1635532  54.8363352
 105.4827976  52.1493578  54.3344641 106.8875217  52.7128553  54.3199253
  -0.0157658  76.7269945  83.9511776   0.4937442  77.3451042  84.4751740
   0.2597316  75.8648682  84.2627335  21.8553909  75.2157211  68.1826687
  22.2997459  74.4599819  67.7984285  21.3645061  74.8550510  68.9210320
  23.4310897  54.9481869  65.3076839  23.6325153  55.1997948  66.2089920
  23.2398589  54.0116119  65.3575087  37.5831588  79.7025681  81.4099026
  38.0346950  78.8613987  81.3407898  38.0475600  80.2746105  80.7988930
  97.8708935  60.6889296  46.7573261  98.3211422  59.9742889  47.2076607
  98.3452892  61.4764738  47.0236921  11.1830791  74.5121479  43.6076307
  10.4569419  75.0961351  43.8265324  11.6115173  74.9319077  42.8616571
  83.2617188  94.4025993  63.7257195  82.5523090  94.2588139  63.0993891
  83.0436993  95.2335072  64.1479588  43.8309089  21.0158294  41.2406635
  43.2293312  20.6766456  41.9034481  43.7937633  20.3732341  40.5321980
  97.1814156  82.2463417  36.1841512  97.0920849  82.3414230  37.1324182
  96.5005207  82.8129578  35.8214307  92.7012539  66.2218380  26.7621136
  91.8240929  66.0526800  27.1059370  93.1984711  65.4321766  26.9752860
   4.3673213  57.9184198  58.1066465   4.0294345  57.0245838  58.1624699
   4.6892722  58.1082439  58.9878654  93.9959145  84.6258163  26.2671208
  94.7158051  84.6430492  26.8977475  93.5804939  85.4837513  26.3543558
 102.0823479  60.6575346  55.6918621 102.6221943  61.4163542  55.4705191
 101.8742085  60.7738972  56.6188812  13.9736446  70.1937866  68.9828539
  13.2107337  69.8257685  69.4286776  13.8545306  69.9512625  68.0645847
  77.2480249  68.6811209  81.8341446  76.7609215  69.4443035  82.1448135
  77.0788574  68.0054760  82.4907398  71.5820503  67.6163244  67.8915167
  71.6927433  68.1979895  68.6436081  70.7611799  67.8993225  67.4886322
  86.2517834  60.1795769  65.4097414  86.5116215  59.5477247  66.0801697
  85.5555058  59.7390890  64.9224997  -0.1628033  26.4191914  67.5139666
  -0.0602547  25.8519912  68.2781649   0.6709846  26.3480306  67.0492601
  97.8402901  92.2941208  83.5268402  97.8958416  93.0171490  84.1516495
  96.9874477  92.4055862  83.1067657  77.1512842  58.3105612  51.5108871
  77.4674129  59.2099714  51.4251661  76.6453266  58.3109379  52.3234415
  13.6385616  66.9236326  44.7845459  14.2544730  66.3501978  45.2406836
  13.9202483  67.8090334  45.0146627  77.3159885  40.8296633  60.3251791
  76.8687487  40.3121805  59.6555376  77.0085049  40.4647064  61.1549330
 104.0705967  65.4638910  65.7796669 104.7977734  65.4067421  66.3994980
 104.3895245  66.0451078  65.0892258  92.3340567  16.1574500  86.1850548
  92.2255286  15.2115386  86.2835598  92.6346835  16.4547580  87.0438099
   3.5044749  73.0248642  59.9312878   3.0783733  73.1700611  60.7760239
   2.8346618  73.2455587  59.2840815  63.3131313  99.2233849  31.4966297
  63.6259317  98.5488892  30.8937740  62.6416397  98.7848568  32.0191526
 102.1340370  79.1706848  61.6342974 102.3616600  79.2195940  60.7058430
 101.6628265  78.3421373  61.7220545  69.8087835  71.3529110  67.5955677
  69.7620821  71.7538023  66.7276192  69.8562098  72.0940447  68.1994772
  71.9850636  74.4056129  67.1945000  71.5830469  74.0099573  67.9678535
  72.7423811  73.8507557  67.0078611  26.7465480  74.9024343  41.4002275
  26.0163673  74.6489096  40.8356094  27.2919543  74.1176176  41.4533377
   8.5017284  44.4566917  36.5181661   9.2553409  44.3848324  35.9323788
   8.5824950  43.7052774  37.1056080  13.7784465  62.9016590  30.2166653
  14.1544707  62.2258139  30.7806492  13.1434234  62.4345160  29.6737576
  13.2306846  18.3072805  61.5936375  13.9920505  17.8908873  61.1896896
  13.5058196  19.2109549  61.7482519  65.2754974  83.0011463  38.6392736
  65.6672573  83.8138294  38.9591169  65.5894661  82.9222107  37.7384830
  89.9383259  88.3257961  21.5554214  90.0998116  89.2430878  21.3346696
  89.5978260  87.9414082  20.7476282   6.4726241  51.7057085  68.4680462
   6.6598685  51.7997217  69.4020367   7.3309215  51.7471266  68.0463457
 104.4779110  78.7057543  56.3169575 105.0293636  78.7172270  55.5346489
 103.5843658  78.6444330  55.9792519  65.4712486  45.6149680  10.8900625
  64.8059940  45.6773478  10.2046567  65.1805306  44.8878581  11.4405424
  11.7015823  76.5927315  47.2497988  11.7660411  77.1185017  46.4525270
  11.9990428  77.1773338  47.9469299  11.1425574  32.9184198  31.6528440
  11.1997970  33.7472177  31.1773944  11.6584571  33.0613732  32.4463439
  50.2143526  88.3956146  53.9089823  49.3547153  88.6819363  54.2176437
  50.3551245  87.5527096  54.3401814  31.7135509  82.6986504  40.3708267
  32.5860770  82.4093723  40.6377506  31.1157020  82.0958519  40.8129263
  73.3975744  64.1681385  22.4290156  72.8495359  63.9195347  21.6846490
  72.7761793  64.4493914  23.1005788  88.8017750 100.1659489  35.2053237
  88.6738873  99.4820786  35.8627415  89.6385860  99.9493980  34.7941232
  81.8598366  69.1865778  62.9454184  82.4071026  68.4342146  63.1705570
  80.9693336  68.8363552  62.9213524  75.3940201  48.9846611  49.1639519
  75.5565405  49.1456509  48.2344913  74.8088694  48.2272625  49.1771078
  84.5160484  59.6880484  74.7898436  85.3221512  59.2397451  74.5339966
  84.0871143  59.9011421  73.9610863  10.8774646  62.1585751  54.7536755
  10.9432491  61.4646721  55.4097271  11.5544780  61.9458294  54.1113186
  24.4962970  24.6660464  53.9657402  25.1854603  25.1707595  53.5338068
  23.6828129  24.9961322  53.5842752  79.0202999  59.9555635  35.2769113
  78.6612892  60.7518959  34.8855019  79.9595118  60.1260328  35.3479910
 105.7920837  81.7077637  77.7793837 106.3857937  81.0970879  77.3425484
 106.3625908  82.2438240  78.3301973  73.6949635  70.3384066  12.4035108
  72.7789164  70.1148653  12.2388363  73.8712406  69.9960613  13.2798433
  54.4889824   6.6612571  86.8505287  54.7395889   7.4157279  86.3174248
  54.7717277   5.9026378  86.3398457  19.4554130  23.6359160  81.5866852
  18.9525501  24.4501727  81.5683365  19.0544216  23.1225150  82.2880077
  95.6462860  81.6720867  49.5233488  95.3417969  82.3468208  50.1301861
  94.9443913  81.0212898  49.5169783   8.1567176  72.3718119  37.4580026
   8.1385692  72.0845604  36.5451026   9.0872939  72.4080181  37.6792479
 100.1773930  80.7240868  43.1524086 101.0307884  80.4660034  42.8040791
 100.2014351  81.6809559  43.1605101  94.7617912  68.7094498  68.3241081
  94.2094040  69.1124296  67.6542568  94.1680813  68.5441256  69.0565062
  59.2596332   4.6700137  64.3759918  59.9943248   4.8487800  63.7890387
  59.2094795   5.4424613  64.9390602   9.0917667  73.0615377  74.7140312
   9.8758205  73.5611963  74.4863510   8.8993629  72.5473261  73.9299440
   5.2907737  61.7159271  49.6230841   4.8951228  62.3410416  50.2304745
   4.5638927  61.4233160  49.0733004  30.2097122  21.5798705  51.6398573
  29.6075050  21.0771888  51.0913277  30.4074756  22.3616832  51.1242247
  80.1971150  46.7536361   0.5505830  80.3480148  47.1987159  -0.2833003
  80.1430416  47.4609477   1.1932451 102.6775551  68.1108618  73.3470440
 102.2811890  67.3851681  72.8648615 101.9363117  68.5666180  73.7458944
  19.9458965  83.1855965  79.3803549  20.3046115  84.0235233  79.0880537
  19.3330177  83.4177303  80.0780010   6.8916504  20.2082580  76.9803476
   7.6485912  20.5658381  77.4444818   6.1651365  20.3061336  77.5958443
  78.4022474  47.1455288  76.6337299  78.5375643  47.0030785  75.6969118
  77.7114630  46.5274954  76.8726492 103.0624771  86.1192322  74.7564650
 103.6264610  85.4417229  75.1294613 103.4526825  86.9431210  75.0483322
  70.2952862  58.7823779  13.1779939  70.7950115  57.9810340  13.0219442
  69.5291615  58.4940917  13.6741430  85.0607967  54.9062347  30.9560084
  85.8756447  55.3219414  31.2378526  85.0327110  54.0812349  31.4405942
  11.9963916  69.9921751  47.1897173  11.4470657  69.3081236  47.5725412
  11.6996940  70.8000565  47.6086760   7.1983139  21.2927669  33.0731487
   6.6676418  20.6779426  33.5797167   6.8691723  21.2121623  32.1779394
  19.2827694   3.5975783  53.6758995  19.4427768   2.7107566  53.9986658
  19.9326984   3.7216132  52.9842043  93.5326195  79.9909830  74.4791222
  93.8027477  80.3752327  75.3131580  93.9077187  80.5702972  73.8158560
  16.1202224  72.2525501  65.2408218  15.7639106  72.2199345  64.3530083
  17.0289500  72.5297356  65.1241636 106.0495472  90.4098034  43.3979321
 105.8921242  91.2743187  43.0183744 105.2747536  89.8997974  43.1616688
 106.3858604  75.8796358  51.2551594 105.7953644  75.4647160  50.6263638
 106.4803314  75.2350092  51.9564152  34.3909820  87.8468704  67.3482847
  35.1239856  88.1265259  67.8966761  33.6228831  87.9330444  67.9129457
  82.2241497  71.4591408  88.0920982  82.7396870  72.1489620  88.5099602
  82.3100090  71.6306829  87.1543217  99.4728088  75.6560564  73.1877470
  99.1832829  76.5009689  72.8434706  99.5250797  75.7883263  74.1343212
  96.7357540  93.3449078  64.1160583  96.8992043  94.1338253  63.5992146
  96.0556126  93.6028194  64.7382450  21.3042061   1.9618743  50.2992630
  21.3647739   2.5270312  49.5290947  21.4904300   2.5421470  51.0373974
  46.1064521   7.0619529  36.6918182  45.2424518   7.2465365  36.3234925
  46.6817562   6.9925540  35.9299564  67.5452089  84.1303349  62.8989458
  67.8462410  84.9746513  63.2347059  67.8305292  83.4956837  63.5562468
  34.6160499  26.9319003  62.0294142  34.8305027  26.2657016  61.3764000
  35.4535858  27.1395343  62.4437237   8.9341434  73.3014059  63.0358791
   9.5488246  72.5859976  62.8728342   9.0968021  73.5545301  63.9445591
  98.2992840  58.0520678  40.1776218  97.9707336  58.5658979  40.9153700
  97.6166821  58.1268835  39.5107722  34.7962276  42.9863017  53.4851646
  35.1552765  42.7767890  54.3473816  35.5333225  43.3617442  53.0035448
   1.9696887  88.0829334  45.9254456   2.1773513  88.7333298  45.2545500
   2.8030189  87.6462269  46.1017513  96.6091919  58.4202147  66.5256882
  96.8016243  57.5874949  66.0946608  96.3035488  58.1731272  67.3984814
  96.0472202  84.5010376  75.3125334  96.7202663  85.0982475  74.9860716
  95.7943439  84.8657417  76.1606264   4.7698005  89.8398876  67.2513962
   4.6987899  88.8865185  67.2037125   4.4266303  90.1478767  66.4125776
   3.4674342  90.6581497  26.8903756   4.1119655  91.3584328  26.9924426
   2.6369651  91.0573387  27.1496010  23.6047737   5.6066840  62.6939297
  23.4152595   5.0573390  63.4545469  23.7355415   4.9861567  61.9769382
 106.2836838  94.7652245  39.4074321 106.5340710  93.8413620  39.4041705
 107.0938301  95.2322388  39.6118641  21.6319553   3.9072555  48.4670925
  22.0317928   3.8638251  47.5984907  20.8194820   4.3951457  48.3326435
  92.4213799   2.2794097  56.8128347  92.1842583   3.2033294  56.7329311
  92.7098139   2.0293849  55.9350395 106.2016964  86.8897343  14.0881515
 105.3389645  86.4796829  14.1496980 106.4200974  86.8495750  13.1570673
  21.4041607  97.8357948  14.4242746  20.6112186  98.3215727  14.6512109
  22.0587722  98.5126747  14.2524034  28.3721812  90.2646542  86.4912796
  29.1402515  89.9847507  85.9933281  28.2011588  91.1559105  86.1869144
  22.7760975  19.3375247  35.6307340  22.3755352  19.9118464  34.9780941
  22.9683201  19.9133723  36.3707876  88.5093021  97.3268318  62.6477909
  87.9445553  97.8310204  63.2335234  88.0142689  96.5278053  62.4668741
   8.1972305   0.7226127  45.6659651   8.5267536   1.4387744  45.1230431
   7.5641624   1.1378138  46.2516880  38.7008754  17.5867312  51.4251661
  38.6845390  17.9199737  52.3223400  38.6138336  16.6382640  51.5203381
   5.7738479 100.0944138  86.4225006   6.4108070 100.7330418  86.1020947
   4.9291213 100.4241848  86.1160374  11.6977676  63.8298750  62.1999979
  11.2885364  63.1608629  62.7487946  11.7337878  63.4356356  61.3285017
 105.6806183  94.9822807  54.5422745 104.7321606  94.9426842  54.4194078
 106.0428810  94.7323322  53.6922598  27.7530432  15.7827718   3.7572557
  27.0152712  16.1186034   3.2481939  27.7868986  16.3462455   4.5302850
  14.9084274   3.9809936  66.6298103  15.7020179   3.4791129  66.8157387
  14.4694893   4.0575831  67.4769783 101.9199944  56.6299915  57.3400831
 101.2726402  57.2494173  57.6769352 101.7801857  56.6287231  56.3931465
  15.1150974  88.4373379  48.9281988  15.8817371  87.9092789  48.7053680
  14.7442039  88.0077648  49.6990013  76.9444275  50.6796748   2.4060613
  76.7633057  51.3101394   3.1031591  76.1210823  50.2048308   2.2927076
  17.3033317  57.7279091  41.6311169  18.1014999  58.0358171  41.2017536
  17.5311454  57.6880121  42.5599575  18.1974014  87.8714848  40.1091242
  18.8606151  88.3377457  40.6180334  17.3887904  87.9846954  40.6086779
  75.7066822  74.5635462  52.1640921  76.2314558  75.0953388  51.5657282
  76.2147045  73.7604666  52.2790432  68.6320019  85.4973507  46.7380571
  68.0038738  86.1535168  47.0399237  69.2735386  85.4364681  47.4458408
   4.2861064  92.9285717  81.9876957   4.4313892  93.8744068  81.9647694
   3.9720901  92.7131271  81.1095047  98.0389214  73.3466959  38.3071542
  97.5874138  72.7429914  37.7173114  98.1499767  72.8508377  39.1183376
   7.9503520  94.5517921  63.9886522   7.2208675  95.1277542  63.7598324
   7.5479110  93.8439751  64.4919109  13.0130370  44.9780655  57.6412201
  13.7036117  45.3337574  58.2005215  12.2072967  45.3719473  57.9756880
  93.5566139  61.8753481  12.7545416  92.8509903  62.1644974  13.3330941
  93.1126308  61.6116810  11.9485652  60.7184029  72.0216370  52.0511723
  61.3619661  72.7083635  52.2257280  61.2401199  71.2265253  51.9423485
  17.0381816  41.0166836  21.7337441  16.8061050  41.9258833  21.5446997
  17.7914413  40.8396387  21.1702847  13.6912711  73.3694506  39.4401908
  13.2915767  73.1631947  38.5952425  13.6592658  72.5462627  39.9276066
 101.5997314  72.7192926  59.7725916 101.6796017  72.9854727  60.6885624
 101.3486481  73.5197115  59.3115902  33.9309398   7.5096744  50.5042744
  33.7708751   8.4172194  50.2454758  33.4619133   6.9885009  49.8526430
  71.7365360  80.2539062  67.1137714  71.7792082  80.8289337  66.3497305
  72.6516294  80.0769901  67.3317909  47.2053814  36.0648353  14.9599248
  47.8157330  35.4850013  15.4154378  47.6746464  36.8957908  14.8855955
 104.1684628  74.1501045  46.1656284 104.9597454  74.4347429  45.7083797
 103.8961220  73.3578730  45.7025623  22.0058234  74.4288349  13.6245680
  22.6416572  74.0387249  13.0247664  22.1354373  73.9601374  14.4490397
   9.3430694  59.0590477  61.8446827   9.6992191  58.2094288  61.5848017
   9.7563251  59.2441607  62.6880026 107.8787708  62.2237587  42.2522306
 107.7544308  61.8632412  43.1301832 107.5778389  63.1298494  42.3205471
  28.4309562  85.2155399  41.0819721  28.5453685  85.7667351  41.8561316
  28.1590064  84.3665314  41.4305019  32.1340648   6.2176269  15.7034338
  32.1363060   5.3999560  16.2010622  31.2380878   6.2962382  15.3759193
  11.1824886  10.5165713  59.6511602  11.5431968  10.9242194  60.4385281
  10.3071300  10.2286189  59.9100924  20.5073730  16.7902129  41.2430239
  19.6232883  16.4272063  41.2964344  21.0556785  16.1539691  41.7021418
   2.7278598  70.5885696  43.9015102   3.6146243  70.2890825  43.7010479
   2.8272041  71.5216064  44.0907145 106.9034672  75.1977682  72.2547197
 106.7866802  74.4370127  71.6856432 106.5852165  75.9363127  71.7355919
 101.3880539  90.3639030  67.1847582 101.8763256  90.5539322  66.3836908
 101.4274406  89.4112301  67.2689676  29.7292988  16.4056056  32.8393364
  29.2934887  17.1986239  33.1514597  29.0252296  15.7625812  32.7554655
  78.1316527   1.5113585  68.1368542  78.0721768   1.2560599  69.0574598
  78.9281233   2.0398181  68.0858326  11.4690383  80.4276752  74.2103577
  11.2913402  79.8911905  73.4378052  12.1462520  79.9462986  74.6856308
  79.8767185  71.0453701  25.3440857  79.8343086  71.3646746  24.4427085
  80.7114029  70.5794954  25.3941274   3.6814960  90.7382679  47.2634029
   4.4681915  90.2083302  47.1349525   2.9631789  90.1056385  47.2588778
  98.7473011  85.0173283  59.0814734  98.8190174  85.2779675  58.1632376
  99.5080090  85.4163170  59.5038080 100.2867985  76.9715595  75.5983305
  99.7528648  76.5526199  76.2733412 101.1501312  77.0666790  76.0006237
  80.3458882  14.7325379   4.4060689  79.6400738  14.1386611   4.1503889
  79.9942684  15.2140862   5.1548749  76.8248940  43.2039458  11.3383466
  76.2067032  43.1444175  10.6099683  76.3253117  42.9122550  12.1009428
  89.3615437  60.9250689  47.4515867  89.5878983  61.6120100  48.0785704
  90.2052021  60.6034374  47.1337318  46.0484219  54.8598773   2.6747495
  45.1566982  54.5602710   2.4978239  46.5615082  54.0550811   2.7474004
  90.0559521  84.8681164  70.7393026  89.8018837  83.9657021  70.5461025
  90.2466488  84.8676586  71.6773129  79.1430092  56.5477610  44.9349546
  79.7176838  55.7939816  44.8015404  79.2948246  56.8067837  45.8438492
  42.5847046   7.9073756  38.5455942  42.7475349   7.1737330  39.1384530
  42.1778003   8.5754054  39.0973139  96.4655685  63.1088018  77.3405266
  97.0039940  63.8604927  77.0929766  96.8083000  62.8388977  78.1925344
 100.5627632  91.2498474  35.3594518 100.8179379  92.1642780  35.2372241
 100.1381588  91.0076237  34.5364857  88.1161785  67.7945566  59.9874306
  88.0800915  67.1214914  60.6670666  87.5595665  67.4566031  59.2858601
  98.8564587  78.3169365  72.1489620  99.1472530  79.2249537  72.0642757
  97.9135895  78.3806038  72.3011971  36.8593677  89.0356445  71.5058613
  36.9391807  89.9504662  71.2357426  37.5309451  88.9251900  72.1789217
  37.7659885  21.0265010  75.2520800  38.2184211  21.5255206  75.9321594
  38.1356136  21.3510459  74.4309330   1.5304263  74.6122169  71.7582083
   0.5927261  74.4684315  71.8858480   1.6266235  75.5644226  71.7414713
  12.9619773  71.5501499  83.3587170  12.0213683  71.4100313  83.2498169
  13.3690341  70.8453083  82.8550053  14.2498533  99.2428783  58.7753487
  14.0828887  99.9828666  59.3591022  13.4544841  98.7128378  58.8270187
  15.0424576   0.3440758  41.0338211  15.0391006   0.4057231  41.9890261
  14.7975361  -0.5631198  40.8514977  35.2639079  38.0406117  35.4721284
  35.3420472  37.0866275  35.4785299  34.7281384  38.2421947  36.2392950
  24.3738294  11.6431653  41.3257170  24.2106676  10.8396697  41.8196869
  25.0674534  12.0874131  41.8133259  99.1738542  90.2683968  30.9942293
 100.0641950  90.5822677  30.8360863  98.6515840  91.0653693  31.0853362
  59.1649914   0.8708395  33.7158632  58.6124277   0.6808341  32.9577088
  59.8129606   1.4952329  33.3895135   9.4735900  92.3201079  13.9205456
   9.9648372  91.4999170  13.8737178  10.0036136  92.9453129  13.4261549
  72.8192949  13.2090878  13.2090390  72.7463102  12.3846924  12.7281260
  72.1310663  13.7630248  12.8406286  70.1607609  11.8100536  27.3751950
  69.2571592  11.5737522  27.5847077  70.6922579  11.2454307  27.9363966
  48.8384819  14.2116189  37.6938105  48.2209301  14.5172358  38.3582354
  49.4682980  13.6787713  38.1792378  12.5496665  86.6402049  45.6681252
  12.3125021  86.9596083  44.7975111  13.5045568  86.5768678  45.6480980
 102.6692104  31.5378356  15.8859169 102.8323269  30.5946779  15.8772147
 103.0751133  31.8436289  16.6970670  57.2616291   7.4609613  62.4955368
  57.5408792   7.4773282  61.5801239  56.6305685   8.1771964  62.5662804
  97.4563559  96.2039275  63.4246159  98.2502802  96.7088247  63.2485628
  96.7784699  96.8648929  63.5654354  40.0314713   6.6481161  61.1603594
  40.2103567   6.9148296  60.2586412  39.4530559   7.3301846  61.5016079
  42.4403286  19.0969646  28.9985466  43.3295059  18.7581074  29.1023040
  42.3475313  19.7441125  29.6977043  38.8129401  32.3576927  36.8555236
  38.9948344  33.1508636  36.3515162  37.8603077  32.3459840  36.9481730
  95.3733925  13.9476800  30.5402541  94.7462014  14.3068230  29.9126554
  95.1485745  13.0191028  30.5988479  97.7405914  79.7211535  43.4619188
  98.5031422  80.2957518  43.3942223  97.7689966  79.3902404  44.3596506
  11.6514913  96.6582788  47.8610849  12.2761528  96.8866444  47.1726942
  11.5736381  95.7057566  47.8074884  80.9100819  21.9733047  56.0160160
  80.2353668  22.0841312  55.3461599  80.4303741  21.6910696  56.7947674
  54.7017813   8.4808296  43.4181738  54.3072128   7.6418710  43.1800699
  55.2919960   8.2710910  44.1419792 101.4806938  26.1793852  27.4866199
 101.3761711  25.2884388  27.1526718 102.4061775  26.2393332  27.7235198
 104.6029719  93.2150496  49.2367649 104.1844328  94.0317530  48.9646387
 104.4033821  92.5975902  48.5331059  84.6729088   3.1655052  32.4181628
  84.2735100   3.7162521  31.7448211  85.1229382   3.7819067  32.9958820
  44.2473117  86.9524736  59.8830271  44.1489879  86.7712779  58.9482927
  44.8400013  86.2701160  60.1982212  63.5713378  96.2896062  40.8112049
  64.0404216  96.8851695  40.2268219  62.6722042  96.6178650  40.8163214
  35.1726810  93.0215914  41.1838818  35.9639684  93.1649680  40.6647158
  35.4138986  93.2954980  42.0687675  23.9306728  86.7696936  46.4666510
  23.9728157  87.7251274  46.4266205  24.6344654  86.5238459  47.0670319
  24.0866081  97.0981345  53.8564920  24.6485607  97.7016882  54.3424511
  23.2033102  97.2844145  54.1747952  47.4771110  88.6533494  67.9847479
  47.4711696  89.2870957  67.2674179  46.8211929  88.9815838  68.5997725
  11.9575111  70.9221179   4.4168589  11.4717762  70.7223899   3.6166072
  12.7624980  70.4095513   4.3426612  69.8639862  85.4288132  36.4175487
  70.0207130  85.2386004  35.4926229  68.9423934  85.6844813  36.4566779
   1.3558094  87.7002449  56.1573935   0.4126207  87.5391311  56.1833286
   1.5019290  88.1323678  55.3158760  73.1332874  30.7941365  79.0470743
  73.0636358  30.9194517  79.9934769  74.0561867  30.5870056  78.9001751
  65.5736399   6.7784834  73.7053490  65.4278326   6.8729424  74.6466494
  65.0129747   6.0464561  73.4484005  38.8902418  96.8810377  63.8886499
  39.4726697  96.2860937  64.3609381  38.3216516  96.3045330  63.3781815
  43.1633083 100.2590141  57.8214884  42.7484027 101.0182998  57.4121332
  42.5302354  99.5500585  57.7082014   0.3938333  99.2335308  50.4621744
  -0.3171166  99.6731821  49.9958181   1.0807220  99.8965425  50.5316734
  38.1903982  36.6225791  29.6923757  38.1387806  37.1334577  30.5001950
  38.5046530  37.2440171  29.0356469  20.4136848   9.8023701  32.3537016
  21.3627291   9.9229193  32.3218441  20.2266550   9.1859150  31.6457224
  65.5095720  15.9754622  83.0068302  65.6715155  16.0245621  83.9489555
  65.9899998  16.7187274  82.6421642  49.4016743   1.9754708  20.3132701
  49.2432499   2.8569362  19.9754071  48.5371542   1.5647674  20.3257060
  76.6687775   8.0456352  43.8934422  76.7749977   7.3489279  44.5411682
  77.4092579   8.6319780  44.0487432  35.5531541  93.0768538  26.3418078
  34.6383087  92.7986587  26.3854527  35.8984033  92.6431794  25.5614471
  96.0786208  48.3933885  52.9591465  96.9786890  48.0827863  52.8609896
  96.1641725  49.2422826  53.3930779  58.3704042   2.5239140  52.0086861
  58.3095503   3.3536544  52.4820328  57.5931025   2.5091568  51.4502811
  49.3738127  18.4922564  51.4800072  48.7430477  18.2614517  50.7980251
  50.0761223  17.8489566  51.3843203  88.7927341  25.2755570  59.2739344
  88.4116173  25.0690508  58.4205103  89.0348911  26.1994696  59.2108727
  70.7906246  10.4570472  37.1322227  71.5486097  10.4690087  37.7166414
  70.2104807  11.1351073  37.4784923  57.5837851  19.4653010  56.4680004
  57.0128155  18.7049592  56.3579750  57.6724434  19.5630586  57.4160576
   7.9697172  84.3379659  53.1560564   8.2210866  84.9338371  52.4503803
   7.9169313  84.8951275  53.9326000  27.5095550  94.5013130  17.4244964
  27.8587572  93.9818383  18.1486762  27.6137058  93.9407808  16.6556096
  37.8571788  84.4961948  14.7668207  37.4491397  85.3519387  14.6347523
  37.5524179  84.2161769  15.6299222  11.4222375  72.3980219  32.3915005
  11.9488088  71.9526035  33.0552459  11.6059152  71.9225485  31.5813041
  83.3623791   2.1601452  43.7299442  83.4401608   1.5086648  43.0329800
  83.3543396   3.0007729  43.2722187 105.3282642  16.5358973  15.4746866
 105.1998425  15.6995845  15.0271153 105.4579258  17.1683323  14.7679722
  69.5464182   8.4425473  59.0808964  68.8449049   8.8759696  58.5948324
  70.1871061   9.1345334  59.2449379  65.9778309  27.0044327  26.2258530
  66.1806297  26.7392898  25.3287458  65.3037214  27.6772285  26.1301708
  84.5765686   3.1668103  27.6665616  83.9640617   2.9322410  28.3637261
  84.7940636   2.3336634  27.2484779  50.3318397  94.9336375  41.3199043
  50.9099952  94.1710610  41.3410854  49.8434536  94.8412836  40.5018711
  94.1643890  83.2986004  64.9971008  93.3218988  83.7301404  65.1392841
  94.8047169  83.8843925  65.4009056  81.9985962   0.7455473  53.7697124
  82.0420361   0.1115655  53.0538845  82.2915077   1.5686926  53.3787346
  42.0804969  95.3887380  44.0018606  41.2152187  95.0585771  43.7599468
  42.6927797  94.7686977  43.6057663 104.5671320  75.4487174  78.8138634
 103.9732170  75.4721945  78.0635637 104.2102003  74.7648376  79.3805569
  66.1863756  22.1057129  35.5851269  66.2161779  22.0705271  34.6290374
  66.7045450  21.3525438  35.8687901  15.8947412  98.3305571  30.8149385
  16.7025987  98.8371540  30.7315207  16.1872617  97.4209417  30.8720684
  15.9069578  80.9165031  39.0680480  16.0253994  80.6617839  38.1529951
  14.9785606  81.1392934  39.1364074  36.1740772  82.5188655  66.0270739
  35.2205745  82.5631315  66.0984802  36.4928333  83.1206805  66.6997194
  58.4946108  24.0986657  74.7506523  58.6410141  24.5972061  73.9467525
  58.4728670  24.7601938  75.4421282  36.5040302  30.0103092  82.1187496
  36.7950368  30.9032297  81.9337082  36.1334896  30.0569582  83.0000877
  55.7976142  98.0769939  42.7447128  55.9676448  97.2919602  42.2240973
  55.3212635  97.7576206  43.5110807  68.5603380   3.3866626  41.9069815
  68.7924433   3.3562484  42.8351164  68.4745407   4.3198586  41.7120028
  89.8810196  22.0018554  19.8731613  89.8773956  22.5466251  19.0861130
  90.0496864  21.1164761  19.5508480  44.3057442  12.0692158  33.3814168
  43.3622932  12.2166848  33.3151913  44.5841265  11.8920302  32.4828935
  60.4219866  14.7243524  38.3788753  60.8818579  13.9441884  38.0688906
  59.9732256  14.4376552  39.1742682  57.6709700  23.3359456  27.3362517
  58.2236242  22.6462412  26.9686794  58.2872295  24.0120935  27.6178241
  61.6970778  17.6374376  86.8966961  61.5929937  16.9512355  86.2375069
  61.8002844  17.1632862  87.7217770  31.4220277  85.4121227  40.8052683
  31.8296854  84.6051461  40.4908848  30.5042259  85.1784784  40.9441376
  69.9748850  23.4202623  28.0253577  69.0600538  23.6587334  28.1751752
  70.1432657  23.6747980  27.1181154 102.0653820  10.0430632  27.3111486
 102.5138283   9.2050177  27.4242973 101.3712502  10.0341690  27.9701924
  22.5466561  18.7515426  86.5655136  22.8302288  17.8436220  86.4582825
  22.2285104  19.0069568  85.6996155  54.0080214   9.9776465   2.5355202
  53.9833641  10.1432991   3.4779549  54.7685051   9.4096363   2.4119918
  44.8717785  13.4651065  53.0771685  45.1348686  14.3685400  53.2527304
  43.9179897  13.5029566  53.0058527  42.5509445  83.2202394   1.5079105
  42.0805017  83.6061401   0.7689940  42.4975339  83.8817663   2.1976656
  50.0386611  88.5408110  47.1706724  49.7136013  89.3697280  47.5220537
  50.2654640  88.0251295  47.9445410  80.3064346  20.9596515  81.9434357
  79.3600464  20.8267951  81.9975471  80.4881096  21.0088801  81.0049248
  16.0566560  92.3538984  54.3033886  15.3566591  92.8280128  53.8545561
  16.8508712  92.5885344  53.8233805  30.5982232  20.8108974  73.6711407
  31.2405610  21.3109970  73.1676197  30.7545471  19.9001837  73.4213448
  43.4158269  80.6434066  15.5271685  43.0063430  79.7854788  15.6390464
  43.5823337  80.9475071  16.4193738   4.3720992  12.5760162  58.4858561
   5.0000938  13.0625701  57.9518890   4.7064002  12.6539469  59.3793869
  28.4412614  92.4918783  39.7590804  28.8362495  93.3637077  39.7476745
  27.5139324  92.6466937  39.5792818  51.7767525  16.4687228  41.7602730
  52.3335171  16.6059017  40.9938335  51.4841270  17.3469007  42.0040083
  55.2952194  23.8307834  26.3149548  54.6711111  23.4818482  26.9513202
  56.1538124  23.6065364  26.6737866  97.5655746   0.6648011  27.7595425
  98.5151482   0.7783434  27.8000069  97.4219608  -0.2455165  28.0182505
 102.8603323  81.3690621  42.2172689 102.4297722  81.9301493  41.5722656
 103.6926492  81.8061621  42.3973417  52.4185562  29.0334272  23.1975317
  52.6886225  29.9083543  22.9186034  51.7341948  28.7845802  22.5762773
  43.5437870  29.7310925  18.2397735  43.4722471  29.4673204  17.3224199
  42.6403475  29.8856831  18.5156918  23.5955429   6.5411824  52.4367094
  23.6733103   7.0983464  53.2111454  24.4461489   6.1077619  52.3670816
  47.2009079  88.3945686  16.5253401  47.1997253  87.7577741  15.8106911
  47.9205410  88.9895649  16.3147795  28.3314172  90.8356375  28.9312959
  28.0686418  90.1515443  29.5470858  27.5123636  91.2683911  28.6902332
  44.5047084 100.3117492  13.9239573  44.9268905 100.9101269  14.5403492
  43.7629787 100.8081950  13.5781074  72.8570557  10.3927839  53.9848185
  72.7837372   9.4474423  54.1159058  72.3454475  10.7739329  54.6984100
  15.2459518  76.8159682  37.2982025  15.5555765  77.3502118  36.5668011
  14.2918149  76.8775422  37.2527122   8.3694355  75.4269869  42.4328184
   8.5854093  75.8387548  43.2695007   7.5386564  75.8272607  42.1762657
  28.3723489  86.5858144  36.4892340  29.0905515  85.9696693  36.3450623
  27.9235736  86.2529380  37.2664237  84.6120834  30.0279570  14.7299528
  84.9771404  30.7878017  15.1833892  83.7672710  30.3307676  14.3970442
  84.2039680   1.8312201  40.8553600  85.0190639   2.3252758  40.9434652
  84.4810772   0.9612571  40.5679464  33.9305965  89.5854396  50.4891777
  33.5010759  90.1377232  49.8359346  34.6431152  90.1266617  50.8292150
  64.8393718  95.1530189  75.5613136  65.4116241  94.7808892  74.8902845
  64.4285480  94.3932862  75.9739447  83.9300060   7.4303186  30.9096742
  84.8299217   7.5650495  30.6126308  83.7563610   6.5051955  30.7358146
  24.5203773  82.0278103   3.6965454  24.1209690  81.2133438   3.3910125
  24.7619049  81.8498678   4.6055186  17.6542771   7.4024081  19.4455242
  16.9587886   6.7848736  19.2192972  17.2073793   8.2441139  19.5352197
  29.4281936  34.8523450  54.4668198  28.8691235  35.4485083  54.9650764
  28.8727951  34.0924358  54.2927408 103.7713345  90.8668763  71.9503736
 103.3816822  91.3350279  71.2119675 103.3724602  89.9972744  71.9200039
  13.8211814 101.3693362  69.1119623  14.6321098 100.9910064  68.7721157
  13.4774152 101.8903393  68.3862829  77.7282953   6.8501520  37.8676534
  77.6752663   6.0273862  38.3539414  77.6409626   6.5920842  36.9500446
  32.6133672  93.2821054  34.6100211  31.7521135  93.4554441  34.9900556
  32.8368083  92.4025018  34.9143291  40.7030097  81.4714987  20.1226783
  40.6842081  81.9377870  20.9584141  40.7552330  82.1635170  19.4634259
  33.9478183   2.1100830  39.7340655  34.2045879   2.1274312  40.6560183
  34.6022940   2.6516482  39.2929316  12.5937644  81.3246066  14.2957497
  13.0032054  80.8746225  15.0347388  11.6764776  81.4202816  14.5519996
  68.2336426  26.3059926  48.1586266  68.0026674  26.3478374  49.0865993
  68.5605574  27.1819258  47.9534435  69.9102879   4.8482743  10.4978216
  70.6900883   4.3332598  10.2906919  69.1869545   4.3525299  10.1140869
  68.9184284  15.0687122  41.6547918  69.7848463  15.4721415  41.7076206
  68.3084154  15.8052707  41.6948175  60.3750753  31.8969488  31.7346525
  60.3116226  32.3588252  32.5706410  60.7254791  31.0358906  31.9627380
  33.0498449  89.9198920  38.1591010  33.3260147  89.7521312  39.0601110
  32.2287694  90.4040772  38.2464743  71.0452938  47.4468231  84.0926647
  70.3611279  47.0919514  83.5250282  71.2775421  48.2848692  83.6927032
  66.8638229  21.7385221  40.3378725  67.7731419  21.7244244  40.0392628
  66.4700460  22.4759865  39.8716950  18.8320200  94.0551574  22.0824742
  19.3825904  93.8444365  21.3283491  19.4026748  94.5597453  22.6621079
  39.5364849  99.5719606  63.0260038  39.2691747  98.6552007  63.0917883
  38.8130323 100.0611056  63.4178972  23.5463929  65.5081892  62.3376846
  22.9604387  66.1728334  62.6998043  23.0452490  64.6941948  62.3876905
   1.7744009 100.7669246  53.5336256   2.3378245 100.1881313  53.0200243
   1.2340704 100.1738229  54.0556431  82.0820522  14.9893212  50.1947689
  82.0230961  14.8966694  49.2438889  81.6303158  14.2188060  50.5389595
  75.9286404  17.4120939  51.5816689  75.2073336  16.7833304  51.5572071
  75.6705952  18.0467403  52.2501516  82.1274567  25.2556300  47.0055485
  81.8456268  24.7193074  46.2644911  83.0798912  25.1614976  47.0208263
  93.1370735  28.5645199  61.2198067  92.8779697  27.9352236  60.5466890
  93.7241173  28.0728149  61.7941236  74.0403795  21.9553161  63.5329771
  74.0033531  21.1426592  64.0374088  73.3390856  22.4954605  63.8972044
  57.6845741  18.2264817  34.6852922  58.4000969  17.7035940  35.0470209
  56.9846869  18.1563151  35.3344941  82.5336266  10.8310950  55.9995127
  81.8043709  10.4141104  55.5406618  82.9556084  11.3748693  55.3343296
   4.3214305  11.1020458  33.8878679   4.5933898  10.2104926  34.1055989
   3.6097415  11.2914300  34.4993138  42.6462165  91.7299623  45.0765848
  43.1438056  92.5467075  45.0370455  43.3053772  91.0556359  45.2409649
  35.2354089  98.5250819  63.7785196  35.5339901  98.5881818  64.6857691
  34.3143837  98.2734329  63.8464355  88.9062309  29.8514247  56.2837172
  89.4355583  30.6452131  56.2066269  88.1178474  30.0388551  55.7742453
  55.9300518  25.7436848  36.0677910  56.6434574  26.3816333  36.0501671
  55.4199171  25.9330320  35.2803016  83.9533043   8.2669830  50.6099701
  84.6447945   8.4712607  51.2395287  83.1416416   8.4944725  51.0634947
  75.8306702  39.1043545   1.6789228  75.8563956  39.6386231   0.8851129
  75.9814175  39.7259940   2.3910123  18.9152090  67.2392733  16.6927218
  19.3932907  66.4116723  16.6403222  18.3880846  67.1614368  17.4879026
  74.3258667  12.7286112  60.1481533  74.5804262  12.8027129  59.2284060
  73.3709955  12.7946138  60.1384592  58.4174871  21.9642496  18.3184493
  57.7682161  21.8506908  19.0125549  58.1028795  21.4111423  17.6033771
  51.0553352 100.8103856  43.6421347  50.8264057 101.3925201  44.3666649
  51.9450847 100.5188454  43.8410807  58.6508799   3.6383593  48.9650106
  58.7547398   2.8513351  49.4998312  57.7183819   3.6605528  48.7500906
 101.6967201  22.0446968  45.0383663 101.8741894  22.0349622  44.0978146
 101.8649483  22.9486346  45.3045034  66.1002779  11.7444777  64.1960764
  65.5936050  11.3304734  64.8947287  65.5533934  12.4734735  63.9033031
  75.7575655   0.1704551  34.6157217  75.9226513   0.1798390  33.6729121
  75.2039909   0.9360350  34.7695780  97.0900059  13.2477486  62.1813583
  96.2932205  13.6467338  61.8318272  96.7760754  12.5872350  62.7989340
  64.8332834  42.3213243  26.6600251  64.5458031  41.4963436  27.0511723
  64.0255833  42.8172636  26.5262723  45.0893299  90.4504282  33.6765385
  44.4863693  90.9284849  33.1072092  45.3827468  89.7094852  33.1463146
  25.5613081  97.4490238  62.8717089  25.7366792  98.2088584  62.3166180
  25.1320211  96.8215335  62.2901630  93.9557838  12.3803127  14.4049191
  93.1277847  11.9103205  14.3061364  94.4744492  12.1139228  13.6458015
  78.7306301  95.8269591  52.2911119  77.9385463  96.2419350  52.6326180
  79.3347255  96.5535123  52.1380568  70.6333399  43.5333443   0.7175207
  71.0365200  44.2759991   1.1671241  70.8250523  43.6812067  -0.2085540
  60.0516987  34.3403602  33.4729314  60.8983231  34.4146323  33.9133143
  59.4075108  34.4434643  34.1733789  76.4279366   8.5564077  47.3024178
  75.5215645   8.7429214  47.0576000  76.7750216   9.3988723  47.5957012
 103.2877731   9.2588264  33.3363271 104.0386200   9.4927591  33.8819695
 103.5459137   9.5152819  32.4509859  44.7541761  27.1308637  37.0481634
  45.2191734  27.8464842  36.6146898  43.8443995  27.4257517  37.0879483
  70.4504299   7.7459508  37.2600341  70.6578112   8.6730015  37.1425557
  70.9441042   7.4868089  38.0380845  22.7702753  95.8039076  49.4980001
  23.0112688  96.1540139  50.3556585  21.8145219  95.7556743  49.5189381
  20.0235216  91.5882773   8.5674828  19.2503921  92.1457613   8.6552960
  20.5435363  92.0063127   7.8811419  38.0069208  30.3198266  70.9775400
  38.5137939  31.0989404  70.7488585  37.8606319  29.8756099  70.1423693
  55.7319538  91.4678092  55.6492853  56.0378353  92.3193479  55.9616184
  54.8110000  91.6097016  55.4303265  81.3203239  42.9088593  21.9853473
  80.4896641  42.5380135  21.6875267  81.0778141  43.4938622  22.7031136
  26.6235963  88.5175092  39.3095970  26.3086931  88.9579994  38.5202694
  27.5268690  88.8186628  39.4077492  59.1342878  24.5662761   0.8744860
  59.4107246  25.0593448   0.1020228  59.3042755  25.1563478   1.6087554
  97.0251083  18.7579119  21.6949582  96.5006256  18.0209208  22.0079899
  96.3821125  19.4275427  21.4617705  51.4326859  38.3169746  71.3133001
  51.2844324  37.5756073  70.7262468  51.5289783  39.0693188  70.7293987
  60.3829002  27.5694013  71.0800505  59.6352482  27.7599263  71.6465759
  60.7925034  28.4213209  70.9294224  87.3807430   3.9288181  50.5092716
  87.1172810   3.1276959  50.9620667  88.2515049   3.7330866  50.1633024
  65.6440258   5.9062773  28.2577848  66.2923145   5.5519021  28.8663673
  64.8385525   5.4313987  28.4625721  71.2023592  12.7884769  64.5560503
  70.9980202  12.3076475  65.3580952  71.1587667  12.1289408  63.8637066
  46.4694492  97.8966252  34.0447855  46.1712066  97.1193347  33.5724425
  46.4611904  97.6352076  34.9655581  78.4394447  82.4932260  78.2419968
  77.5924961  82.0828445  78.0673790  79.0666954  81.9694204  77.7435875
  22.4973670 100.7699034  40.0504017  23.3925287 101.0878591  40.1679468
  22.2872154 100.9771363  39.1398430  69.3157625  22.5738335  33.7613273
  69.2430115  21.6575766  34.0285635  68.8077497  22.6283002  32.9518914
  94.6605301  15.7117224   3.5834503  94.8193645  15.0517595   2.9085785
  94.5051861  15.2059925   4.3811572  89.6942139  29.3163943  50.5861759
  90.2691555  28.6375451  50.2328587  89.2892170  28.9118266  51.3533354
  21.2072651  81.5384258  14.4139844  20.9776870  80.6295861  14.2202455
  20.9166805  82.0281042  13.6445600   4.2323859  23.0881524  37.3240972
   4.0507682  24.0098071  37.5079536   3.4449084  22.6267004  37.6124883
  84.1014290  26.4922357  52.2775030  84.7854042  27.0445156  52.6561832
  83.4741497  26.3658714  52.9893923  10.8944885  98.2095242  27.6690531
  11.1849729  98.5837070  28.5008216  10.7233516  98.9686570  27.1116829
 100.6951714   4.0294126  75.7753849 101.1139679   3.1741950  75.6782246
 101.4029217   4.6130171  76.0487413  79.7317886  13.5152519  71.7145252
  80.0265312  13.7589288  72.5920057  80.2594948  12.7492416  71.4887190
  21.9488756   0.1379334  86.0188614  21.0833875   0.4855619  86.2340831
  22.2055904   0.6085430  85.2258584  12.7171365  95.7344998  12.7918935
  13.1171314  96.2123049  12.0652997  12.5361625  94.8646367  12.4357760
   5.2037517  79.5673425   9.0818644   4.5504610  80.2416188   9.2683929
   5.1160184  78.9430697   9.8021543 105.0961781  14.8887098  39.1872406
 105.5538273  14.5077097  38.4378219 105.1854134  15.8341265  39.0670061
  15.9688647  76.6974753  64.2701405  16.2417014  76.0587686  64.9288100
  16.4404758  77.4973958  64.5023983   4.4242175  32.5170255  46.4548731
   3.8882907  31.9287157  45.9229755   3.9677795  33.3575010  46.4161777
   4.9418823  95.4666341  41.0157824   5.5723039  95.3572542  41.7277050
   5.1604930  96.3151760  40.6305361  54.0701190 100.4497332  41.9954300
  54.9212829 100.8787160  41.9075155  54.2798225  99.5230440  42.1116400
  73.3769512  21.1266804  57.8746557  74.0380812  21.4945817  58.4609890
  72.6369333  21.7303634  57.9392815  82.7252102  30.0350571  48.3111525
  83.3580971  30.6827998  48.0011129  82.1922207  30.5078483  48.9503860
  16.2308772  40.5119705  36.1525607  17.1808227  40.5617094  36.0460258
  15.8860954  41.1503887  35.5282402  75.3224897  22.5210118  71.5543461
  75.3218937  22.6121116  72.5072002  74.4581223  22.8305268  71.2836075
  72.9899502  19.6974099  60.4870272  72.1939993  19.8811519  59.9880934
  73.4681082  20.5266213  60.4890919  61.1768723  19.6868789  49.9979877
  61.3466787  19.8830307  49.0766191  60.2389288  19.8435307  50.1073027
  64.8209906   8.2968616  69.5458364  64.7814035   7.4033600  69.8868895
  64.1769409   8.3117527  68.8378716  93.6226940  30.1869321  36.7217088
  92.7292442  29.9438667  36.4790249  93.5702705  30.3904772  37.6555467
  82.4032974  24.3142891  56.7273521  82.7867126  24.1471338  57.5883293
  81.7603874  23.6146522  56.6115427  74.5227003   8.7670648   1.3988590
  74.6429205   8.2538903   2.1978775  74.6224499   8.1323928   0.6893006
  64.8594999  10.1939070  53.6813545  65.1210976  10.8922827  53.0812979
  64.1722059   9.7203940  53.2126951  26.7983190  98.0173535  49.0753269
  26.0477773  97.8865827  48.4958220  27.5010292  97.5040326  48.6766672
   7.8704015  83.4689159  57.7239943   7.5687114  82.7406842  57.1809530
   8.6782686  83.1493957  58.1258440 104.9103165  21.0556626  50.1053858
 104.0440655  21.1469078  49.7085094 104.7329235  20.8685637  51.0272121
  33.5262346  33.2881403  51.2781096  33.5117435  33.5510921  52.1983671
  33.1354833  34.0270615  50.8116913  59.4905806  23.5849285  56.5078783
  59.9225855  22.7312732  56.4782667  58.6854315  23.4289122  57.0014668
  24.8885147  90.1669819  75.4813671  24.9489252  90.8441169  74.8075199
  24.5450489  90.6234009  76.2494469  47.9878235  27.5902176  47.4229622
  47.2306299  28.0084491  47.8328037  48.7021208  27.7249670  48.0457401
  12.5200542  10.3484654  52.1538353  11.9561752  10.8957636  51.6072607
  12.1963676  10.4852676  53.0441999 101.2782764  19.3745363  57.3558950
 101.8573952  20.1178885  57.1877384 101.7024612  18.6365962  56.9180107
 104.6569729   7.3929834  67.6106644 105.1655388   7.0650280  66.8690205
 105.2587795   7.3454368  68.3534956  72.8727770  28.0388165  35.7266402
  72.2644949  28.7137818  35.4255676  72.5318146  27.2256899  35.3540778
  65.7554913  11.2050557  49.3528557  66.5998411  11.3135397  49.7905016
  65.9798288  10.9229171  48.4661198  56.6851997  21.8965411  34.5352221
  57.3726845  21.2346148  34.4613719  56.3969660  21.8418765  35.4463553
  83.3468246  34.5141196  50.3456926  83.9242458  34.5854044  49.5856047
  82.8374672  35.3244877  50.3363657 101.5896416   7.2587419  17.6666331
 101.7999363   6.7960691  18.4777689 102.1829128   8.0098724  17.6586235
  60.3569603   7.8684974  77.1567965  59.6347809   7.2403055  77.1646595
  59.9517584   8.7022656  77.3952723  27.6598398  77.6584036  19.5981383
  27.6287214  77.6869113  18.6418688  26.7582933  77.8266747  19.8722351
  64.5313835   4.5517915  51.6385937  63.9146948   5.2233601  51.9300127
  65.0300837   4.3274447  52.4242115  53.6732284  86.3603634  28.2191181
  53.5218326  87.2147400  27.8149486  54.6246521  86.3018639  28.3063126
  77.8433704  12.2800303  56.7670250  77.9361677  13.0977011  57.2559357
  78.1038237  12.5042629  55.8736563  63.0947447   7.6616991  55.0149584
  63.0797434   8.1630641  55.8302116  62.6728630   8.2339644  54.3740511
  77.6907253   3.4320498  60.3809643  78.2652235   2.8514004  59.8819351
  78.2698059   3.8547868  61.0151529  67.0326471  13.2079244  35.3890657
  67.3761368  14.0294933  35.0379634  67.7616358  12.5921214  35.3142571
  55.7013226   2.2452196  62.7677822  55.7835531   1.9812371  63.6841774
  55.9791231   3.1611514  62.7565289  10.9252254  83.9138574  33.3674717
  11.6398183  83.3857090  33.7233472  11.3630144  84.6184821  32.8898978
  73.4547520  17.8205061  37.7848101  72.5986004  17.6584756  38.1810284
  73.8222408  16.9480348  37.6434708  64.0495825  14.5483756  35.2612925
  63.5402060  13.8095760  35.5943680  64.6679306  14.7490990  35.9638500
  80.2971458  15.9000731  13.1183338  79.7324419  15.3854311  12.5417161
  81.1748123  15.5476213  12.9709721  91.5003204  22.4896431  41.8069315
  91.2498379  22.8257799  42.6674557  91.4351082  23.2472801  41.2255859
  92.3248577  15.7185972  16.7892158  92.6549911  16.5337300  16.4113271
  91.6059017  15.9925258  17.3586857  65.1298952  21.1886263  72.7547741
  64.5508242  21.9477224  72.6863384  65.6329155  21.1969137  71.9404459
 101.9406796  20.6322908  59.5890617 101.5409946  21.5020204  59.5962954
 101.4675331  20.1569390  58.9061165  80.3899097  24.5738101  40.5064774
  81.3063812  24.6154904  40.7795811  80.4280472  24.4394255  39.5595264
  69.3007994  14.8297262  14.2140353  69.5642138  14.4131303  13.3934915
  68.4852409  14.3902361  14.4547570  71.2951612  16.5022802  42.2921944
  71.7074871  17.2468853  41.8542624  71.2132788  16.7768764  43.2054996
  70.3575754  25.9540296  10.7632935  71.1734295  26.2288022  11.1817622
  69.6830702  26.4929605  11.1766016  51.7511559  19.6560729  47.5706673
  52.4903011  20.2625537  47.6162481  51.0346842  20.1185751  48.0054045
  43.6780111  96.0845787  32.7339005  43.0289833  95.4486848  32.4328446
  44.2539779  95.5837698  33.3115602  53.0849449  97.5541858  33.7608767
  52.4294940  98.0421741  33.2624006  53.8599292  97.5514323  33.1990671
  34.6370451  82.4644310  40.2694988  34.7764484  81.5191013  40.2133799
  35.2426235  82.7557892  40.9511280  46.6510574 101.1059812  18.1472635
  47.4569313 100.5990979  18.2466400  46.0646335 100.7575941  18.8187969
  74.9178076  17.3919344  66.1747980  74.8545504  16.4383638  66.2289715
  75.6328678  17.6186979  66.7693615 107.0919800  32.8287053  61.9341326
 106.6454792  32.0642924  62.2981930 107.8086662  32.4630404  61.4156008
  39.7847358  87.4267335  48.6697865  40.6008903  87.2964067  49.1526413
  39.3960897  88.2082064  49.0628338  85.5217648   9.3665868  33.3268189
  84.8134804   9.9369156  33.6256218  86.1627102   9.3882877  34.0374231
  72.9424429  26.6768479  38.0484939  72.6754951  27.4085951  38.6048365
  72.6221418  26.9093227  37.1769476  63.9722625  97.3065276  29.6549773
  63.5535709  96.4523793  29.7615838  64.7680274  97.1225707  29.1558266
  57.6650000  26.6044998  59.0435839  58.3324528  26.4192700  58.3829594
  58.1574488  26.7167974  59.8566723  54.1893148  34.2217970  25.3360868
  53.3957863  34.7300959  25.1682210  53.8705158  33.3490777  25.5662203
  81.7941761  43.0105257  68.7798548  82.5317001  42.9967308  68.1698465
  81.6240597  43.9406109  68.9289665  76.3045597   6.4744604  49.1693306
  76.0683632   6.5523422  50.0936556  76.5265179   7.3666227  48.9028454
  30.1673603  19.8667836  55.5866098  30.2804947  20.7152390  55.1581764
  29.3397784  19.5323622  55.2409172  52.5797558  26.0469723  32.5199032
  53.1913185  25.3739834  32.8187561  52.0649052  26.2648082  33.2968855
 102.8285027  25.6789374  43.0049896 102.6329803  24.8837018  42.5094080
 103.0228424  25.3683519  43.8892984 106.0465527  30.6247067   0.4387042
 105.2952862  30.1036716   0.7221705 105.8638191  31.5057778   0.7651307
  51.7755032  20.2963209  28.4605765  51.5161943  21.2169647  28.4980679
  52.7307844  20.3186536  28.4042525  97.7024889  66.2528127  79.8381120
  96.7803478  66.2445014  80.0946790  97.9588079  67.1732610  79.8956126
  62.7358913  20.2153802  41.9717789  63.0957222  20.4065609  41.1056376
  61.8026447  20.0697422  41.8166161  89.6329784  18.9782250  33.1244183
  88.7478256  19.2939198  32.9425287  89.7628117  19.1530848  34.0565133
  55.3400993   2.4528912  37.1264982  55.8457851   3.1185222  37.5928140
  55.9922981   1.9657610  36.6229367  53.0304996  89.8387165  32.3882365
  53.4282676  90.6022365  32.8066230  52.4195282  90.2065951  31.7497873
  98.4373951   6.8803889  65.7750034  98.6173248   6.3008398  65.0347471
  99.2941284   7.0325130  66.1738539  77.8870487  40.9754086  18.5086215
  78.4182167  41.5307236  17.9379046  77.0963573  41.4888954  18.6740613
  15.1691906  63.6619169  41.1795139  15.1852361  64.0896589  42.0356750
  15.7903615  64.1621143  40.6501961  81.2747097  15.4517317  44.7941256
  81.3487625  15.9296548  43.9680862  81.1603928  16.1337078  45.4559946
  62.4981976   9.3283755  57.2966719  62.9225969   8.8420123  58.0034685
  61.5715885   9.1003823  57.3718023  63.3011055  13.1073630  18.8023126
  62.3784161  12.9653203  19.0137386  63.2927418  13.8128090  18.1553912
  53.6854410  35.8338308  41.3076782  52.8950071  35.8396864  40.7678556
  54.4047737  35.9016228  40.6798267  44.8262072  14.6191752  58.7252760
  44.0286493  14.5565832  59.2508411  45.3267336  13.8363874  58.9553881
  87.5788490  95.8530552  37.6289701  87.1031181  95.3721751  36.9517183
  88.2529346  95.2425379  37.9274750  65.0440502  33.5294771  85.2544403
  65.4871798  32.6934266  85.1099205  64.1142321  33.3295751  85.1462078
  75.1801395  18.9841819  35.9342718  75.9556723  19.3502057  36.3594842
  74.6733618  18.6003017  36.6498470   2.4573644  74.3690723  82.8676033
   2.7045568  74.3965786  83.7919259   1.8357690  73.6436599  82.8073930
  88.2147312   2.1805590  34.1322947  87.8043747   1.6292414  33.4660459
  88.7069511   1.5686533  34.6795845  90.8916569  28.3655405  34.2912817
  91.1542034  27.8932810  35.0813890  91.2975788  27.8777528  33.5746765
  85.2435970  23.6527681  47.9765892  84.9426460  24.3177605  48.5958195
  84.7601509  22.8631139  48.2194090  37.9547334  15.3337300  66.3390827
  38.1376028  15.7232368  65.4840517  38.3186913  15.9561872  66.9686127
  89.7986221  19.3787944  36.3067842  89.5159340  18.9360344  37.1069598
  90.7497025  19.2711449  36.2967038  73.9499235  31.4337277  26.7715645
  74.5188904  30.7545042  26.4093995  74.0102482  31.3162851  27.7196169
  24.6659414 100.9288231  55.2663898  24.2572395 101.0335277  54.4071865
  24.0771667 101.3835768  55.8687019  22.1252004  98.7845308   4.4713730
  22.9847185  98.8968823   4.0653628  22.0069591  97.8360809   4.5232695
  62.6509714  31.7915225  24.6991873  61.9643974  31.1665821  24.9322033
  62.7360296  31.7107129  23.7492061  75.2603626  13.7040567  54.3948078
  74.7233629  13.7550056  55.1855469  75.4237127  14.6167433  54.1570044
  25.2047912  92.0026786  44.8566055  24.9032299  92.3923803  44.0359783
  25.4249898  92.7515150  45.4106712  69.2760038  30.6554556  33.8258481
  68.7352800  29.8658228  33.8439536  69.4841242  30.8243489  34.7447562
  71.9683886  26.1237478  26.1223936  71.8285894  26.3021111  25.1924062
  71.0871077  26.0851717  26.4939952  84.1341591   7.3219061  44.2006111
  84.3619537   8.2413888  44.0631580  84.4397068   6.8785661  43.4092093
  91.1100578  17.9380059  47.3061228  90.2588272  17.7078605  47.6785135
  91.3384724  17.1920037  46.7515612  82.4842644   5.9772915   7.2752398
  82.5450706   5.6259662   8.1635553  82.1647739   6.8719029   7.3928404
  19.7795574  79.9418940   0.8395273  20.2656261  80.5214991   1.4260751
  18.9555256  80.4012264   0.6776220  87.1627426  15.0529969  59.4713402
  86.5878010  14.2968225  59.5891047  86.9730091  15.6171846  60.2209568
  50.8748333  91.0558779  63.0168629  50.6490413  91.2299687  63.9306164
  51.3529865  90.2270419  63.0420303  82.8883839  40.0141907  52.5473118
  83.2104015  39.8013139  53.4232235  82.0017338  39.6542692  52.5240660
  36.4191699  21.2425661  48.2070160  35.5484390  21.0152364  47.8808546
  36.6798687  20.4902434  48.7383127  27.4449134   9.9943674  45.6430674
  27.3024535   9.7411019  44.7310400  28.3524776   9.7477221  45.8211708
  65.2486753   8.1996304  10.5432165  65.1562119   8.5908836  11.4118958
  65.5958033   7.3234862  10.7108617  70.8271209  88.3748848  62.7022505
  70.5844490  87.9983313  63.5481501  71.4507858  87.7501971  62.3320580
  22.0774881  91.2917001  37.0349121  22.1063892  92.2135908  36.7789531
  21.8920938  91.3095100  37.9738164  32.4264566  93.5104723  40.5883455
  33.3672658  93.3444686  40.6479359  32.3607055  94.3681688  40.1685047
  45.9079258  96.9916759  36.3733006  45.2067749  96.3408310  36.4052320
  45.6379406  97.6653902  36.9973612   4.0211145  87.5583882  78.5793781
   4.1850130  87.1875436  79.4464636   4.8110334  88.0611677  78.3806944
  61.2450019  98.7853391  56.7474318  62.1840278  98.9704076  56.7329121
  61.0988800  98.2280160  55.9830570  80.0026894  39.3600655  51.6029930
  80.3389931  38.4673810  51.6820574  79.2668962  39.2858672  50.9952688
  26.5911555   6.6593945  43.3363008  26.2826276   6.2505478  44.1449356
  27.3056936   7.2321123  43.6149788  47.5263977   9.3125153  29.3044066
  48.1998444   8.6402529  29.4081616  46.8326712   9.0521193  29.9103546
  42.0433140  11.3027692  49.1425562  41.7909336  11.1488509  48.2321453
  42.8819513  10.8513641  49.2382145  45.5061722   6.9443202   4.4601715
  46.3449526   7.3949915   4.3623191  45.2740908   7.0674103   5.3806162
  96.1241055  27.2679234  39.6771240  96.2884998  28.0641556  40.1823187
  96.9798946  27.0293760  39.3208051  12.4343196  72.9934222  18.6707234
  12.7647487  72.1351416  18.4053814  12.8445426  73.1558544  19.5201743
  58.3300773  71.6710765  33.3383584  58.4903137  71.9706709  32.4434853
  57.6642601  72.2702176  33.6759186  80.5975628   2.4732392  43.2931566
  80.8497429   2.9737413  42.5171852  80.7717896   3.0637288  44.0260983
 106.8177700  31.2684870  20.8289266 107.6012516  30.8783269  21.2164474
 106.5036392  31.8835592  21.4916778   5.5252917   4.3119949   7.4595809
   4.8087676   3.6780795   7.4906135   5.4918655   4.7529984   8.3084804
  54.8398876  17.0008826  16.2388134  54.9865961  16.7556143  17.1523511
  54.1616440  16.3977134  15.9348357  72.4297762  25.8357120  34.4590878
  72.3424482  24.8960257  34.6190643  73.2304382  25.9170532  33.9408636
  49.0388727  22.1787143  24.3238068  49.8864222  22.3919082  24.7142363
  48.7595034  21.3834214  24.7773409 100.0095367  10.5359697  33.2832217
 100.7462215  10.7967174  32.7304697  99.2796230  10.4268098  32.6736856
  28.0006695  48.2630730  35.8322525  28.3237600  48.5397005  36.6897607
  27.6076674  49.0518141  35.4585266  18.4240095  94.9840642  49.8476124
  18.7696401  95.8454860  50.0815344  18.0892316  94.6286685  50.6709290
   8.5055725  64.6110643   8.5629541   8.1652347  64.6301438   9.4574052
   8.2271568  63.7623729   8.2188016  11.8315394  60.9932988  87.5746275
  11.6031535  61.1202412  86.6537809  12.1130450  60.0799780  87.6278729
  75.1258421  35.9021902  26.9464397  75.7660580  36.4577579  26.5018034
  75.0001764  35.1605678  26.3544631  27.0560686  99.2409373  69.4457769
  26.5981380  99.1547561  68.6096525  27.2927610 100.1671115  69.4948769
  45.9705535  90.3781147  37.5015473  45.1971046  90.6054134  36.9854665
  46.4250843  89.7205741  36.9749784  57.2592258   4.8814374  31.4804292
  57.7643442   4.8605594  32.2932339  56.3590670   5.0447905  31.7619681
  70.7954073  24.4402647  38.8962531  70.0837231  23.8004923  38.9169884
  71.1283302  24.3992066  37.9997563  44.3333618  95.3521723  28.6467552
  43.5531990  95.6940026  28.2100296  45.0477020  95.9032465  28.3269548
  81.4322948  28.7159467  37.9660702  82.3449612  28.7526989  37.6798487
  81.1159134  27.8698063  37.6495624  84.5016670  13.4446537  46.5160275
  84.8977661  13.3040929  45.6560373  85.2447414  13.4871268  47.1179199
 102.3751640  29.6995449  50.9475899 102.9682350  30.4354572  50.7961464
 102.7018547  29.0066266  50.3736830  29.0101035 101.3027137  83.0435425
  28.2774814 100.6904691  83.1118053  28.7025245 101.9777768  82.4386286
  93.5169411  70.6159687  40.9258938  94.2201138  70.4504871  40.2978802
  93.5340405  69.8577499  41.5098858  10.9256633  30.7314062  82.5418854
  11.1289199  29.8067594  82.6831150  11.0305103  30.8583665  81.5989494
  88.5481262  11.4331961  71.2325954  88.8094425  11.7027247  70.3520823
  88.0792618  12.1894884  71.5853214  77.1450377  33.7598991  53.7424135
  77.2691917  32.8109884  53.7620211  76.2288618  33.8867259  53.9889383
  51.2447929  23.2157087  38.0973768  51.0242176  23.0803013  39.0189219
  52.2017050  23.2314610  38.0799532  82.6953411  31.2062430  67.0214558
  82.2320843  31.8647432  66.5037632  82.8175640  30.4714584  66.4202976
  91.5370464  42.5697327  49.2604923  92.0035362  43.3970213  49.3797159
  91.4335632  42.4875879  48.3124590  77.9200411  54.5347357  54.7521877
  78.6209917  54.1360950  55.2679300  77.1164083  54.1515255  55.1036882
 106.0363960  31.0530257  18.2011819 105.1140594  31.3084936  18.1848919
 106.3127232  31.2108350  19.1039383  95.5424786  16.9685674  26.0347366
  94.8427486  17.4645400  26.4597344  95.2266693  16.8252671  25.1425695
  64.0349054  16.2886858  65.3515911  64.1629887  17.2204804  65.1738691
  64.2788601  16.1845279  66.2713051   6.1616023  68.6265516  66.0995054
   7.0157798  68.3699656  66.4470148   6.3005622  68.7043333  65.1556444
  77.8155518  30.9086537  39.1175508  77.7808619  31.3139725  39.9840045
  77.7694225  31.6443658  38.5069489  92.1152115  50.2909708  62.4097776
  91.7855644  50.3670073  61.5143538  92.9172421  49.7751379  62.3267412
  66.5707016   0.8741790  21.5575576  66.4468050   0.2678786  20.8272982
  65.6973267   1.2278029  21.7260790  77.7262497  30.4517102  43.4896803
  77.6036358  31.1941552  42.8980970  78.6543322  30.4813671  43.7220812
  21.5142480  84.7933013  59.7335196  21.7551557  85.5457074  59.1930771
  22.3464910  84.3630750  59.9297476 105.5408764  44.7907782  37.0751810
 106.3491249  44.5489359  36.6229868 105.7163143  45.6624937  37.4295378
  98.9824486  24.9705458  65.5431557  99.4432259  24.9691415  66.3821554
  99.3648720  25.7037687  65.0611067  19.1195051 102.1702082  43.8264418
  19.2584077 101.4651015  44.4587088  19.0315429 101.7231700  42.9846287
  91.8387890  41.4343309  59.9102211  90.9300995  41.1809397  59.7480106
  92.1837711  41.6556978  59.0452242  90.8886528  37.8333688  33.8917661
  90.8651447  38.3798552  33.1062531  91.7415524  38.0167341  34.2856717
  98.7630272  45.0845051  77.1072435  99.7012043  44.9937868  77.2740412
  98.6705780  44.9277353  76.1675024  73.0924177  23.0046940  34.6621203
  73.1008053  22.0560670  34.5345855  73.9030170  23.1897855  35.1363516
  64.0572929  25.1547027  61.6308594  63.3526087  25.2592134  60.9915400
  64.8302412  25.5153513  61.1964417  85.7540035  11.4044476  72.7084589
  85.3259373  11.0062563  71.9505501  85.5689621  10.8042586  73.4307909
  98.2723808  65.9304953  56.2198782  98.7606812  66.7200899  56.4529753
  98.0199909  65.5481243  57.0603085  99.1645622  33.9410591  69.7805500
  98.6793804  34.4007874  69.0953684  99.8094082  34.5788789  70.0864744
  37.5224201  94.4303412  50.0549507  38.3371059  94.4691510  50.5559587
  37.6521150  93.7061966  49.4425583  86.2164021  30.9097672  68.5663605
  86.4683819  31.6101599  69.1681814  86.5963840  31.1674380  67.7264452
 102.1922302  61.4382505  15.5715632 102.1679020  61.8819189  14.7237432
 101.6577816  60.6539965  15.4469097  20.1425592  96.5075941  47.2047377
  19.4084016  95.9847302  46.8824625  19.7878114  96.9799305  47.9579210
  59.5230055  26.4779496  81.1720276  58.8332605  25.8260226  81.0476303
  59.9419451  26.5500188  80.3143978  89.2471981  31.9057894  38.8607717
  88.3857155  31.5019560  38.9656830  89.4434452  32.2781801  39.7204471
 107.2718620   4.1070285  13.3798373 106.4174080   4.5072952  13.5408247
 107.2424316   3.8410628  12.4608004  74.4099808   2.0624457  38.0466056
  74.0771675   1.7387432  37.2095370  75.1211643   1.4619726  38.2699370
 104.7428894  40.1822042   3.0138806 103.8869953  39.8231292   2.7798957
 105.2312374  40.1930571   2.1907005   6.1568149  54.2637920  16.7544377
   5.5324252  53.5580778  16.9227684   5.6109412  55.0216722  16.5449905
  79.1959906  69.7649860  20.9495616  79.3011761  69.1324663  21.6602588
  78.7597799  69.2731619  20.2538157  75.7967901   8.2161725  62.9159880
  75.4869270   8.0259383  63.8014412  75.7590771   7.3738402  62.4629021
  78.3460951  18.2476294   7.1426266  77.6012087  18.8442683   7.0691365
  78.9474392  18.5292172   6.4531893  25.6119625  99.4696128  60.9382105
  24.7283355  99.7055759  60.6558037  26.0115377  99.0698067  60.1657295
  89.5984936  37.4209595  45.1427794  88.8278389  36.8834472  44.9600172
  90.3139687  36.9761825  44.6883583  95.3519344  29.6560740  16.4147818
  95.9333515  29.6919751  17.1743143  95.7938957  29.0679407  15.8024120
 103.7653160  15.3882587  19.8253238 103.7854195  15.0345898  20.7145619
 104.6840382  15.5507529  19.6113670  85.8350372  21.5040112  56.0896397
  85.3760147  22.2244811  55.6578350  85.2543926  21.2446356  56.8050480
  73.3607197  24.6678519   4.4415122  74.2433691  24.9747944   4.6487516
  72.8055334  25.4388618   4.5578858  48.5088062  18.5551071  41.3391972
  47.7781296  19.1514361  41.5027046  49.0254641  18.5829043  42.1445036
  53.3346033   0.0717118  63.9389181  52.6422787  -0.3958128  64.4061804
  53.8819838   0.4430284  64.6308231  80.3044701  48.6718178  44.1911554
  79.6527624  49.3703079  44.2513704  80.8514690  48.7869787  44.9681711
  75.8570528  11.3623512  43.3061457  75.6260443  10.8906758  42.5059032
  75.0616598  11.3356304  43.8379955  86.9714546  19.5407271  58.6038589
  87.1148777  19.2118192  59.4912577  87.7137470  19.2052412  58.1011868
   4.2442210  38.0729175  35.1943803   4.3261417  37.3279667  35.7898355
   4.5039352  38.8294697  35.7201242 103.6008167  32.4905610  31.1060452
 102.8628635  32.4880099  31.7156792 103.3422565  33.1054831  30.4195690
  72.0223761  18.2919478  56.4707184  71.6643238  18.7297118  57.2429800
  72.9564953  18.5000980  56.4889526  58.7775660   7.4367267  64.7378397
  59.2510366   8.2561380  64.5942402  58.3245373   7.2737288  63.9105368
  92.4652481  57.7021456  51.8063641  92.5728512  58.1237698  50.9537888
  92.5256729  58.4192371  52.4375200  82.7032566  28.3468676  65.6569099
  81.8847275  27.9960203  66.0078382  82.4864292  28.6122441  64.7631598
  66.5420341  34.5944166  36.6032481  66.4706802  33.6420655  36.6678119
  66.1400890  34.9198675  37.4087000  94.1730690  76.7566586  23.6478448
  93.8981628  76.0842943  23.0244851  95.1284313  76.7618608  23.5886979
  59.7904301  24.7120094  44.5174122  60.0178957  23.7829471  44.5539665
  60.0218058  25.0494719  45.3827572  68.1738424  12.4696958  43.2294178
  68.3118916  13.0928087  42.5160408  67.2568464  12.5883162  43.4769535
  90.5194855  11.2206817  64.5620251  90.9978771  10.8177316  63.8374519
  90.7998562  12.1358693  64.5545912 106.6279316   6.4968872  65.6940031
 107.5325298   6.7576396  65.5209398 106.1356449   6.8264914  64.9421787
  70.9531927  13.3911681  45.5018997  71.8846846  13.6027300  45.4402590
  70.6609583  13.8273871  46.3022423  45.5217544 101.3650322  42.2938347
  45.8671371 100.5400864  42.6350212  45.3550712 101.8954178  43.0730295
 104.0691709  71.9321435  85.2814686 103.8839722  72.3301452  86.1320737
 104.4131803  71.0642832  85.4929158  99.2622852  41.8278027  35.0839853
  99.3610477  42.3676491  34.2997408  99.8020744  41.0560274  34.9130344
 107.6459599  49.8181677  44.1568518 106.8698406  50.0175238  44.6804333
 108.2167149  50.5772972  44.2759752  63.9427328  34.9887776  32.2751617
  63.5301447  34.1514277  32.0633936  63.9072943  35.0384474  33.2304144
  85.5005455  16.8785536  27.7923656  85.5222988  15.9926128  27.4306083
  86.3302326  17.2695255  27.5185061   3.2312854  58.1268454  35.1212144
   3.7158759  58.2613754  35.9356499   2.4750980  57.5986147  35.3769088
  14.1503604  20.5952239  55.6232214  13.3847125  20.5239654  56.1932564
  14.8920615  20.6576943  56.2250662  16.2897285  25.5408525  42.8008986
  16.0315402  25.0507593  43.5815239  15.5516036  25.4401398  42.1998501
 104.5856667   8.7735790  71.1465216 104.6265316   8.8990659  72.0945787
 105.0701618   9.5160079  70.7855463  96.3007069  22.1575356  45.0678253
  95.4120350  21.9389820  45.3484344  96.6138077  21.3675976  44.6271467
  90.6008053  38.6908937  48.9646959  91.5191078  38.6948347  49.2347479
  90.2947330  39.5800352  49.1435432  85.8150101  13.5279894  34.0292859
  85.0224400  13.3717203  33.5158205  85.9366512  14.4769514  33.9992070
  78.7733555  19.2397058  48.6134768  78.9754725  20.1599145  48.4443712
  79.0308189  19.1015220  49.5249844   2.0828613  39.8799658  38.0732965
   1.6837962  40.7483912  38.0202293   3.0248912  40.0470066  38.0429959
  62.4300528  16.7221963  38.7169361  61.8060780  16.0731292  39.0418983
  62.8022051  17.1133626  39.5073295  49.4961882  10.2222598  55.9582901
  50.2563810  10.7403934  55.6939554  49.6142673  10.0861394  56.8983793
  89.6241283  38.5353374  15.7633519  90.3836346  39.1177893  15.7523370
  89.9743462  37.6903725  16.0455084  91.7004871  50.8353281  79.5498085
  91.7217159  51.7649984  79.7767305  90.8596611  50.7156944  79.1082907
  58.0830956   8.9341354  70.2199650  58.3843660   8.9074844  69.3118048
  57.8345490   8.0308950  70.4164648  62.5189877  21.6997814  23.9646649
  61.9620895  22.3603773  23.5527110  62.0143414  21.3984227  24.7201419
 105.7285690  56.7417002  52.6084900 106.4161491  56.6108894  53.2614422
 105.3196239  57.5715160  52.8542566  10.2213844  65.8528519  38.2964015
   9.5150264  66.3565588  38.7008405   9.8793586  64.9603987  38.2436895
   7.5116714  30.8488798  54.8208046   7.7811511  29.9598455  54.5900822
   7.4016078  30.8266973  55.7713985 100.1991272  27.3283267  21.1056161
 100.8001995  27.9893064  21.4491892 100.5298042  26.5000606  21.4532590
 101.1304951  40.5764294  30.7164335 100.7321072  39.8288536  30.2707314
 101.3834286  41.1699009  30.0092936  82.4994659  16.3843012  52.6886320
  82.0042419  15.7060206  53.1479025  82.7425385  15.9806657  51.8554306
  80.6098080  30.9320641  39.1734505  79.7249699  30.7316947  39.4786358
  80.8498764  30.1837587  38.6269689  90.9959221  58.1956148  68.7061405
  91.4455032  57.3701048  68.5254765  91.3993740  58.8240862  68.1074047
 103.4043789  30.2506399  28.6253715 104.1491127  29.6632242  28.7539887
 103.6260319  30.7498264  27.8392959  34.6604101  88.7283690  62.2244596
  34.4156162  88.0907435  62.8950882  33.9647810  89.3852562  62.2532415
  85.3944588  52.8878021  48.7316990  86.1026955  52.4536991  48.2560921
  85.1946926  53.6637497  48.2080317  81.9903278   1.7698510  56.2132406
  81.7042160   2.6830250  56.1911631  81.9632244   1.4881884  55.2988243
 107.3247623  14.1617250  60.1229668 107.4443531  14.4964290  61.0117292
 106.6125393  14.6896517  59.7620392  99.8764133  27.9085255  80.3190899
 100.6556416  28.2349682  79.8691273 100.1419067  27.0594454  80.6723785
  99.1310406  25.8585238  41.6020918  98.5924911  25.0977159  41.8197250
  98.9988995  25.9846210  40.6624794 103.1487751  18.3766317  67.8381920
 102.9661274  19.1880822  68.3119249 103.5992336  18.6599863  67.0425606
   3.8249572  22.7984548  71.6432810   4.3369468  22.6166582  70.8552122
   2.9481300  23.0018306  71.3176298 107.4370384  10.6730497  56.8304873
 108.1136894  10.2767968  56.2815237 107.2093582  11.4865148  56.3803005
  97.8065491  20.6136703  52.9618597  98.3167744  19.9621308  52.4808216
  96.9106388  20.4975462  52.6454782  76.0433245   0.9296416  44.2182827
  75.7043028   1.7792751  44.5000935  76.7424011   1.1436793  43.6004543
  89.0490913   5.2224511  44.2824459  88.6328030   6.0411716  44.0129328
  89.7518349   5.0902712  43.6461210  92.5899124  44.2617798  39.0114856
  92.9507828  43.3906651  39.1763020  92.0411682  44.4420528  39.7747779
  85.2933121  17.2317028  52.6684237  85.2037811  17.1209109  51.7218781
  84.4039154  17.1283627  53.0068493  79.2194843  12.0907414  35.6346583
  79.9448395  11.5086758  35.8611393  79.1808701  12.7175701  36.3570333
  83.9883518  45.8504820  55.2695227  83.3940601  46.5822029  55.4357481
  84.8268223  46.2645674  55.0652409  95.9617615  18.1929135  46.1434889
  95.9574890  18.6907840  46.9610071  96.8883133  18.0291617  45.9676170
 104.5333290  38.3865738  56.7513943 104.3791771  38.1493521  55.8369541
 105.4861927  38.4334826  56.8293095   4.6999152   6.6614050  39.4258094
   5.4430659   6.1618018  39.0876412   4.8087199   7.5355816  39.0513635
  22.3140796  26.6823411  25.9452820  22.5847514  26.1203170  26.6712952
  21.5161784  27.1091700  26.2573934  85.2734470  29.3827438  64.8105049
  85.3611660  30.1880717  65.3203964  84.3606186  29.1211319  64.9311113
  73.5773134  25.4905820  84.1128826  73.2656765  25.3752065  83.2152176
  73.2996655  26.3751483  84.3509769  35.5593769   7.8897654  81.8938094
  36.5049163   8.0376135  81.8756795  35.4658548   6.9655167  82.1245736
  88.7529087  17.1535182  62.6104689  89.4559002  17.1114218  61.9621992
  88.1618881  16.4401650  62.3695278  21.7441638  29.9096251  83.8721943
  21.5715678  30.8504057  83.8351154  22.6853164  29.8324299  83.7156487
  92.4969864  47.1481326  86.3922186  92.6537943  47.9564064  86.8804157
  91.6925955  46.7924183  86.7699125 100.8798122  24.9337482  56.7657471
 100.5748844  25.8050728  56.5126753 100.1810837  24.3439078  56.4827251
 104.9040508  33.4248400  51.8771601 104.2161274  33.4862065  52.5399017
 105.7150173  33.5914993  52.3575687  76.2288713  31.7707443  69.1761780
  75.3548098  31.8545794  68.7950945  76.1611032  32.2019267  70.0280666
  73.2918596  34.3536496  20.0382996  74.1495752  33.9509106  20.1738048
  73.4463406  35.2910924  20.1547766  78.0577421  23.5856056  52.2923565
  78.4984255  24.1437387  51.6516399  77.5947666  24.1974139  52.8646946
  59.9390785 101.4866838  31.1659861  60.4699890 101.9590818  31.8072414
  60.4884044 101.4467029  30.3831244  92.2570610  11.7747617  27.6537466
  92.8659153  11.3848972  27.0264268  92.6927471  11.6802740  28.5007906
  83.6874580  14.8784387  61.5596151  83.6402798  13.9937150  61.1973047
  83.2850552  14.8046422  62.4249840  59.6698761  40.9723425  11.7172813
  59.5416355  41.2980080  10.8263683  58.8141966  41.0725451  12.1344125
  71.2508821  23.5147357  36.4769983  71.8407202  23.1972480  35.7932425
  70.5617666  23.9793158  36.0021114  38.2567112  94.4755126  45.1159859
  38.9808504  94.7608144  44.5587969  38.6282531  93.7743289  45.6512737
  82.7366638  31.2875819  52.8339291  82.6675797  31.1500549  51.8891811
  83.0413914  30.4473853  53.1766224  72.5920725  26.9280171  22.7898335
  72.6124811  27.6821661  23.3789635  73.3933544  27.0067334  22.2721601
  92.3261929  17.7372253  32.6413822  92.9610538  18.1815529  33.2032967
  91.4871502  17.8577602  33.0860400  92.8675747  43.1182432  64.6149588
  92.6685333  43.8194323  63.9945126  92.0550251  42.6161814  64.6777391
  62.9182720  13.6916804  15.6561911  63.3209753  12.8410971  15.4813457
  63.6152697  14.2079973  16.0609698  98.4603310  20.3016782  36.5074849
  99.0750980  19.9100804  37.1279168  97.9461670  20.9138942  37.0338488
 100.5481490  63.9108623   1.5444452 101.0790022  63.5233332   2.2403223
  99.9835404  64.5386793   1.9953233  98.4756947  41.9599962  67.4279308
  99.4000816  42.1610212  67.5739861  98.0325413  42.8054094  67.4994278
  84.7369289  62.2256088  42.1984005  85.4889679  61.6713142  41.9900179
  84.3354225  61.8080044  42.9603910 104.6058750  28.6186123  24.3244052
 103.8766003  28.1505585  24.7310090 105.3808212  28.3073401  24.7921634
  20.5254729  23.3237648  74.5890808  20.6041225  22.6629329  75.2770853
  20.0881084  22.8691435  73.8691807  88.4065723  35.4210448  64.7383118
  88.1136703  34.8544931  65.4520750  88.7910938  36.1798334  65.1771927
  98.7383366  61.7557859  33.7651014  98.4192467  61.0202122  33.2422805
  99.1875744  61.3468266  34.5048094 106.6733551  44.3915129  42.3414040
 105.7923603  44.5799160  42.6647949 106.6753292  43.4466362  42.1883202
  98.8011074  35.9512615  35.7132363  99.5369720  36.3584614  36.1703062
  98.4743977  36.6350317  35.1284719   2.3122485  71.2291050  26.1222100
   2.4205287  71.4979124  25.2099347   2.7187236  70.3636408  26.1667466
  84.9338055  73.8415670  57.6980925  85.7188797  74.3884850  57.7256775
  85.2669525  72.9442120  57.6969910  86.2990665  51.3574171  65.5186987
  85.9848595  51.8256140  64.7451973  87.2054863  51.6470861  65.6222248
   1.6116222  36.0900593  27.1096730   1.6247161  35.1537895  26.9110322
   2.2876723  36.2026048  27.7778983  98.3312702  39.5298886  59.0593815
  97.6745129  39.2708182  59.7057438  99.0660477  39.8530531  59.5808125
  90.1700878  27.9536605  66.5608644  89.7797489  28.0344176  65.6906080
  91.0591125  27.6393151  66.3963842 100.9889126  63.1999445  70.7567072
 101.1928844  63.6280775  71.5881681 101.2790585  63.8219595  70.0895119
   7.9464515   0.7010576  56.1883736   7.2439941   1.0381867  55.6323767
   7.5179370   0.0560169  56.7509842  94.3157768  29.1670299  57.2229624
  93.4257507  29.2549062  57.5640774  94.3016148  29.6414232  56.3917112
  95.4590130  55.7063198  68.4520912  95.4240894  56.6426706  68.6476898
  94.8373699  55.5883265  67.7338505 101.5264893  37.9044008  27.6682496
 101.3680553  37.1848226  27.0572352 100.6829929  38.3519244  27.7351379
  85.5560970  20.1153302  33.8590503  84.8354149  19.6803343  33.4033918
  85.3395176  21.0466957  33.8156080  87.6534557  50.4545403  49.5546293
  87.0024586  50.2180910  48.8939285  88.2404327  49.6994448  49.5935011
  94.8021507  12.3612773  76.5655422  94.4982052  11.5558362  76.1470795
  95.7164669  12.4419773  76.2939739  10.0264152  53.2387924  55.9871531
   9.6004279  53.0440617  55.1523829   9.9668964  54.1905260  56.0701561
  99.1072225  83.5112684  87.9537507  98.8373422  82.7089780  87.5068431
  98.4168434  83.6707752  88.5973077  85.3602695  25.8731365  70.2222204
  86.1385345  25.4385042  70.5709791  85.6791878  26.7188692  69.9071646
  92.2668266  31.3088799  72.3592424  92.8727818  31.9526052  72.7262163
  91.5578747  31.8327570  71.9861841  97.0062065  47.2282076  72.2626925
  97.9369354  47.4175978  72.3814344  96.7107391  46.9303083  73.1230354
  93.7502289  66.9309044  39.4482112  93.9682198  66.1091471  39.0084100
  94.5980167  67.3175716  39.6672416   5.7338889  88.7335300  47.4652719
   6.6560348  88.9899731  47.4755049   5.6843169  87.9936504  48.0705452
   6.6375716  33.7380934  60.1567554   5.7676109  33.9335990  59.8086643
   7.1817096  34.4702005  59.8666382  12.9072841  61.8088722  23.2329679
  13.8260253  61.8678999  23.4950113  12.8580554  61.0079575  22.7111053
  52.0062915 101.6118512  78.0489969  51.1871234 101.3220457  78.4505033
  52.3102848 102.3237412  78.6120558  16.9687645  75.7608594   8.7838918
  17.3300068  76.2832202   8.0677396  17.7309314  75.3395165   9.1811449
  92.2809410  63.2529640  56.0986757  91.4943218  63.7780571  56.2460995
  92.8480148  63.4570789  56.8423176  90.4578304  41.6513300  65.5005455
  90.7543755  40.9386635  66.0665846  89.5872402  41.3797855  65.2097273
  89.2656898  33.3644295   6.9416291  89.9635124  33.8040233   7.4274606
  88.4745789  33.8568401   7.1605039  79.8565435  53.7966013  37.5040841
  80.2381229  53.5645676  36.6574478  78.9422512  54.0002155  37.3070025
  64.5478344  63.0050373  64.4468212  63.8626480  63.5702896  64.8035288
  65.3663969  63.4208012  64.7176218  95.5114651  39.2763352  43.1954288
  96.2177277  39.4622326  43.8141918  95.9198475  38.7318754  42.5223589
  90.2503014  63.1913519  38.2373810  89.5814705  62.6548100  38.6628342
  89.7595119  63.7600040  37.6440930  27.3672287   0.5477755  63.0787373
  26.5433876   0.7076686  62.6183748  27.1018306   0.2153724  63.9362383
  96.0298252  23.0812836  35.3201270  95.5771160  23.8390064  35.6904531
  96.8044758  23.4493017  34.8950315  63.0657816  60.8143091  37.3558331
  63.2798910  61.1902332  38.2096887  63.8961077  60.4638052  37.0334387
 104.8134422  40.6579638  49.5180559 105.3664589  40.7124853  50.2974367
 104.5678329  39.7344637  49.4627714  13.1127723  51.2606430  32.8623891
  13.7110027  51.5720415  33.5416436  13.6016925  50.5737877  32.4091554
  82.8252602  37.9999447  80.5768967  82.8708363  37.0513844  80.6968403
  81.9253159  38.2278848  80.8100510 106.1645603  64.1508961  51.1653900
 106.4190388  63.9960623  52.0750618 106.1259937  65.1040506  51.0863829
  80.9705448  17.4302065  36.4956975  80.5121422  18.2704031  36.5088654
  80.3899097  16.8482459  36.0053658  84.7262478  36.9655490  56.1516142
  84.4883251  37.2238564  55.2611589  85.6570816  37.1773338  56.2218094
  94.7933578  45.8766127  56.7823982  93.8747120  45.8068752  57.0421219
  94.7629356  46.1467743  55.8646202  73.1124353  41.2923384  22.2590423
  73.7744570  41.9788980  22.3402524  73.1147909  40.8553982  23.1106949
  91.8803406  50.0164318  14.7404718  90.9268188  50.0252962  14.6572053
  92.1619511  50.8472538  14.3575037  27.9684814  60.1044941  50.4655504
  28.5367091  60.4931545  51.1306000  27.1215327  60.0078535  50.9009457
  14.8107894  34.2276168  32.4067020  15.1032336  34.4463706  31.5219069
  14.6462901  35.0747442  32.8208852  95.4499912  61.8198967  26.4784956
  95.1204205  60.9808064  26.8002725  94.9305058  62.4755764  26.9437337
  91.3280487  29.5250392  53.6871910  92.2438240  29.7817659  53.7952709
  90.8385277  30.3434563  53.7696648  86.5790367  39.3149924  61.7577982
  86.9192505  38.4882212  62.0997524  87.3330975  39.9045682  61.7625952
  88.2048893  75.9584284  53.8858318  87.9220963  75.5322313  53.0767488
  88.4959126  75.2391577  54.4463587  92.7841568  49.1572762  19.5730507
  91.8496799  49.3396378  19.6717215  92.8655148  48.7941885  18.6911333
  58.1580639  10.9815025  63.8703537  58.0338049  11.2451029  62.9585934
  58.9881754  10.5049074  63.8708830  96.4339447  50.6594181  23.0574393
  97.0905781  50.7317591  22.3647451  96.4910698  49.7490120  23.3474922
  98.8274097   7.4602979  57.3345661  99.0578556   7.8787178  56.5050745
  99.2829132   7.9778427  57.9985619  93.6590576  73.5419798  62.2119951
  93.9910889  72.6578045  62.3676157  93.3490372  73.5254860  61.3065386
  85.6410885  35.7898188  13.3466792  86.2001228  35.0446129  13.1267178
  86.2396717  36.4358306  13.7216425  91.6739559  16.1388516  45.2471304
  92.3896599  16.0008371  45.8675814  91.1704922  15.3253186  45.2774191
  89.5286274  57.3524809  46.4607143  90.1932526  56.6744089  46.3393784
  89.6054077  57.9050303  45.6828833   4.6795257  92.9699326  28.0471683
   5.3942760  93.6056614  28.0820274   3.9181026  93.4804726  27.7718067
   1.0771068  38.5064816  50.7839584   0.9014877  39.3527126  51.1953974
   2.0253356  38.4957027  50.6536531   7.2575458  56.3364267  68.2463121
   8.0868514  56.6334629  68.6208200   6.6727241  57.0893335  68.3320093
  12.4219688  70.4245281   7.0673454  12.3044570  70.7907629   6.1908209
  12.1113475  69.5221472   6.9935066  64.4304848  57.6487017  40.3699207
  65.3619099  57.4984264  40.5314684  64.1433048  58.1871080  41.1074018
  96.2368584  33.3845067  57.5491476  96.1705303  32.5843167  58.0702305
  95.3695583  33.7844491  57.6129436 100.0913906  44.5723915  58.6314440
  99.2469788  45.0231075  58.6242104 100.1469707  44.1818666  59.5035839
  14.5341380  14.1778874  15.6111658  14.5095142  13.3315408  16.0576212
  15.1496394  14.7014976  16.1242127  82.6859570  47.8525686  48.6295795
  82.0315552  47.1610260  48.7283468  83.4451485  47.5355434  49.1188192
  67.6294041  62.8240347  53.3048105  67.0731068  63.1601906  52.6021290
  67.0163202  62.5671053  53.9935303 101.0046482  32.1319199  28.5536933
 101.6730213  32.7430463  28.2438016 101.5004539  31.4159369  28.9509034
 100.3471088  55.3098631  43.0668354 100.5784416  54.5177984  42.5817060
 100.5870533  56.0280371  42.4812746  17.3908027  65.2208090  53.0430651
  16.5356811  65.5559874  52.7735138  17.1890624  64.4587183  53.5859680
  10.1405128  74.8977566  77.5454903   9.7800239  75.7369184  77.8319979
   9.5632442  74.6193027  76.8345356 102.3254585  43.6573410  32.0677948
 103.1343651  44.1551828  32.1863604 102.3933315  42.9372406  32.6947570
  94.6330261  44.5523882  51.7880297  94.4016743  45.2900505  51.2236166
  95.4123783  44.1743469  51.3806820  99.0483856  23.1881905  63.4871197
  98.6047745  22.4583244  63.9192581  98.9902592  23.9089608  64.1142941
   6.1581214  52.7152634  76.3061905   5.5996974  52.4532795  77.0381451
   6.3577541  51.8965435  75.8522320  96.0577583  58.0788565  46.9536686
  96.5777683  57.3513079  46.6123438  95.8909130  58.6325598  46.1909056
  76.0404587  70.9713268  38.5316205  76.0724640  70.7560062  39.4637394
  75.1788998  70.6681490  38.2452106  90.6965828  68.3356380  55.6340981
  90.1033211  69.0218449  55.3285027  91.5279961  68.7862682  55.7821417
   7.1860107  60.3112507   8.3738136   6.8907626  60.8758497   9.0881580
   7.8359016  60.8361959   7.9065812   3.8821490  63.4995842  45.6644726
   4.3756660  63.0097771  45.0066233   4.5039256  64.1465712  45.9977007
  13.0008109  50.4903841  18.2565355  12.0796474  50.5801821  18.0123591
  12.9820140  50.2878380  19.1918719 104.8742104  93.1394196  45.7309580
 104.4506741  93.9955902  45.7927847 105.1924324  93.0941677  44.8293400
  27.5420364  30.2941561  55.0342703  27.9273875  29.5028114  54.6580887
  26.7112048  30.0013065  55.4086781   5.6145652  45.9203100  55.7329798
   4.7975524  45.4495096  55.8974934   5.3463824  46.8316317  55.6155205
  93.6171150  55.6328058  47.6886559  94.0964127  54.8276520  47.4931192
  93.9641094  55.9188986  48.5336304  63.5534859  61.5803909   3.6710376
  64.0664864  60.7862806   3.5211930  64.0456486  62.0615053   4.3362767
  83.4534359  58.5128021  18.1139851  84.0731049  57.9090786  18.5235763
  83.9046860  59.3569565  18.1158292  88.4104919  54.5898724  64.6166515
  89.3581581  54.4663429  64.6705532  88.0442142  53.8413095  65.0875282
   1.2357314  18.0322123  42.9034233   1.8308147  18.5259628  43.4676218
   0.4828628  17.8374994  43.4615517  94.5159531  73.3929968  28.7228680
  95.2909374  73.3581734  29.2835927  94.4274902  72.5033092  28.3810186
  98.1200314  14.0977514  41.8471909  97.7210426  14.5558786  41.1074924
  98.9933968  13.8578534  41.5374660  85.5126286  26.7869568  66.0523558
  84.6393394  27.1437716  66.2144709  85.9228992  27.4174905  65.4604673
  91.9562626  52.7630186  52.2279787  92.8698730  52.6647806  51.9598484
  91.6195583  53.4695339  51.6768885  92.7226257  64.8181581  33.9562583
  91.7958355  65.0552034  33.9895844  93.1791115  65.6517649  33.8424206
  19.3563064  36.7719221  57.3237658  19.1296943  35.8484578  57.2137976
  19.8231109  36.8062043  58.1587219  98.9756107  95.3634357  43.2303810
  98.7144279  94.7517967  43.9187956  98.1495190  95.6963730  42.8797340
   4.7420390  50.8956051  48.6948490   5.3041156  51.6342831  48.9286375
   3.8910278  51.2919331  48.5079575  95.2789211  51.5686417  14.9354470
  94.5661449  52.1475220  15.2057707  94.8408318  50.7682037  14.6462929
   6.5824683  42.6243687  57.6631308   6.2203582  42.5834465  56.7780113
   5.9247955  42.1959877  58.2110214  10.5034049  68.7363100  26.9201827
  11.3696750  68.5721731  27.2928238  10.5694087  68.4288836  26.0160995
  78.8929462  52.3204851  53.2136059  78.6826897  51.4612770  53.5793686
  79.1727304  52.8397655  53.9674616   3.2464011  61.9432926  75.7242489
   3.4751399  61.8639374  74.7981739   2.5071033  61.3464785  75.8403492
  77.9124594  55.3650951  36.3557649  77.9054022  56.3195848  36.2840962
  76.9999599  55.1082039  36.2231731  31.6258987  46.0434914  74.8313761
  32.4812015  45.6798649  74.6023321  31.3416751  46.5031004  74.0413094
  76.9484186  70.6546736  59.2439365  76.3809681  71.0905695  59.8797274
  76.6525888  69.7443342  59.2434454  97.4300003  98.8594246  56.9645309
  97.5516129  98.9103222  56.0164499  96.5018463  99.0518951  57.0976305
  13.9954654   4.5104545  23.6477876  13.3939354   3.8240283  23.9362526
  14.5457355   4.6832602  24.4117093  69.3488018  95.1328874  60.0362778
  69.8629562  95.5228240  59.3292904  69.8954956  95.2362896  60.8151627
  76.2365675  57.7339411  47.6582813  75.4492950  57.6858568  47.1159506
  75.9207392  58.0251694  48.5136604 101.0004520  69.2828035  40.1935911
 101.3130951  69.0335608  41.0632849 101.7842293  69.2690897  39.6442914
  98.8015270  76.7242241  46.3377905  99.3116188  76.6953659  45.5283451
  98.1777859  76.0030413  46.2536669  55.1488018  19.4010782  59.3406487
  54.4976234  19.0051794  58.7614536  55.3943062  20.2163148  58.9032125
   1.0678180  45.1633883  15.0828505   1.5060123  44.6522856  14.4024158
   0.7795795  44.5126724  15.7229412  79.4759274  56.9387293  55.5107689
  78.7282038  56.3639784  55.3470564  80.2117157  56.3417196  55.6465387
  83.4860706  78.6241484  78.4730196  83.7826729  77.7321386  78.6535025
  83.5443115  78.7079573  77.5212765  15.3549655  31.4248323  72.0498037
  16.0457309  31.8086934  71.5096807  14.7687133  31.0007834  71.4231348
  99.6782684  56.9387913  83.3504581  98.8708591  56.5854311  82.9770184
 100.1036358  57.3877335  82.6198769 102.2394562  72.8902578  32.2759318
 102.7410603  73.6446571  31.9668865 102.4988365  72.7890682  33.1917453
  71.7504549  50.5768824  30.8717346  72.0907927  49.6841097  30.9296966
  72.3042727  51.0023022  30.2171040   8.7190993  58.5053205  44.0214539
   9.2421992  58.3585596  43.2333803   8.4545024  57.6286030  44.2999983
  15.0794204  29.3701124   0.0376712  15.3343089  28.9310670   0.8491521
  14.8868449  28.6564612  -0.5704794  95.2332878  53.3166456  12.0098817
  95.6110764  53.2093191  12.8828049  94.7730923  54.1550207  12.0494902
  85.2149582  29.6668506  62.0068836  85.0193310  30.5523753  61.7006016
  85.0545311  29.6987152  62.9500055  31.5134986  44.1788960  48.8517141
  31.4489921  45.1287270  48.7522793  31.8363174  44.0528536  49.7439766
 100.2354717  70.4063416  65.3209400  99.4747925  70.9150648  65.0402069
 100.3607559  70.6492472  66.2382889  79.7503090  45.4653072  54.4417906
  79.9777555  45.1746273  53.5586119  80.5219078  45.9456730  54.7419834
  99.5266724  39.1398406  52.3050690 100.3508091  39.1409874  52.7919197
  99.0028000  39.8255134  52.7193594  99.6730137  38.0946374  63.7886047
  98.8700962  37.7958274  64.2155170  99.7309589  39.0238547  64.0109348
 100.3829670  44.0463114  42.5697470 101.1626816  43.5003376  42.4687529
 100.6393242  44.7147846  43.2050896  79.0357494   9.1072607  43.5846043
  79.3042040   9.2794323  42.6820946  79.3760824   8.2326728  43.7730217
   1.6585620  37.6417112  54.9288082   1.7301543  36.7080784  54.7302294
   2.5338729  37.8913975  55.2249718   3.6773093  59.4451237  66.1140203
   3.0791743  58.7162066  65.9492970   3.5057243  60.0613642  65.4019547
  98.7648964  66.9391298  43.4751606  98.0968761  66.2664223  43.3430815
  99.0679359  66.8027544  44.3728256  94.9779892  54.3965769  71.3003826
  94.9093628  55.2147818  70.8083868  94.3788910  54.5098209  72.0382738
   6.2911264  78.4867610   0.6539232   5.6343929  79.1158713   0.9525091
   6.9111053  79.0104355   0.1463586  97.9842567  47.9905081  18.2610381
  97.6519585  48.8680363  18.0719674  97.2281265  47.5179100  18.6090994
  91.1501694  46.2395954  52.2947598  90.3448963  45.8456373  51.9592524
  91.6662025  45.4978180  52.6105213   2.0974715  59.5844316  85.7402897
   2.5860389  59.5728397  84.9172497   2.5636943  58.9673519  86.3042831
  81.6584682  46.0639286  40.6426048  82.1911907  46.2775326  39.8765635
  80.7843304  45.9005833  40.2884436 102.2095680   3.6217541  62.8661776
 102.7782536   3.7947842  62.1159124 102.3548508   4.3638718  63.4530210
  95.4135799   5.5637926  39.0879250  96.3232327   5.3378034  38.8937974
  95.1255417   4.8899212  39.7036910 104.2618179  32.5477839  40.7756948
 104.2481709  31.8036699  41.3776445 104.8386669  32.2697711  40.0642300
  30.7729324  78.3746195  43.6592007  31.4683517  78.5069895  44.3034887
  30.0629695  77.9652548  44.1537762   3.5840686  35.0821161  72.7515841
   3.1944640  35.2394891  71.8915415   4.5104488  34.9242139  72.5695944
  78.9295959  30.7035160  63.8694000  78.1950521  31.1172605  64.3227148
  78.8683081  29.7786760  64.1084623  90.2320099  49.8895931   2.9173768
  91.1505890  49.7085619   2.7181682  90.1654053  50.8441734   2.8936237
   1.2717612  30.9870410  79.3335152   1.3851340  31.1777592  78.4023809
   0.8680518  31.7772532  79.6924305   1.1589416  30.3895783  56.6922235
   0.3032478  30.6673384  57.0191336   0.9584220  29.8252678  55.9455156
  96.7689037  31.5488148  43.0922365  96.4247799  32.4417853  43.0717611
  96.7133141  31.2917542  44.0125942  96.7059517  41.0205126  34.7194982
  96.3121796  41.2643433  33.8818073  97.6260185  41.2700939  34.6333337
  84.9604034  68.6563158  74.7809267  85.2190304  68.3986568  75.6657743
  85.6135178  68.2485914  74.2122126  80.6205368  60.8666611  62.7047586
  80.3703403  61.3575506  63.4874868  80.6006527  59.9501848  62.9802752
  75.4573250  48.2572174  17.7768505  76.1737061  48.6806107  17.3038125
  74.7944021  48.9414024  17.8699338 104.5071220  49.2913103  63.2128859
 104.5533657  50.1749182  62.8477383 104.2704964  48.7369490  62.4692965
 102.2799587  47.9688549  49.4730997 101.8333817  48.3664227  50.2205944
 101.6065979  47.9101896  48.7953234  17.1874984  43.4834766  77.5467443
  17.8898414  43.5285139  78.1955290  17.5982459  43.7647486  76.7291880
 105.0259399  67.0058346  61.5700293 105.1829720  67.8910780  61.2415314
 104.2757130  66.6924763  61.0648537 107.9720020   1.5859626  27.4904728
 107.0303440   1.4194018  27.4484706 108.3739376   0.7423431  27.2831345
  95.8766174  30.6113982  68.2976580  95.8937550  29.8558259  68.8850641
  96.0260773  30.2417064  67.4274731  83.1209660  44.5635509  50.0680780
  82.2142410  44.8628807  50.0011396  83.1213856  43.9661646  50.8159781
  87.2662354  41.9017696  49.9112988  86.7765999  41.9580317  50.7318592
  86.6470814  42.1941185  49.2424059  90.0911331  93.2432556  41.2709761
  89.2243958  93.0903721  41.6473007  90.5917358  93.6482048  41.9792509
  95.8461285  27.3536062  58.0142832  95.2822399  28.0777502  57.7424812
  95.3971100  26.5691328  57.6992941  88.9567280  46.0875893  39.1663718
  89.2054272  45.4160070  39.8014736  87.9996681  46.0715151  39.1631651
  13.9034541  38.7278533  13.4197783  13.1725963  38.3371973  13.8988006
  13.5308059  39.5078421  13.0087054   3.4353622  18.9422309  30.9985185
   3.2494434  19.6999490  30.4439664   3.0842288  19.1812921  31.8563008
 103.3753967  53.1275511  68.5983372 103.2925510  53.9565516  68.1270361
 104.2399788  53.1696939  69.0069342  94.2316055  63.1556416  42.2363949
  93.3319664  62.9116011  42.0188379  94.6046734  62.3676109  42.6314306
 103.2522202  53.1845999  42.2163820 103.3900070  53.5555887  41.3448238
 104.1344929  53.0159950  42.5471449  91.6153717  27.7214742  49.4840384
  91.6447735  28.4916806  48.9164591  92.4589252  27.2904325  49.3467283
  20.4398044  49.0345287  48.2119179  19.6657069  49.5932817  48.2811069
  20.7898696  49.2171621  47.3399448   8.5942157  35.7789493  18.7297058
   9.1450771  36.3183331  18.1623900   8.9481433  34.8944783  18.6365652
  75.8183384  75.2480602  12.1863353  75.3661537  75.8347273  11.5800548
  75.4250002  74.3899822  12.0275259  84.6187496  59.9500179  60.5538988
  84.3808079  59.6980715  61.4461660  85.3055573  59.3313265  60.3054142
  57.5254536  67.9181576  26.8030977  56.7762136  68.1704473  27.3427415
  57.9724836  68.7430048  26.6132879   2.8306182  31.7175221  49.0293598
   2.6425727  31.1590004  48.2750845   3.6341079  32.1797752  48.7907076
  90.6647587  37.6994014  56.3654947  91.5246582  37.8741407  56.7479515
  90.5000305  36.7763686  56.5581322   8.7790950  47.3442268  65.4228067
   8.4218295  47.3755169  66.3102865   8.3451636  48.0638218  64.9644232
 106.2300682  32.1203852  72.5732660 106.7513561  32.6161647  71.9418430
 105.3242588  32.3580313  72.3751259 105.9972000  42.4034262  39.1017628
 106.6043377  42.3887014  39.8416281 105.3274059  43.0389404  39.3541813
  39.1235526  61.5404797  64.9291801  39.1924079  60.7605743  64.3785095
  38.4716113  61.3096380  65.5909300   4.2454513  66.8868685  33.7415051
   3.7076553  67.2082710  34.4651747   5.0361713  67.4253845  33.7731600
   1.7872317  59.2489862  57.8927946   1.8983539  59.3444014  56.9468641
   2.6746448  59.1159296  58.2259893  33.5495074  38.1032252  15.6037676
  33.1181510  37.3258162  15.9584415  32.9021819  38.4876204  15.0126326
 106.1251926  36.1871767  54.9213362 105.1991558  36.1009932  54.6949291
 106.3387108  37.0970011  54.7143030  98.5448360  26.2955642  56.7922592
  97.8472996  25.7208776  56.4769602  98.1212425  27.1464133  56.9056654
  74.7746849  60.7174253  44.6119213  74.3842697  61.4267731  44.1014004
  75.7035017  60.7396889  44.3816328  80.7963753  60.7510185  40.7470942
  80.2839565  60.3937244  41.4723587  81.1381912  59.9808025  40.2930498
  92.4366093  39.4066429  24.0486670  92.5835800  40.1853228  23.5117435
  92.9859924  38.7326241  23.6485267  81.4090633  66.2537193  53.8946915
  81.2438107  65.3535128  53.6144161  81.6171265  66.7219353  53.0861616
  15.9178909  22.5337839  39.0836596  16.8560203  22.7027988  39.1707206
  15.7360252  21.8530369  39.7315335   1.7219527  45.1915264  43.5867739
   0.7977470  45.2153826  43.3387995   2.0748027  44.4320679  43.1231451
  97.9391766  62.2359228  42.9343367  98.5137272  61.8342018  43.5860586
  97.6112270  63.0280828  43.3599663  65.1771879  69.4055939  40.3885460
  65.3527689  69.3703270  39.4482493  65.9445381  69.8414326  40.7593012
  73.5811424  46.7597723  53.9447832  73.0266857  45.9795141  53.9475298
  73.0607462  47.4249840  54.3952465  87.1903706  51.0986567  31.4046073
  87.7448750  51.8768787  31.3486695  87.7711296  50.4141331  31.7368340
   9.1413863  60.6072855  34.4085741   8.1911071  60.4946280  34.3858695
   9.3092330  61.0599041  35.2351308  82.4518299  53.4143353  38.2279062
  82.7840710  54.0320778  37.5765657  81.4999199  53.4618235  38.1393695
  95.0711727  65.1911449  56.7371941  94.4363213  64.9414873  57.4086666
  94.7324657  66.0124683  56.3809109   1.7602332  51.4711046  47.1545935
   1.3759025  51.8340492  46.3565969   1.5723403  52.1236753  47.8291893
  89.8576927  45.6467342  68.1908035  90.3689289  44.8387098  68.1464767
  88.9620018  45.3747272  67.9908609  77.6957512  66.3181448  14.2351162
  78.4189892  65.7016039  14.1209483  77.0525360  65.8387661  14.7573280
  82.5032043  74.1598558  54.6562910  82.6522636  74.7803926  55.3697014
  82.0095634  74.6579742  54.0048075  80.2007771  54.6280956  31.0097075
  79.8956728  54.7561884  31.9078922  79.4592905  54.8920298  30.4649425
  89.7707836  14.2838608  83.0594140  90.6533424  14.6541868  83.0728084
  89.2612926  14.8583113  83.6309600  89.8578262  58.3159685  43.0356216
  89.7266865  57.3764896  42.9075289  89.0166855  58.7091351  42.8029299
  17.5060932  10.0165790  41.7036104  17.6290504   9.7885745  42.6250887
  18.2233898   9.5742648  41.2496567 106.0605717  72.5177383  35.9885359
 105.4564476  73.2224464  35.7547379 106.7216110  72.5294590  35.2963519
  13.9537891  54.5356655  49.2756367  14.1515811  54.3226814  48.3636332
  14.3138393  53.8034582  49.7761011  20.6082328  74.1161728  36.5210247
  20.4003890  73.2947063  36.0758066  21.5128692  74.3025494  36.2697649
   6.3323005  93.0484486  51.4366484   6.2278159  93.6383820  50.6901312
   6.2848933  92.1710300  51.0570192  97.5361729  31.9623733   0.4097264
  97.4935055  31.3197899   1.1178916  97.7681541  32.7829504   0.8445473
 104.3377209  61.7154980  52.6944828 104.0600204  61.0876274  52.0274734
 103.6654854  62.3966885  52.6768494  11.7340072  37.9471159  29.5644069
  11.6438945  37.6336217  28.6645007  11.1513217  38.7049365  29.6135235
  93.8953590  70.3277779  54.9248934  93.3130646  70.7440424  54.2893744
  93.5653019  70.6150532  55.7762241  96.3731861  65.5072832  43.2640791
  95.4487610  65.7241201  43.3851147  96.4242268  65.1659346  42.3712683
  84.3649673  49.0903330  54.4282341  84.8299694  49.8926306  54.6655703
  84.4621277  49.0293837  53.4779310  15.6535037  54.9624062  54.9535227
  15.4394611  54.3573618  55.6636906  15.0822623  54.6972990  54.2326689
  75.6516123  35.5503035  15.4340386  75.3510094  36.0770535  16.1745834
  75.1269436  34.7510266  15.4800057 105.1429558  91.2676048  30.0789714
 104.9879646  92.1048164  29.6416044 104.9518108  90.6093502  29.4108462
  18.3662494  76.3507557  51.0506153  19.1585334  76.8277979  51.2974882
  17.7251228  77.0348310  50.8576536  65.7358217  57.0700312  28.7556815
  65.7957554  56.4580679  28.0220985  66.6033173  57.4717093  28.8039923
 107.3987293  78.8204050  43.7996054 107.9022312  79.3949413  43.2228708
 106.5636826  78.6994457  43.3476114  45.1353542  34.0392815  86.4816433
  44.5188037  33.3154522  86.3713126  45.0080863  34.3265949  87.3857927
  83.9354324  46.3631439  12.7737844  84.8489285  46.5717173  12.5781918
  83.6231041  45.9018946  11.9953668 104.7871780  47.3893642  45.3117800
 105.6849384  47.0943642  45.4641819 104.2782593  46.9789600  46.0109282
 105.5511379  59.8787642  63.4625959 106.1868954  59.2671633  63.0911398
 104.7889423  59.3370628  63.6671638 101.1964512  59.7245121  33.7773681
 101.2840557  60.1808691  32.9405332 101.4700794  60.3680897  34.4309449
  86.1537552  47.7513790   1.7869468  85.4258251  47.6122952   2.3927622
  86.6181087  46.9144535   1.7743208  98.3109188  77.7472019  66.6974354
  99.1348457  77.4647999  66.3004017  98.3270741  78.7018442  66.6293716
  99.5762062  50.4731941  80.6107712  98.7776566  50.8175135  80.2107906
  99.5711422  49.5413637  80.3919029  51.5276424  12.4525397  20.6369042
  51.8564884  13.1106704  20.0245595  50.7392589  12.8460448  21.0108471
   5.1194843  51.0230637  52.1464205   4.8915752  51.9324350  51.9532108
   5.9882243  50.9069300  51.7616653  98.8893700  58.4395790  47.8008699
  98.0482674  58.0584717  48.0529404  99.2365551  57.8388023  47.1415091
  32.0712932  97.2244835  49.5403719  32.8517993  97.7739620  49.4688845
  32.3101791  96.4102840  49.0973759   5.2798732  67.8973293  29.1369963
   5.3478034  67.0102024  29.4900107   4.4520267  67.9011631  28.6564898
  97.5741291  48.7925529  46.9111252  97.2093201  49.2004681  46.1257839
  98.0370808  48.0200911  46.5867710  11.8596442  94.8991585  34.2226171
  11.1143001  94.3545055  34.4756961  11.9727023  94.7307014  33.2871652
  24.6376403  85.0496101  24.6890616  25.0364669  84.2649555  25.0652122
  25.3772243  85.5586052  24.3571520   8.4828170  92.6268959  42.5201321
   8.3454593  92.9254532  41.6211176   9.1404327  91.9354248  42.4450445
 105.6049824  71.4264631  73.8383770 105.1399612  72.2066975  73.5363531
 106.2263298  71.2314034  73.1368732 105.6477833  74.4563150  48.6188364
 105.1375675  74.8804665  47.9289055 106.3891315  74.0612221  48.1599951
  64.4636726  75.1351261  40.9578085  64.7505903  75.9705734  41.3265038
  63.5080147  75.1894379  40.9566116   0.7889445  77.2593355  26.4174199
   0.5112251  77.1036863  27.3201251   1.0929855  78.1669569  26.4134836
  68.3594227  91.1931515  12.3275208  67.7961922  90.9171772  13.0505991
  68.2089186  92.1354961  12.2528863  25.6103976  92.3594093  25.3261638
  26.2843497  92.5813961  24.6837139  24.8185809  92.7871799  25.0001740
 104.4040203  77.3495960  23.3522606 105.0874519  77.7548504  23.8860536
 104.8257828  76.5824270  22.9652143   6.7275985  28.1517935  22.9660368
   6.1211379  27.8634310  22.2839189   6.9937022  29.0301657  22.6942205
  11.4338000  79.9935389  52.3143673  11.6736301  80.1710892  53.2238674
  11.7799743  80.7399940  51.8252850  83.9940166  66.6425705   7.3867464
  83.5310650  66.0851812   8.0122256  83.5339355  67.4809933   7.4268395
  26.6719516  23.4879231  71.7818403  27.1840747  22.7740669  72.1618176
  27.1851905  24.2748332  71.9651222  96.2730026  79.2270851  60.8074045
  96.6520882  80.0786114  61.0251856  96.1607742  78.7916994  61.6524315
 106.5483952  46.4724827  33.6000490 105.9440517  47.2003317  33.4542966
 106.9714451  46.6758156  34.4342613  10.2771075  37.0984197  81.3900948
  10.6990894  37.4457717  82.1759129  10.4919227  37.7301145  80.7037735
  89.2615032  28.4985924  68.9415646  89.5474434  29.4036126  69.0656757
  89.4600582  28.3082676  68.0247307 101.1982441  79.5081139  24.6601009
 100.5311775  79.8350334  24.0564656 101.3716984  78.6144638  24.3642354
   8.5866054  16.6217029  38.0240750   8.4564479  17.1967661  38.7781239
   9.5020087  16.3488960  38.0860972   9.5795043  40.9849262  35.7851601
   9.6436389  40.3877020  36.5304422  10.2513869  40.6800032  35.1753855
  93.1803703  26.8413138  14.5253825  93.9312363  26.9922709  15.0995207
  93.2865143  27.4790978  13.8195527 100.2821159  46.6997051  33.5727620
  99.9225903  45.8149338  33.5082984 101.0669327  46.6006374  34.1117287
  75.4927969  60.4637575  49.4107008  74.7981644  60.8882809  49.9141884
  76.3035679  60.7582760  49.8255920  91.9008636  60.1871920  64.0771484
  91.0220718  59.8077965  64.0720129  92.2489834  59.9969149  63.2060337
  77.6332855  87.9592323  62.0476770  78.4197712  87.4680805  61.8100929
  77.5326347  88.6037064  61.3471365   2.0239433  53.0956078  37.5865698
   1.2865623  53.4045601  37.0602107   2.0271381  52.1467257  37.4606943
  87.3923874  78.9523935  49.2636251  86.5076351  79.2095041  49.0041018
  87.8622055  78.8428926  48.4368753  84.9981785  64.0940046  38.1770873
  84.2657280  64.6439791  37.8991151  85.5833626  64.6917009  38.6424422
  33.2694523   5.7242053  61.8357229  33.3554546   4.8858588  61.3818359
  32.6771919   5.5419391  62.5652695  91.6934395  91.5340710  23.6945939
  90.7781696  91.8036366  23.6181331  91.8497181  91.4816570  24.6374941
  74.0265179  75.1330757  55.5085659  73.8217258  74.9521542  56.4259338
  74.8042393  74.6050358  55.3281355 100.7458401  70.4965162  22.9085851
 101.6079807  70.4197693  23.3173013 100.7863903  69.9112892  22.1522164
   7.6611980  78.3603811  33.0545354   7.1151050  78.9914036  33.5233927
   7.9840835  78.8422441  32.2931027  48.7401096   8.8965838  22.8375387
  49.4333355   8.8533633  22.1789026  48.6503975   9.8299544  23.0299449
 104.5732498  64.5557165  44.5908594 104.2828178  65.4662275  44.5374012
 105.5231190  64.6129799  44.6942520  14.1556438  36.5140843  54.6133089
  13.3952792  36.0192943  54.3079281  13.9710696  36.6918564  55.5355692
 101.5472031  29.2595291  58.2242107 101.3665485  29.2228794  57.2849321
 100.9241199  28.6450982  58.6121130  96.7700481  65.2807140  46.4649105
  96.4333534  64.9327660  45.6392002  96.0613441  65.8298731  46.8001461
  29.6215431   8.1953090  70.2432489  29.8191063   9.0021460  69.7676229
  28.6893551   8.2614844  70.4503202  30.4126533  42.3342419  47.1079302
  29.6154102  42.8531170  47.0011377  30.9645923  42.8596687  47.6871729
   6.5960963  76.3232327  63.6413622   6.3073524  77.2356558  63.6597204
   6.9774230  76.1752272  64.5067644  68.5006285  73.1907368  15.3584409
  69.1292286  72.5422621  15.6755805  67.9592848  73.3927441  16.1215758
  65.8560705  60.2719116  40.9914255  65.9023476  61.0208368  41.5857315
  66.6583633  59.7792101  41.1640692 105.4908752  27.9575229  50.0164986
 105.9697151  28.7716436  49.8611021 104.6461201  28.0907083  49.5865202
  23.1926330  62.9414272  59.5284271  23.8916000  62.7295637  58.9097166
  23.5882171  62.8115511  60.3903341  51.1152259  11.2988936  75.2697950
  50.5726329  12.0045696  75.6217164  51.8621055  11.2506996  75.8665162
 104.7825050  69.2247391  65.4957199 105.3338242  69.6379709  66.1601925
 103.8869667  69.4025373  65.7831621   3.5070880  39.3119097  60.4624414
   2.6183398  39.6665549  60.4867172   3.4613212  38.5939980  59.8309803
   3.3062347  70.9467030  54.4136906   3.6104758  71.2021208  55.2845669
   2.5902827  70.3336191  54.5803738   1.2044032  81.8267250  69.0607786
   1.7466338  81.6477108  69.8290062   0.4783805  81.2068272  69.1303396
  31.9320186  65.1461554  44.0920973  32.1866496  66.0686302  44.0713215
  30.9751495  65.1621866  44.1114092   3.1340392  28.1047654  50.9824038
   3.2813724  28.2747698  50.0520134   3.3163055  28.9412594  51.4105225
  10.1615985  25.0979686  77.3389387  10.7732280  25.5627656  76.7678833
  10.3894695  24.1743731  77.2327232  91.4699745  55.2456188  50.8863401
  90.7185268  55.5151510  51.4144564  92.1427155  55.8997011  51.0756350
   8.8095077  33.0365443  12.6957965   9.0212329  33.4939575  11.8820548
   8.5599025  33.7324595  13.3037722  64.9084663  64.8518181  29.4805026
  65.2690935  64.8721981  30.3669357  65.4569769  64.2217350  29.0132046
 100.9156132  39.6841502  19.5937490 100.6094170  39.9310803  18.7211061
 101.3169861  40.4807186  19.9410379  87.1365452  51.5982389  75.2989531
  87.3220825  51.6572237  76.2361431  87.9898357  51.7054129  74.8786592
  78.1250238  55.7108164  47.9436016  77.5386667  56.4480257  47.7734804
  78.3697462  55.8068705  48.8639927  54.7492305   6.3803332  68.8829470
  54.9687187   7.1561091  68.3669710  53.8114635   6.2540381  68.7384796
  20.0246890  67.5330830  55.9146881  20.8811649  67.9588604  55.8773851
  19.7361549  67.4951553  55.0027990 100.1882839  82.9091835  51.9073915
 100.8060646  82.4549484  51.3344479 100.7385063  83.3249664  52.5711775
  87.2160149  90.4400539  47.9635763  87.3105049  91.3019276  48.3691216
  88.0494785  90.0018215  48.1354046  21.6129573  43.7591314  51.1477137
  21.4437850  44.2845058  51.9297600  21.4535411  44.3577003  50.4179621
   9.5750658  79.7716767  31.3826299   9.5892564  80.6781537  31.0754943
   9.9610416  79.2695434  30.6649137  89.0922356  23.9617753  29.4637918
  88.8927364  23.9961433  30.3993416  89.4521809  24.8258662  29.2637515
  35.1500551  94.5219255  51.4983368  34.7491113  95.3899360  51.5434361
  35.9380523  94.6492363  50.9700537  72.5195265   4.5898795  21.6786170
  73.0653191   5.3422070  21.4498234  72.1531820   4.8112875  22.5347733
  20.9773485  91.6431207  24.2600775  20.0207559  91.6194553  24.2846084
  21.2005655  91.3819546  23.3666563  81.1734867  19.5628631   1.6488577
  81.8799114  19.8722744   1.0818872  81.4451599  18.6835039   1.9118255
  71.2003660   3.6610064  30.0115538  71.7421770   4.4485125  29.9614716
  70.4924202   3.8172069  29.3865395  77.9481697  10.2525520  50.9005117
  78.2553530  11.0705757  50.5097342  77.1701145  10.5025375  51.3988733
  33.1472285  56.3667154  84.6442166  33.6394866  57.0822834  84.2418727
  32.5356944  56.8012767  85.2387002  89.8008060   6.0310847  23.7857127
  90.1301670   5.8724976  24.6703577  88.8558865   6.1357081  23.8971210
  33.0616522  10.6397653  61.6644955  32.4440718   9.9133760  61.5797281
  33.1016302  10.8116043  62.6052952   1.1342700  31.1241841  17.5012672
   0.4383739  31.7040133  17.8107119   0.9783157  31.0438037  16.5602851
  51.1374092  13.7858725  58.5841131  50.7060194  14.1241145  59.3687963
  50.4679823  13.8370478  57.9018545  25.2589647  99.1404340  28.2306528
  24.3557970  99.4202919  28.3796477  25.2120677  98.5836605  27.4534559
  23.4462015  93.1629962  29.1061449  22.8150693  92.8521533  28.4570789
  23.0907909  94.0004069  29.4039035  38.4688560  91.0223705  27.1243739
  38.2377473  90.1176352  26.9139624  38.4348194  91.4798493  26.2842631
  83.4239674  11.9362652   6.6457105  84.0873528  11.9224882   7.3356032
  83.5965729  12.7449524   6.1635673  55.8365440  27.9069710  43.6253023
  55.0281954  28.1834126  43.1935883  55.9277105  26.9826746  43.3937883
  87.5847149  12.9084325  42.8117228  87.9519463  12.5133526  42.0209694
  87.7798080  13.8416135  42.7260065  71.5571737  22.2475314  29.7618198
  70.8695841  22.6327181  29.2186046  71.8773699  22.9753852  30.2946758
  51.4622299  90.6701178  49.3158579  51.4611331  90.9496803  50.2313232
  50.6313888  90.9920163  48.9661312  49.0324489 101.1412258  37.2028780
  48.2629100 100.5861857  37.0765090  49.7738925 100.5380356  37.1513271
  69.1889906  65.0458288  32.2054410  69.7580814  64.9978971  32.9736018
  68.6575460  65.8287907  32.3495603   9.9443420  11.9120657  54.3081188
  10.3310760  12.1144867  55.1599979  10.3253349  11.0678113  54.0666437
  74.9787323  97.8139032  29.9083447  74.9703113  98.3266375  30.7165933
  74.4471160  98.3228440  29.2962956  70.6869459  38.7287378  24.2794847
  70.4915571  39.0317869  25.1661754  71.6289139  38.5588050  24.2865729
  89.9261467  97.5691194  75.0884914  89.9737731  96.6542131  75.3658199
  90.4105751  97.5947992  74.2633295  92.1149635   5.7625121  36.4202428
  91.8200302   6.0949296  37.2680330  91.6510201   6.2994897  35.7778740
  90.8893013   9.1526127  49.7838545  91.0349655   9.8751193  49.1731215
  91.1102390   8.3673912  49.2830086  87.3763084  29.7207117  31.9491577
  87.6879025  28.9719534  31.4407277  86.6942024  30.1131034  31.4041781
  84.4276810  20.4425359  41.8470192  83.8635063  20.2879262  42.6046705
  84.5171070  19.5829058  41.4355946  82.4718666  35.4025459  21.3365340
  82.3777103  34.5794559  20.8570671  82.7225971  36.0412002  20.6690860
  80.7017517  21.0227227  34.3177080  81.3787556  21.1618686  34.9799275
  81.1649323  21.0937715  33.4830546  75.9277010   7.3576444  59.3819332
  76.8462849   7.5967163  59.2583370  75.9235048   6.8264568  60.1782084
 103.8643265  63.0311728  24.3470550 104.6853542  62.5612307  24.2011237
 103.3401489  62.8451538  23.5680366  56.3640110 100.8937776  25.4699850
  57.1105949 101.3227456  25.8881140  55.8950416 101.6034228  25.0310111
  86.8929482  13.6189592  11.8247604  86.7272186  12.6773679  11.8713701
  86.9719315  13.8021994  10.8885896 106.6370583   7.7219194  17.8640211
 106.4748192   7.9162401  16.9409013 105.8072186   7.3677790  18.1836748
  11.4825900  84.3765514  70.2813345  11.2734015  85.2997058  70.1390117
  12.4157508  84.3725222  70.4944759  35.5354635  88.3959920  28.4847569
  35.4484359  87.8787262  27.6840734  36.3836996  88.1380148  28.8455558
  78.9475965   0.7902300  23.9142680  78.4069157   0.0003676  23.9107418
  78.3784151   1.4717023  23.5566974  74.2659235  23.1808758  21.4784527
  73.5051680  22.6240802  21.3127279  74.1818810  23.8953781  20.8470607
   2.7375205   2.3393472  30.2970862   2.8930267   2.2025587  31.2316132
   1.7893584   2.2543737  30.1971006  82.2529984  22.8817677  61.4909077
  82.9230595  23.1628418  62.1140051  82.2741222  21.9256639  61.5315485
  35.9696658  14.4601500  44.1582251  36.5564235  14.0841329  44.8143959
  36.3715919  15.2982783  43.9297056   3.5683807   9.6995121  51.7870140
   4.2630084  10.3181040  51.5610504   3.9868053   9.0757877  52.3804092
  54.0589897  74.2126448  23.4603739  54.4043914  75.0895960  23.2933736
  53.1265632  74.2792708  23.2545376 107.0336914  35.9815884  25.3244853
 106.9401169  36.7576456  25.8769464 107.1111012  36.3282633  24.4356346
  36.9013015  85.3256137  42.2906303  36.5016834  85.9048171  42.9395199
  36.6965477  85.7319707  41.4485025 102.0544243  15.8870292  15.7772815
 102.0343590  16.7215514  15.3088796 102.9017925  15.5046797  15.5492330
  31.5687354  60.1069766  84.8077440  31.1661513  60.6181073  84.1056746
  32.3343452  59.7018718  84.4003454  36.7511789  91.6702146  48.7261629
  36.0967866  92.2477651  48.3331776  36.9099609  91.0005242  48.0609274
  68.5597372  38.7804866  33.5430002  68.9905787  38.8803482  34.3919039
  67.6532698  38.5614181  33.7587595  57.1449844  89.0410716  33.1626320
  57.8931705  89.4471962  33.6002588  57.2705642  89.2440755  32.2356749
  38.3553211  97.3381678  30.1484561  37.7724067  98.0248404  29.8245335
  37.9065410  96.9858990  30.9170508  88.8547230   0.3734250  36.7557192
  89.2744827   0.0469633  35.9598184  88.2647896  -0.3318040  37.0219064
  17.0328887  18.3831000  35.6842136  16.8045982  17.7977479  34.9620771
  17.0806964  17.8111088  36.4502239  94.9459982  19.4273227  86.7157231
  94.7808361  19.6506947  85.7997220  94.1218757  19.6218699  87.1620460
  64.5822898  97.9228572  38.9348793  63.7877647  98.1487683  38.4512258
  65.1064197  97.4187989  38.3124304  60.1640216  88.0542810  19.1734147
  59.4962970  88.1557197  19.8517108  59.8138706  88.5291988  18.4197032
  46.1571105  67.2868817  88.2451634  47.1068080  67.3460167  88.1411728
  45.8304770  68.1368809  87.9501370  64.4335453  91.2990994  41.9557571
  64.2863552  92.2296567  41.7865515  64.1733829  91.1776132  42.8688765
  40.0134134  28.7968993  78.1205750  40.2895451  28.7116885  77.2080421
  39.1659546  29.2394876  78.0740404  38.4952299  88.2651872  26.8387079
  38.1786624  87.3661167  26.7510176  38.7100164  88.3539934  27.7672625
  81.2182426   3.3702227  15.2116132  81.3934898   2.4292776  15.1996374
  80.2744293   3.4399191  15.0681520  55.8427803 101.0839260  28.9577174
  56.7740051 100.9579880  28.7755346  55.5431835 101.6809058  28.2720876
  20.3842346  90.0280632   1.9988328  19.9558345  89.3648781   1.4576417
  21.3201229  89.8658575   1.8803674   0.2838643  74.9640148  86.6592020
  -0.6141917  74.9947065  86.9890231   0.3634055  74.0970581  86.2613433
 100.1116276  35.6289911  26.8336225  99.4230652  35.1928234  26.3317609
 100.7697964  35.8669400  26.1806107  69.9367857  23.5285091  -0.0707079
  69.6814394  22.6074100  -0.0196487  70.2766943  23.7314868   0.8007827
  80.0922298  24.8367190  44.3273926  79.3871307  25.2396822  44.8340321
  79.7624540  24.8203492  43.4289455 102.3559380  32.0018935  56.3545370
 103.0040836  31.7435193  55.6992674 102.0040703  32.8306484  56.0295868
  87.3905373   3.5987628  12.9595828  87.4571800   2.7456596  13.3885407
  86.5723705   3.5547554  12.4647164  96.9942474  23.2586837  52.1505833
  97.7292538  23.4604979  52.7295971  96.3460350  22.8459907  52.7213287
   5.5604633  19.6641695  34.1197085   4.9351581  19.8606980  34.8172760
   5.2186664  18.8703477  33.7083077  84.7922230  31.2400126  43.9848232
  85.6867504  31.5029311  43.7681913  84.5112896  30.7095242  43.2392454
  91.8341637  25.8724833  56.2969542  92.2995567  26.2493896  55.5502415
  90.9267712  26.1541533  56.1806059  30.7803146  88.2246143  11.5564966
  30.0830070  88.8802654  11.5673196  30.4765693  87.5420255  12.1548653
  66.8297378  76.5969188  51.5490198  67.7748481  76.6855986  51.6720295
  66.4869873  76.4432890  52.4294472  69.8539162   9.5329493  25.0453544
  69.8206711  10.4022908  24.6461391  70.2213526   9.6832579  25.9163475
 104.7737169  81.0009831  81.4941287 104.7476911  80.4052632  80.7453483
 105.0308657  80.4476183  82.2316199  74.9618578   6.1814713   8.8181680
  74.2728090   6.0792273   9.4746667  75.0432777   7.1280807   8.7018311
  87.7382469  45.3145790  24.4454956  87.2129250  45.5867720  25.1979494
  87.5378132  45.9598255  23.7674713  81.1866856  25.9720159  36.8433213
  81.5751934  25.1293015  37.0781183  80.2475452  25.8498359  36.9823146
  83.6016178  16.5630882  67.4230259  83.1085396  17.1241730  68.0216020
  82.9467439  15.9674519  67.0588940  77.6144210  98.5239381  53.9662695
  78.2224647  98.4091131  54.6965647  76.7580215  98.6260889  54.3814421
  90.3386879  15.9206045  35.8412910  91.2608910  15.6781185  35.9247780
  90.1528835  16.4308405  36.6295624  75.2978706  13.9300680  46.4030075
  75.6221962  13.0434263  46.2451792  75.4506922  14.3913412  45.5783224
   1.9008811  11.6970634  11.0357177   2.0624049  10.8458138  11.4425516
   2.7649577  12.1056175  10.9839690  91.1680213  95.0249536   3.3886278
  91.6116897  95.4067750   2.6312643  90.7398311  95.7674206   3.8148135
  89.1150761   5.7585537  16.8481016  88.9651299   5.2428097  17.6404130
  89.9310303   5.4116786  16.4873707   4.5254405  25.9164453  48.9463854
   3.8215049  25.7437539  49.5715857   4.9602397  26.6989231  49.2853737
  66.8833542  28.7460732  34.4817328  66.0479450  28.7710929  34.0151596
  67.5006676  28.3803296  33.8481760  81.5874004   4.8285756  11.5483904
  82.2879410   5.2562010  12.0409465  80.8001995   5.3255165  11.7711031
  59.1972256  18.3880329  20.8896923  58.3145571  18.2000351  21.2087297
  59.0977573  18.4640777  19.9407160  76.7240763  24.7889328  54.5157003
  75.9073782  24.3481588  54.7501135  76.4588737  25.4742432  53.9023113
  73.8936377   8.3345848  43.7888479  74.8492956   8.3028036  43.7448215
  73.6026001   7.9263437  42.9734516  97.6747704  36.2134886  64.6371412
  97.7608299  35.8779502  63.7448168  96.8036270  36.6094112  64.6611738
  64.4728041  17.4350333  59.4196272  64.4713831  18.3471477  59.1293192
  63.5768747  17.1340621  59.2681122  86.5814781  40.9750128  70.5336046
  87.5090027  41.1843538  70.4235649  86.1204433  41.7106485  70.1304722
  81.0208503  96.2090547  31.4469194  81.5890781  96.1055983  32.2102261
  80.2775089  96.7188800  31.7690325  57.3036766   0.6969655  48.0014086
  57.8807783   0.8595449  48.7475681  56.9933462  -0.1994302  48.1294870
  49.9077884 101.2584929  46.4887857  49.3046562 101.9588112  46.7378044
  50.0225822 100.7455412  47.2887468  67.8061342  12.6873314  29.8153806
  67.9626656  11.7901492  30.1099873  67.9763031  13.2262409  30.5879402
  67.9207325  24.4024563  41.1117601  68.4333372  23.8670015  41.7173624
  67.9553413  23.9257646  40.2824259 105.0481987   9.9156040  67.2835779
 104.9110126   8.9857054  67.4644136 104.2146969  10.3288949  67.5087357
  82.3223877  35.5729866  17.2172201  82.7680683  35.6376195  16.3725770
  82.9641628  35.8920360  17.8516996  49.5711613   7.4438477  51.2066793
  50.0759745   7.8620422  50.5091763  50.1596355   7.4444264  51.9616175
  42.5998012  83.3525557   7.2895741  42.9838602  82.5310714   6.9831491
  41.7796270  83.4299953   6.8021810  91.3106251  10.6013715  44.0754032
  90.9792137  11.4455247  44.3816805  91.2949371  10.0418937  44.8519135
  35.7989542  76.3542254  47.0412159  35.3607646  76.2795670  47.8889465
  36.6918508  76.0510022  47.2056103  78.5350227  24.3559361   1.5513025
  78.5725498  25.3116417   1.5132090  79.3998766  24.0703535   1.2568401
  53.8686744  98.0725683  36.3550234  53.0084507  98.1529010  36.7670751
  53.7211982  98.3207036  35.4423833 106.8399525  10.2978706  65.1010942
 106.2020206  10.0832689  65.7817030 107.1532345  11.1719823  65.3334999
 105.9414720  63.5635918  82.5518989 106.8728256  63.3695810  82.4461823
 105.8078337  63.5874396  83.4994238  98.4377956  20.2024984  48.1248903
  98.7602043  21.0159922  47.7369308  97.8642368  20.4872823  48.8363409
  43.8067857  73.6006147  36.0547495  43.1835548  72.8753693  36.0119343
  43.6522428  74.0969808  35.2510285  70.8446980  18.6829019  59.2381668
  70.0338793  19.1730869  59.1020536  70.7476664  18.2963550  60.1084518
  27.0336040  81.1015671  74.4218880  26.3249190  80.5595844  74.0751153
  27.1363528  80.8105033  75.3279561 102.2609329  12.4705255  35.7813907
 103.0713558  12.3244727  35.2934170 102.5402355  12.9140913  36.5823102
  71.0831348  95.7896776  57.8610325  71.8703643  95.5923969  58.3685541
  71.2118045  95.3303272  57.0311689  22.6088603  79.9688953  83.8285437
  22.1547587  80.5998629  84.3870306  22.6336368  80.3857439  82.9672342
  78.6638880  14.3876576  55.0317335  77.8145885  14.4074523  55.4727840
  78.4493113  14.3080318  54.1023016  97.1235657  41.9951105   2.3314752
  96.2208271  42.2335196   2.5423098  97.5854588  42.0421791   3.1685388
 106.8473625  30.1130581  33.5674286 107.7765465  29.9629283  33.3933306
 106.5080261  30.4843450  32.7530384  48.7065490  31.1919039  84.8253503
  48.8414939  31.6202026  83.9800209  48.6159118  30.2632897  84.6115941
 102.0841885  34.9931479  48.2538128 102.0073414  35.9278584  48.0623865
 101.8529606  34.5605326  47.4318552  11.5971835  34.9170804  54.0631437
  10.9782108  35.1706624  53.3784533  11.5612205  33.9606452  54.0762663
  88.7861443   9.2166209  20.8902764  89.1466522   9.1521382  21.7746449
  87.8468132   9.0713882  21.0033703  11.9053825  24.6882987   5.2924073
  11.6985591  24.4394946   6.1932701  11.8878444  25.6453204   5.2982056
 102.5942516  31.4835429   8.2588118 102.2615051  32.3326492   7.9680723
 102.7967262  31.6102672   9.1857296   0.8545192   6.2886149  34.3501854
   0.3972324   6.3212913  35.1904535   0.3461822   6.8637681  33.7783289
  59.7535467   8.6502081  57.7715063  59.0004873   8.7139994  57.1840906
  59.9241447   7.7109069  57.8410864  93.9022923  21.5417600  10.9410906
  93.9740467  21.9819999  11.7880094  93.2223034  20.8808279  11.0715675
 100.3698635  37.2440553  37.5065804 100.9303951  36.5474534  37.1648479
 100.8623219  37.6086855  38.2419443  91.8244839  22.4918127  51.0543966
  91.4410305  23.3563614  51.2018681  91.1201763  21.8784714  51.2641287
 102.0855808  30.0467730  19.9322915 102.0214653  29.8815346  20.8729386
 102.5855064  29.3046784  19.5922863  86.5078354   8.5556686  37.0520902
  86.9536304   9.0353256  36.3539314  87.0802021   8.6533588  37.8130627
  99.2994976  31.5622663  48.8561964 100.0409603  31.5326524  48.2515574
  99.2958832  32.4604988  49.1869450  38.2890487  35.3058672  55.1890707
  37.6378775  34.7979188  54.7051382  38.9145827  35.5902004  54.5226669
  11.7405303  11.8156052  43.2978868  11.9012531  12.6114380  42.7908897
  12.4677261  11.7764020  43.9190722  75.6155491  33.0232739   5.3969550
  74.9241018  33.6849976   5.3811073  76.1738300  33.2423043   4.6509126
 101.2980461  41.8979883  87.1035564 101.1712026  41.6730391  86.1818510
 102.1943378  41.6226690  87.2961408   7.1801360   7.2448468  25.2159095
   7.3175224   6.8930680  24.3363595   6.7367824   6.5406489  25.6889606
  84.0190029  21.4678669  49.2384815  83.9379978  21.0571814  48.3776665
  84.8339939  21.1156249  49.5961666  91.8875980  43.5853052  73.8619995
  91.9569302  43.8615990  74.7758293  92.7465534  43.2155514  73.6577511
  98.7302303  25.0709891  11.5937400  99.6153831  24.9200702  11.2621343
  98.1608105  24.8973012  10.8441937  99.3736935  51.6001606  29.4016623
  99.1957760  52.4719572  29.0487504  98.5123539  51.2585974  29.6417785
  64.6240608  72.5483400  38.9496279  64.7280208  73.4530551  39.2444396
  65.3507511  72.4093206  38.3423233  74.9368095   5.3651953  37.6854873
  74.9835825   4.4189206  37.8219008  75.1116085   5.4814851  36.7515969
  21.9104091  68.6603767  33.9106631  22.1993820  68.9575369  34.7734618
  22.5805513  68.0344827  33.6360669  51.9184446  14.6083236  52.7781105
  51.1180210  15.1131940  52.9218292  51.9924736  14.5426059  51.8260431
  52.8570453  83.8524932  39.6729374  52.6738254  82.9397959  39.8957515
  53.7450973  83.8382763  39.3160176  88.1865215  67.5337601  40.7710838
  88.9599228  67.8954601  41.2038040  87.7688980  68.2887650  40.3566074
 101.6730404  19.8064971  24.2001891 101.9550228  19.0106928  24.6511984
 100.8798122  19.5476747  23.7311244  18.8119205   6.4602119  38.4422612
  19.6720966   6.2698841  38.0679536  18.2682117   5.7160616  38.1836867
 102.0936584  49.5337486  42.9021072 102.4284744  49.8129463  42.0499468
 102.5786400  48.7323713  43.0991316 102.3605824  36.3129687  25.2519393
 102.9884529  35.6416965  25.5191493 102.3926735  36.3037181  24.2953205
  95.1940346  42.0825148  28.0679774  95.4033756  42.9659414  27.7647233
  94.6761322  42.2181129  28.8614678  27.0422069  98.0045480   7.9268169
  26.5492860  98.0975673   7.1115816  26.6014329  98.5911808   8.5414809
  20.2069076  25.5308723  64.2187643  19.3033488  25.8462238  64.1994095
  20.3598483  25.2983189  65.1346016   8.0452235  13.9130759  46.0103273
   8.9835151  14.0809298  45.9228039   7.9250987  13.0328655  45.6539154
 105.0785494  99.6645682  82.0481682 105.4125213  98.7713903  82.1314209
 105.4055834 100.1160567  82.8262692 104.9963379   5.3864694  13.5430503
 105.0277996   6.2240988  14.0052390 104.1236401   5.0414461  13.7317240
  61.4096347 101.5476796  39.0591240  60.9185974 101.0691798  39.7270679
  61.7650310 102.3069650  39.5210910  79.4017267   8.3350897  66.7458677
  79.0174055   7.5764650  66.3065338  80.3403187   8.1486297  66.7686129
  97.8762054  14.8041642  44.7683287  98.0398273  15.7452214  44.7061157
  97.6156902  14.5473647  43.8837862  63.1390095  31.8261409  21.9482136
  63.6963797  31.2570333  21.4174724  63.6803389  32.5959158  22.1232486
  93.6591339  24.6761012  45.0701809  94.4619370  24.8666763  44.5849848
  93.5471153  25.4275036  45.6524849  87.3657990   3.4324220  28.2990432
  87.8173637   4.2724326  28.3809257  86.4461994   3.6661503  28.1728292
  83.9515010  98.4383009  37.1201134  84.1513912  99.1716293  36.5383029
  83.2466213  98.7625552  37.6806855   1.1570247   8.9171815  17.1265626
   0.4565414   8.5236108  17.6468062   0.7139476   9.2657471  16.3529909
   4.6141513  48.2669258  43.7379551   4.6656879  47.4508238  44.2355013
   3.7124522  48.2958889  43.4180784  85.1377487   7.2549319  58.4970665
  85.4836750   8.1163681  58.7304974  84.8024845   7.3645550  57.6072264
  12.0929893  21.6926384   9.2653513  12.8103145  21.7982340   9.8902631
  12.1226676  20.7677054   9.0207082  97.7158070  26.9989681  30.2030849
  97.0349121  26.8532157  29.5462918  98.5270977  27.0562935  29.6983624
  85.7151318  25.0913072  32.3585606  84.9859524  25.7010746  32.2458220
  86.0069752  24.8995471  31.4673352  64.4130611   9.6843773  36.5730381
  64.8602104  10.5170870  36.7243218  64.1004610   9.4197428  37.4381876
  75.3721523  33.5776138  25.1900983  75.5273819  32.8174615  25.7507253
  74.8010635  33.2501173  24.4952345  83.7672806  10.4641330  21.6823411
  82.9774380   9.9260908  21.7361426  83.6648083  10.9593987  20.8696651
  96.1746979  29.5333862  30.6561375  96.9787979  29.7545075  31.1259937
  95.7595539  28.8603020  31.1954379  80.3455162  35.3030658   2.2684111
  80.1014233  36.0012484   1.6608019  81.2986469  35.3636932   2.3324981
  11.1979087   6.5169185  44.1094065  11.0997565   6.2894762  43.1848145
  10.9042152   7.4262577  44.1648531  18.1712516  65.1033764  74.6590143
  17.4891837  64.5449072  74.2860144  18.5386451  64.5863681  75.3759211
   9.8615432  81.6914994  14.9277353   9.3113589  82.4742002  14.8975968
   9.3058657  80.9945566  14.5788324  95.9147453  34.1069388  43.8841820
  95.6930161  33.5323811  44.6169472  96.2323761  34.9099731  44.2970753
   0.5322631  49.0623665  20.7805538   1.1614211  49.4867516  21.3639021
   1.0451110  48.8228941  20.0086331 107.6214027  26.2842345  33.2062149
 108.0328465  27.0036554  33.6851478 107.9492855  26.3737416  32.3113894
  81.3881683  51.7208052  17.9288840  82.3334408  51.8582058  17.9906762
  81.2686348  50.7899427  18.1171381  99.9932194  47.0021868  56.9436646
  99.4131374  46.4254618  57.4407768  99.7593594  47.8841829  57.2328281
  77.5803089  18.1156230  16.7783499  77.7341986  17.5077367  16.0551453
  77.7590084  17.6013589  17.5656426  82.1561337   6.2293094  20.2196479
  82.2198105   5.4531407  20.7761908  82.4405384   5.9290409  19.3564069
  65.7328510  45.5932474  26.2008262  66.3721132  45.5559254  25.4893589
  65.1216412  44.8814154  26.0112238   2.3116859  10.5341280  65.5794096
   1.7932494  10.9866095  64.9140406   3.0863841  10.2247751  65.1099682
  96.4268684  30.7041001  48.1928015  95.7555866  30.7216167  48.8749361
  97.2326565  30.9573007  48.6431694  22.7591308  22.7929473  55.6183767
  22.1516689  22.5561500  54.9175596  23.2579501  23.5292125  55.2643585
  90.0948238   9.2044038  25.4878497  89.2427444   8.9112580  25.8107328
  90.2107811  10.0731826  25.8725691  72.0399952  28.5512424  18.9739096
  72.7705002  28.0802321  18.5729742  71.2973213  28.3787799  18.3951831
 102.3026848  24.8661757  50.3515530 101.9185352  25.3365135  49.6116543
 101.6250229  24.8881793  51.0272264  39.2863830  54.1850901  31.7784262
  40.1922019  54.3116903  31.4961314  38.7867721  54.1321325  30.9636760
 100.1524448  47.9969883  43.9638281  99.5041084  48.0051041  43.2596874
 100.7617664  48.6993265  43.7364817  79.1019726   2.8704986   3.3947763
  79.7714853   3.4508157   3.7570152  78.5383701   2.6608005   4.1394997
 101.1973468   6.9176851  81.7640972 101.3714687   6.0287748  81.4546585
 101.5668861   6.9407068  82.6467877  99.8698425  24.3500209  69.2381048
 100.3153038  24.2489386  68.3969307 100.5786514  24.4284797  69.8765898
  82.5068744  83.8472717  83.1376028  83.4460242  83.8564509  82.9528391
  82.2110637  82.9896658  82.8322482  89.6802902  32.5644016  21.4987230
  89.1811275  32.0398235  22.1247363  90.3306007  33.0202842  22.0330477
   5.2290042  48.0559111  33.4784722   6.1203464  47.8642893  33.7700629
   4.6904071  47.3847151  33.8975644   2.0704158  22.3525953   3.1814566
   2.4817641  21.4885139   3.1617665   2.4792846  22.8290224   2.4589059
  62.3089457  11.6340029  30.2019048  62.2690535  11.0234499  29.4657898
  62.4237919  11.0752559  30.9705687  91.7512417  77.9981661  11.2870860
  91.5923405  78.7480545  11.8603623  90.9302330  77.5063133  11.3029790
   9.4621833  27.9175806  15.5643320  10.0681766  27.9434228  16.3048327
   8.6156924  27.7006936  15.9550261  91.4770603  40.1079845  13.7830544
  91.8939304  39.2713451  13.9891863  91.8103790  40.3341532  12.9147363
   4.2262920   1.0340021  19.7499073   4.3625148   0.7118729  18.8588917
   4.4485553   1.9639555  19.7049820  95.1362896  41.9165564  32.5533032
  94.7095108  41.0657263  32.4524236  95.0114250  42.3488188  31.7084432
  99.0302658  30.1937413  23.7278485  98.2685947  30.5545211  24.1816521
  99.6436977  29.9721146  24.4284296  87.6615334  12.6427853  32.0959663
  87.1719646  12.9720414  32.8497219  88.5015011  12.3628020  32.4596763
  98.7998581   4.1257247  54.6920109  99.0206337   3.4804237  55.3636360
  99.4671917   4.8056707  54.7845936  13.3095725  36.4830327  45.1524019
  12.8422244  37.0100498  44.5042753  14.2253287  36.7456484  45.0593424
  74.4901077  98.0602036  81.8061352  74.3120471  98.6939425  82.5010490
  75.0175468  97.3826904  82.2292519   4.7665961  10.4127610  23.6855221
   4.3501266   9.5896196  23.4301424   4.6930392  10.4324710  24.6396875
  99.8954010  36.6118383  41.4764452 100.4836845  37.1272659  40.9246397
 100.0230122  35.7091355  41.1847687  10.5793079   5.1603150  59.3404484
  10.8934386   5.9193641  59.8317719  11.0928710   4.4267887  59.6787119
  69.9713985  99.6525145  10.9428215  70.7439224 100.0615457  11.3328624
  69.7455398 100.2207952  10.2064264 105.9019279  34.6488571  19.3106449
 105.6240368  35.5546284  19.4469678 105.3989029  34.1451120  19.9505186
 107.3456478  34.7952533  12.6568186 107.0596027  34.1952610  11.9680369
 108.2076836  34.4693828  12.9155338  78.9700500  96.0066790   8.6373842
  79.1055957  96.1162735   7.6961893  78.1597415  95.5017073   8.7054712
  17.1290954  68.4466880  87.2523959  16.7995341  68.1285828  86.4119044
  17.1325381  67.6733773  87.8164970  70.0247812   7.9938900  53.5962725
  70.8731651   7.6000184  53.3929443  69.4501877   7.2484064  53.7704277
  89.0918636   0.5978072  30.3867292  88.9947510  -0.2142844  30.8840299
  89.4894600   1.2110776  31.0048270  67.6673309  98.9940501   5.2241743
  67.0553581  99.3039013   5.8917975  67.2977439  98.1622113   4.9280646
  91.6693067  48.3598431  83.9899102  92.2822237  47.9103952  83.4080472
  91.9186544  48.0727451  84.8683366  24.4368442  51.9356437  73.6141687
  23.9856513  52.7537429  73.8224286  23.9846595  51.2730717  74.1364306
  77.0676470  58.6752605   3.2177868  77.3585892  58.7162209   2.3067945
  76.7251301  57.7873230   3.3201355  71.7115068  30.0637341  61.5972662
  70.9041023  30.1100278  62.1093035  72.1090221  30.9286261  61.6981459
   5.1206668  38.0209303  17.5488675   5.0749286  38.2072234  16.6110861
   5.6527217  38.7307811  17.9084015  15.2240260  73.6074823  83.5791561
  14.8288615  74.2940992  83.0419051  14.6281798  72.8633087  83.4930759
  32.1525407  30.7953501  11.1732113  32.3548985  30.0706244  10.5815542
  32.5968647  30.5687737  11.9902003  15.7984527  29.0525603  16.0885215
  16.5868362  29.3963814  16.5086150  15.7241710  29.5506644  15.2745140
  45.1609031  99.1622484  37.9047155  44.3340007  99.1059244  37.4258757
  45.7193080  99.7115888  37.3545837 100.0182247  31.6790199  40.5744362
  99.1040325  31.4304948  40.7112265 100.4073524  30.9256506  40.1303101
  20.8313163  34.1586185  43.5650635  21.6966994  33.8265681  43.8040161
  20.4065879  34.3447208  44.4024420  91.5316725  62.7232593  76.5666002
  90.5966472  62.6655584  76.7631501  91.9458246  62.8775340  77.4156636
   3.8904079  30.8961725  55.7437754   2.9738219  30.8597112  56.0172462
   4.0103133  30.1153636  55.2032328  79.2617313  97.6041801  43.3363581
  79.4495765  97.6161433  44.2748690  78.4702388  97.0717127  43.2572842
  54.2094413  84.4500298  42.2802114  53.5316459  85.0325400  41.9374132
  54.9892513  84.6618886  41.7671394  80.9100533   8.2135254  41.4323044
  81.3743687   9.0492868  41.4786243  81.4947987   7.5904423  41.8636656
  89.7233105  39.8469925  19.4232917  89.1133499  39.4690561  18.7897766
  89.8015308  40.7646322  19.1624296 101.6627121  26.5573525  30.6154585
 101.7630482  26.5501213  29.6635604 101.6996384  27.4838328  30.8531570
  98.8389969  86.3399714  87.0914431  99.6825123  86.1742490  86.6704319
  98.7095070  85.5898779  87.6718104  20.9404262   3.1395268  57.6220369
  19.9899467   3.0429536  57.5628996  21.1611160   3.7644285  56.9313669
  80.6486607  53.3039236   5.2849066  79.8681974  53.8321877   5.4523748
  80.3963757  52.4164248   5.5397314 107.6490402  36.7344904  17.1022415
 107.0838356  36.2469530  16.5030122 108.0140781  37.4392247  16.5671432
  94.3886185  30.1502657  54.5309210  95.0794888  29.5322061  54.2923069
  94.8365974  30.9927893  54.6064472  89.6722603  10.8753717   4.8632088
  88.9769936  11.3020515   5.3639799  89.5928097   9.9477297   5.0854677
  25.2383025  36.2632990  35.9593463  25.2821525  35.5103922  35.3699064
  25.1435836  37.0176148  35.3777385 100.3825569  40.4692745  43.6696577
 100.2164078  40.6740475  42.7494955 101.3264179  40.5887270  43.7749624
  89.7973728  12.5681877  26.2767768  89.2041492  12.3200560  26.9858313
  90.6705284  12.5150609  26.6653633  84.8093700  32.0187044  71.4091158
  84.9624157  32.7705979  70.8368731  83.8760281  31.8298292  71.3119602
  63.5631704   7.6194805  35.1285434  64.2027950   7.5564897  34.4192171
  63.8874197   8.3307576  35.6809735  74.8655883  96.2257875  34.4374824
  75.3992168  96.2429769  35.2319479  74.1908161  96.8878365  34.5878220
  87.5469685  10.1810682  14.3191338  86.6893864  10.3295887  14.7175372
  87.4091530  10.3444767  13.3861089  78.5840178  28.4405208  52.3809147
  78.7411070  27.5129056  52.5572252  78.8769007  28.5657024  51.4782619
  89.9880219  35.6297708  49.0737772  90.6815052  35.2741075  48.5180569
  89.7949600  36.4879036  48.6961985  88.8486576  15.3854454  42.4847126
  89.6035194  14.7984314  42.5274467  89.2057705  16.2114811  42.1585703
  84.7520638  34.4035649  47.6393461  84.2463970  33.8675237  47.0284557
  85.6654167  34.2225814  47.4174070 102.1675157  89.4777792  85.8510124
 101.6695595  88.6650556  85.9390498 101.5076828  90.1429074  85.6549126
  74.3616629  21.4495850  38.2015014  74.2638874  22.1439815  37.5499749
  73.4689045  21.2709212  38.4969497  98.3344173  33.2449436  45.4190445
  98.2735062  34.1872859  45.5756187  98.9830685  33.1596851  44.7203207
  95.2524749  98.1772447  26.7758036  94.5900527  97.6095948  26.3818455
  95.1232997  99.0258408  26.3522100   0.4831203  23.1590581  24.0162706
  -0.0878922  23.7113523  23.4822726   0.7010921  22.4200964  23.4482431
   9.3897803  37.3035741  55.4690170   9.1550239  38.1043243  55.9379721
   9.2184528  37.5057077  54.5492268  92.4385738  15.6547523  22.2903728
  91.7461586  15.0091779  22.1488357  92.1445274  16.4300871  21.8122268
  95.1185226  28.2554626  43.4680843  94.7779083  28.8672948  44.1206741
  95.0034046  28.7079382  42.6324749   8.8247379  36.8702412  61.3921642
   8.4980663  37.5799990  60.8392048   8.5453208  37.1075130  62.2763920
   8.0557235  17.8122377  80.1636314   7.8260120  17.8728235  79.2363834
   8.8067420  17.2191942  80.1860809 105.0361824  26.1535573  41.4643145
 105.3108025  25.2819824  41.1794138 104.1647148  26.0201502  41.8371105
   3.0012496  25.4091096  29.3367553   2.9889854  25.2402663  28.3946443
   3.8377841  25.8482027  29.4905186  16.0675510  19.4799602   2.4617222
  16.4723762  20.1589918   3.0014154  15.2603992  19.2555475   2.9247206
  12.8188689  26.4536738  33.5799670  13.0304702  26.0957479  32.7177906
  13.6693557  26.6469312  33.9743733  87.4312592  35.8334684  44.6774626
  87.7783585  34.9603891  44.4944525  86.4965916  35.6928086  44.8285532
  96.9663811  72.8468132  18.0094635  97.6698303  72.3294687  18.4015632
  96.5589809  72.2559738  17.3760867 106.0936832   6.1117339  21.7706823
 105.9876251   7.0543396  21.6423106 105.3152275   5.8477247  22.2611403
  11.0263332  33.9674163  19.9026716  11.6339763  33.2289577  19.9436688
  10.1779636  33.5929585  20.1398993   0.8528026   8.1368583  27.7149296
   1.4800819   7.4595010  27.9678011   0.9089645   8.1708229  26.7599797
  83.0667591  12.5995088  54.1180420  83.7637901  13.1583738  53.7744474
  82.2876453  13.1555045  54.1090965   9.9332126  18.7950921   8.8176709
  10.4979308  18.0864406   9.1261172   9.5569690  19.1661680   9.6157783
  44.6087885  32.7772045  78.2494402  44.2310095  33.5682273  77.8649902
  43.9560843  32.4848557  78.8856316   4.5342048  71.1145561  83.0682188
   4.8152383  70.2760058  83.4343952   5.2083095  71.3328546  82.4246651
  29.2461959  96.9675721  57.2825193  28.3405248  96.9424877  56.9737148
  29.3144599  97.7958358  57.7574444   2.5636180  39.4488001  25.0646305
   2.7815326  38.5316420  24.8985982   1.6112121  39.4552016  25.1601100
   1.6683467  31.4012694  76.7865276   2.2544463  31.4601302  76.0320377
   1.0706695  30.6855536  76.5702677  33.2014839  96.2736834  40.0525522
  34.0820543  96.0274292  39.7693849  33.2810442  96.4023120  40.9977293
  14.7053989  21.7552400  26.4708018  14.7708877  22.2612476  25.6609273
  14.3989261  20.8929014  26.1903143  91.4461994   4.5732903  19.9973965
  90.5761623   4.1758507  19.9612868  91.5933132   4.7435796  20.9277678
  64.6883202  27.1630716  20.6467652  65.3705645  26.8595147  20.0479102
  63.9699459  26.5421224  20.5259514  45.9565353  28.4872913  19.0788805
  45.2987003  29.1635442  18.9171231  45.7853746  27.8222656  18.4120405
   3.4592803  13.3760464  16.4357591   2.5685962  13.5256100  16.1186743
   3.4777053  13.7861252  17.3004723  67.3949862  23.3798957   2.3905988
  68.2346821  23.7118912   2.0729142  67.2482872  23.8472843   3.2129484
  96.4193630  28.4973335  54.1325140  96.1361885  27.5862217  54.2094374
  97.2190857  28.5446310  54.6563864  77.6460934  17.8166151  40.5713320
  77.1196699  18.4331954  40.0624752  77.9980516  18.3396947  41.2915707
  50.4032604  92.2621340  25.7055759  49.5460025  92.6056839  25.9572196
  50.9982959  93.0049510  25.8074784  87.9316616  47.5306702  63.4934092
  87.8416348  47.5509024  64.4461489  88.8764572  47.5540924  63.3415651
 106.7581081  27.0364118   5.8465302 106.1472416  26.3549566   5.5660123
 106.9103146  27.5601935   5.0599444   9.6837695  16.3815987  31.0609841
   9.3754562  15.8001518  30.3659344   9.7094329  15.8287311  31.8419528
  73.8146877  12.5447905   1.4012074  72.8636742  12.6163840   1.4829452
  73.9483690  11.8334758   0.7747943  97.6225758  77.0677948  24.9016905
  97.2130871  76.5615892  25.6033373  97.4196243  76.5791988  24.1039968
  79.1843653  39.7206783   1.3117290  78.3257580  39.3736339   1.0696973
  79.6975327  39.6742606   0.5050471 103.2845592  67.7200651  77.1959782
 103.6021042  68.4767485  76.7032051 102.3506832  67.6753378  76.9907427
 104.0077972  29.5361328  41.3484764 104.7015762  29.0618610  40.8902454
 103.9763927  29.1346049  42.2168207   6.8523296  65.2089882  37.2396111
   6.7873080  65.6951952  38.0615640   7.4015697  65.7575989  36.6796207
   9.0930160  43.1611013  57.3612118   8.1907829  42.8566599  57.4588108
   9.3255790  42.9361153  56.4603615  93.5417175  29.2247844  29.4829464
  94.4407654  29.4638872  29.7082925  93.6303997  28.6465645  28.7252975
  19.1021045  33.0963993  17.0972097  18.6752017  33.9520073  17.1410394
  19.2901977  32.8755665  18.0093968  33.5477431  97.7029603  85.4528680
  33.5957797  98.5508102  85.8945375  34.1632922  97.7775519  84.7236469
  43.2629664  90.8509200  59.3709534  42.5360854  90.9810489  59.9799984
  42.9100688  91.1066239  58.5187143 100.0899220  13.1719804  26.7508197
  99.9849129  13.9872599  27.2412515  99.5383739  12.5412905  27.2136974
 105.7645702  11.7954516  44.1683149 106.3490295  12.5448310  44.2826366
 106.3519955  11.0524762  44.0299416  86.4476013  22.8208065  84.7741985
  86.5062523  22.0708013  85.3660488  85.5169106  22.8844476  84.5597172
  66.9588454  98.2969754  69.6367341  66.1668189  97.8000825  69.8417335
  66.9573005  99.0197366  70.2643054  64.3328667  82.1821499  29.9673581
  64.3750668  82.9132080  30.5838084  64.3228388  82.5966263  29.1046071
 104.3433285  12.3642790  60.0948906 104.6660137  11.7203403  59.4644547
 105.1183891  12.8706038  60.3380871 105.3351307  66.3744164  19.9933720
 104.8743916  65.6037140  20.3249860 105.1312447  67.0650959  20.6239486
  93.8116264  39.6501207  37.6906919  93.8774395  38.8488412  37.1712184
  93.4638786  39.3607926  38.5342503   5.2848990  80.3645223  75.7467442
   4.8445972  79.5356529  75.9347504   5.7975467  80.5473941  76.5341347
  97.5341892  18.9321399   1.7787892  98.2801914  18.4842229   2.1776389
  97.1844959  18.3012581   1.1495574   3.7677749  55.9759283  31.6589427
   2.9746898  55.6978369  32.1170998   3.5080226  56.7691517  31.1903739
  95.8686066  48.6411715  39.4684720  96.4881325  48.5581446  38.7435341
  96.4195538  48.7647438  40.2413988   5.6491836   1.1858758  32.5282907
   4.7411617   1.4314571  32.7055192   5.8580478   0.5385660  33.2017851
  12.9712661  35.0610685   4.2100736  12.3027785  34.4101501   3.9963809
  12.8168472  35.2693677   5.1314855  89.4508266  31.0659385  14.7032011
  89.6860790  31.5687323  13.9234030  90.0461769  31.3839984  15.3818929
  93.8485146  46.5824413  28.4921479  94.7999096  46.6086102  28.3901763
  93.5130978  47.0603561  27.7336431 107.3502541  27.4205399  19.9692202
 107.4009228  26.4901114  20.1882386 106.7703819  27.4562955  19.2084920
 100.4692554  30.0948238  26.0013652 100.1956177  30.1784444  26.9148016
 101.2977028  30.5720353  25.9548712  80.3406143  33.6993980   8.7013096
  80.2182674  33.2606244   9.5431781  80.0340652  34.5938110   8.8505960
  25.8419402  72.3029464  76.6443854  24.9580272  71.9634598  76.7846375
  26.0513194  72.7678030  77.4545103  19.9657996  40.6593895  31.2556982
  19.1208633  41.0449219  31.0239959  19.8114474  40.2330971  32.0987153
 107.1728134  53.9636850   0.3040030 107.7790260  53.3700848  -0.1391365
 106.5983582  53.3871365   0.8078101  96.1629391  45.7273626  21.4303350
  96.7153645  46.4783859  21.2134814  95.8379555  45.9153891  22.3108244
  60.5501159  88.9710515  81.1812490  60.4054912  89.3676465  80.3221643
  60.5206664  89.7068613  81.7927611  24.4012531  52.1334076  34.0155125
  23.8587077  52.4561930  34.7350216  23.9349921  52.4031925  33.2242751
 102.5995541  10.4304981  61.2526798 103.4301472  10.9018707  61.3171864
 101.9888592  10.9484363  61.7771101  96.8353271  62.4069357  10.8368170
  97.5207901  62.7882624  10.2882159  97.0565987  61.4768982  10.8847284
   1.3227161  30.4583836  36.6588783   2.1892055  30.1740336  36.9497180
   1.4778503  30.8656764  35.8066583  10.3113254  22.6521516   7.3340440
  10.9515269  22.2594619   7.9274815   9.7718986  23.2073736   7.8970528
   6.4530452   4.8200268  26.4025283   5.8749278   4.2109963  25.9430766
   6.8930419   4.2821801  27.0608211 101.7097473  22.9851747   5.1637065
 102.4945354  23.4654737   5.4276192 101.9934273  22.0724082   5.1125866
  14.1492446  28.0650663  28.6965251  14.4003566  27.9739285  27.7773571
  14.9740012  28.2243681  29.1554689  14.3194278   4.3438056   5.6407070
  14.9799998   3.9252251   5.0887352  13.5012801   4.2415425   5.1544911
  38.5220416  96.0500050  12.5142121  39.0132507  95.2289391  12.4860060
  38.8927062  96.5753365  11.8050814 105.9677219  31.1090684  36.3451982
 105.0408554  30.9762692  36.5439820 106.0369205  30.9447742  35.4047465
  10.8811744  36.9749117  27.0756173  11.0184463  36.0708499  26.7926693
  10.0921043  37.2540402  26.6111994  72.3499966  50.9216261  56.2069654
  71.7605495  51.4831066  55.7034636  73.0334091  51.5132093  56.5219355
  14.1879829  53.1657457  53.4289169  13.3453162  53.2299328  52.9794455
  14.8315318  53.4250593  52.7694941  89.2129135  25.3345799  65.2196550
  89.0859604  26.1592579  64.7505951  90.1056385  25.0686574  64.9992704
  87.5947285   2.4742873  17.0974612  87.2722244   1.5979029  17.3076415
  87.8995037   2.4067216  16.1925972  90.1680470  56.3769436  37.8096080
  90.0517750  56.9186449  38.5901690  91.0644245  56.5556955  37.5253677
 102.3970985  52.9236317  35.1200390 101.9789982  53.3214188  35.8837056
 101.7943192  53.1003094  34.3977737   2.2732051  28.9319825  29.6613097
   2.4793227  29.1107702  28.7438226   2.9989513  29.3203163  30.1499057
   2.2629436  57.1956301  23.7088299   1.4949878  56.8761396  23.2351136
   2.9883846  57.0791197  23.0953312  77.3439026  50.0564861   6.0568535
  77.3787451  49.4481373   6.7950469  77.3189497  49.4932556   5.2833015
  20.4236491  79.5808220  27.7605534  20.7968696  80.4617977  27.7317929
  19.8429855  79.5914221  28.5214400  98.6676502  20.9022999  59.8057556
  98.1110954  21.0489726  60.5705833  99.3082809  21.6128755  59.8359203
  39.9918826  89.3233173  82.6226747  40.4343017  89.1528290  81.7911529
  39.4726356  90.1109498  82.4606299  43.8431724  82.6805513  86.2482071
  44.7148498  82.3705476  86.4937547  43.8866885  82.7900689  85.2982896
  86.1452770  16.2638211  43.1075096  87.0742607  16.0339057  43.1267357
  85.7131767  15.5548716  43.5838556  93.5635948  59.6621704  23.4547520
  93.1704140  59.3255329  24.2599344  93.8533306  58.8803387  22.9846239
  72.5361434  37.4075256  83.0403650  72.6169197  36.4889847  83.2972628
  72.6884262  37.4062096  82.0953566  19.4222148  17.1722662  17.7452791
  20.0699981  17.4745214  18.3818674  18.7355693  17.8388011  17.7673841
   3.4255584  55.1455402  21.4215302   3.4070762  54.1935587  21.3234258
   4.3170818  55.3942108  21.1774230  80.1742744  36.3783455  56.9943762
  80.6841564  35.5896425  56.8094492  80.2388859  36.8985772  56.1934900
  10.3605159  63.7817430  23.4899163  10.2461036  63.6738968  24.4341159
  11.2794002  63.5639620  23.3335710  90.8900642  62.5619936  12.8452551
  90.6394100  63.3574438  12.3755085  90.0700569  62.0808029  12.9560351
  95.5244827  52.0289183  43.8271761  95.3912640  51.8321371  42.8999424
  96.2458801  52.6579762  43.8372850   7.0651038   5.3850007  38.7291622
   7.5449546   6.1077803  38.3247352   7.6993926   4.6692595  38.7694740
  92.8623295  41.2937546  41.1118793  92.0306873  41.7652512  41.1598682
  92.9031754  40.7964182  41.9287157   7.8333171  45.9152317  22.0329428
   7.7412208  46.2399864  22.9286480   8.0390437  44.9859953  22.1350527
  64.2362309   8.6272889  44.3388033  63.8578606   9.0317273  45.1195049
  64.8151779   7.9451919  44.6790886  93.4195232   2.3236702  15.6337655
  93.1499481   1.6044298  16.2049532  94.2354012   2.6428607  16.0193694
  78.2250786  45.3643560  16.2398469  78.0246353  46.2718821  16.0108340
  78.3887863  45.3858185  17.1826994  93.5775280  42.7895784  30.2346468
  93.1766510  43.6131525  30.5125928  92.8371239  42.2294235  30.0017071
 101.4615250   3.4925500  23.4436727 101.8412685   3.6564001  22.5804377
 101.7144585   2.5926599  23.6497164  19.1030296  11.1015308  53.1747103
  19.4054397  10.7123733  52.3541403  19.8963340  11.4507306  53.5808563
  90.8732128  33.8328481  37.6638222  90.2209473  34.3927741  37.2427940
  90.4591274  32.9707575  37.7033663  11.0501846  21.5306211  28.4387231
  10.2384742  21.7169046  27.9668689  11.1228450  20.5763149  28.4228539
  97.7850056  44.3407440  36.0385132  98.6541080  44.7242832  36.1559558
  97.9391098  43.3960629  36.0310793  97.5263786   7.4619770  30.9454608
  98.0579948   7.7094841  31.7020035  96.6283321   7.4523866  31.2766075
  34.3348106  23.2704091  44.8750067  33.8411411  23.9748144  44.4550800
  35.1484855  23.6856365  45.1609230  97.5650787  70.6387472  48.3022690
  96.9677067  70.3406525  47.6163244  98.2384872  71.1332560  47.8351355
  20.7065661  93.1641381  78.2888251  21.1543258  92.9645293  77.4666971
  19.8236640  92.8133243  78.1720024   4.3837341  33.0562878  13.3360457
   3.5913833  33.5918951  13.3752775   4.5761378  32.9813480  12.4013829
  34.7131999  70.1445866  75.5217075  34.2581256  70.8348417  75.0393248
  35.5199798  69.9990320  75.0275898 102.2943878  84.9454689  23.2797790
 101.5858650  84.5030975  23.7472582 103.0477524  84.8768902  23.8662720
  87.7211857  25.4773450  48.4476900  86.9475079  24.9362564  48.2899475
  87.8023720  25.5070424  49.4009781 105.6017971  53.3544254  20.5851650
 106.4485550  53.6060333  20.9538460 105.5503654  52.4091291  20.7265759
  90.6991673   8.7843525  18.9786029  89.9695778   8.8635921  19.5931411
  90.2932930   8.4969145  18.1607509  71.7262268  13.0799842  42.7976274
  71.1909676  13.3497036  43.5439396  72.4393415  13.7179565  42.7713203
 107.5686646  57.6268005  37.1610117 108.3360577  57.1982813  36.7819118
 106.8383980  57.0481873  36.9415760  99.7387409  34.3087363  66.1239576
  98.9274979  34.4062304  66.6225767 100.2175236  35.1219654  66.2841272
  99.0124035  29.3354917  32.2280025  98.5438156  30.1446056  32.4329233
  99.8581409  29.6279812  31.8882895   4.1986259   8.6742663  47.5947189
   4.7241195   8.0087346  48.0387497   3.5119136   8.8960922  48.2235718
  85.8176136  60.9053469  24.2894697  86.2787247  61.7350960  24.4124627
  85.2017021  60.8628988  25.0209594  16.0885413  17.2716236  33.4345174
  15.8578761  16.3444030  33.4918785  15.9645351  17.4926269  32.5114727
  10.3429397  27.4309564  13.1293821  11.2021430  27.0228362  13.0224514
  10.3052600  27.6707864  14.0552843   6.6806586  31.0959649   6.8731844
   6.7229636  30.8557105   5.9475923   5.7451614  31.1860299   7.0547384
  13.4599384  42.7516747  13.9190340  13.1434711  41.9986391  13.4200203
  14.3842395  42.8251886  13.6813354  11.2420161  27.6537991  48.8396358
  11.2927516  28.0345106  49.7164011  11.5692695  28.3419919  48.2603836
   1.0652621  46.6003227  52.7100134   1.9647678  46.6469622  52.3860550
   1.1570342  46.4491272  53.6507320  86.3435268   7.2787559  12.0684922
  86.4146042   7.9515821  11.3913774  87.1560574   7.3554981  12.5686264
  17.8526004  40.9563971  66.4970112  17.2981818  40.7390070  67.2464085
  17.6771529  40.2635384  65.8603001  81.4602184  53.8423252  77.9945040
  80.8288574  53.1244421  77.9468775  81.9309902  53.6932421  78.8144875
   6.6301711  47.2752666  19.9790633   7.2230037  46.7121220  20.4767084
   6.0949500  47.7072287  20.6447816  34.3867477  63.7985563  41.2371731
  33.5048469  64.0844536  41.4753962  34.4910320  62.9536867  41.6748381
  64.8122978  71.5215015  12.8328252  64.5631266  70.6308603  12.5860417
  64.7195482  71.5409374  13.7853229  81.2182323  97.5428874  18.5290027
  81.7971603  97.2648577  19.2387724  80.4210369  97.8353591  18.9707947
   0.2481731  43.9109612  35.5888414   0.2400954  43.0530024  35.1644921
   0.6132014  44.5009279  34.9293470  28.2019218  52.3576117  30.8225036
  27.8762325  51.6740561  30.2369165  27.4167140  52.7039146  31.2464857
  34.2443355  27.9964185  69.6338463  34.1472324  28.7595963  69.0643215
  33.5250171  27.4170160  69.3826199 100.2178192  65.4116249  30.4774618
 101.0835171  65.6569958  30.8039403  99.7090530  65.2230597  31.2660217
  98.8281727  22.5210357   5.6309730  99.6538258  22.4952483   5.1473886
  99.0676498  22.8529763   6.4962447  30.7086738  94.6941948  18.3405614
  30.6010135  95.2201557  19.1330242  31.5243514  94.2134285  18.4811723
  16.4779266  56.8530607  34.3858027  15.8809550  57.1240377  33.6883593
  15.9055789  56.6513348  35.1260424 104.0445709  30.9676647  23.2463145
 104.5450878  30.2849817  23.6931443 104.5775223  31.7569733  23.3421874
 102.2753143  77.2696733  29.3781900 102.2529984  77.7517700  28.5515618
 102.8795242  77.7670908  29.9293232  81.2148754  40.5821991  69.5834017
  81.4787976  41.4779472  69.3731451  80.4813544  40.6847095  70.1897621
   0.4088379  21.6133094  54.8521900   0.8852227  21.8786287  54.0654898
   0.5866629  20.6764531  54.9353313  11.7147839  23.7388563  80.1104927
  11.8947875  22.8392196  79.8375702  10.7705748  23.8410044  79.9910498
   1.2465104  93.5779728   9.1207677   1.7131933  94.3368544   9.4708234
   0.8296379  93.1797613   9.8848897  62.9168805  94.6321739   5.9029466
  63.5669836  95.0537123   6.4650041  62.1309741  94.5756735   6.4464456
  98.5724257  49.5510101  56.7462683  98.6513023  50.1562595  57.4836159
  98.3761547  50.1119423  55.9958935  21.1023474  31.6128635  63.5660219
  20.5931592  31.7896199  62.7750015  21.4184523  30.7165766  63.4520912
  62.1902998  94.4880308  36.2836916  62.8796299  93.8357557  36.1588079
  61.9922622  94.4510664  37.2194463  44.8170259  92.4072565  13.4862119
  44.5672610  91.5657295  13.8678819  45.7528414  92.4859299  13.6713869
  33.7592101  61.2671375  70.7863569  34.7094226  61.2706947  70.9017372
  33.5054755  62.1871042  70.8605957  78.8931642   0.4882295  32.6013929
  78.4141873   0.1526744  31.8436224  79.7058074  -0.0174182  32.6141817
  50.4738235  51.1940527  80.9231281  49.9604654  52.0004988  80.8747959
  51.2049103  51.3391638  80.3225517  96.0974173  61.0521269  49.9899960
  95.7708518  61.5264082  50.7546139  96.3266913  61.7378426  49.3627357
  89.7075335  40.3269434  77.0581484  90.1189093  39.5345306  77.4032354
  88.7678079  40.1585340  77.1273184  34.0983503  95.6058515  15.1297838
  33.4125876  96.2701382  15.0613386  34.6132878  95.7098640  14.3296320
 103.2600624  48.4942579  59.0676594 102.4073873  48.8599586  59.3031120
 103.3399869  48.6586380  58.1280756 107.0586219  24.3386459  78.0549335
 107.9811162  24.1762447  78.2520676 106.5805302  23.8014317  78.6866474
  40.0633358  63.8368441  11.2229425  40.2641066  64.3410291  10.4344446
  40.4253443  62.9677500  11.0501462  59.9189941  23.1391723  33.2954294
  59.2421274  23.5325868  33.8461668  60.7180826  23.1982047  33.8190729
  48.8754312   2.9016883  13.8861925  48.2164494   3.5011870  13.5360891
  48.8958947   3.0897433  14.8245222  76.3006504  13.8300807   1.5398866
  76.9113131  13.3312089   2.0825273  75.4616393  13.3827645   1.6503507
  46.5762766  98.6671986   1.2902910  45.6979700  99.0137447   1.4475042
  46.8462416  98.3066954   2.1349126  52.3267134 100.8479457  52.0329618
  51.9144233 101.6409617  52.3755646  51.7638143 100.1354007  52.3357105
   4.4598824  40.3853273  83.0204201   3.8695109  41.1367798  82.9655266
   3.9296296  39.6923995  83.4140110 106.4487640  12.8395516   2.3942548
 106.3756339  12.1335990   3.0365354 105.6317846  13.3302504   2.4836332
  36.3691664  62.8820229  86.6070271  35.7105732  62.1952963  86.5026665
  36.9488859  62.7744961  85.8529758  70.5901583  80.7517017   7.4413187
  71.4147957  80.3135098   7.2311098  70.0069579  80.5248488   6.7169935
   3.5734653  35.2337599  62.7932930   3.9439213  35.3779626  63.6640406
   3.5368609  36.1061573  62.4010992  80.3512796  90.5881674  69.4793844
  80.3071787  91.0976536  68.6702442  80.4372098  91.2441892  70.1711082
 105.3204654  33.7471771  79.8588848 105.2200321  33.0642319  79.1957617
 105.5138056  34.5400786  79.3587303  16.3105202  94.5220661  79.3584490
  16.2456238  95.4768944  79.3407345  15.5865586  94.2225552  78.8085365
  78.4133623  20.2996308  33.1587488  78.8302831  19.8329837  32.4344236
  79.1404925  20.5708510  33.7190610  93.9941828  36.2559128  82.9385662
  94.5825724  35.9450960  82.2505093  93.8063280  37.1639204  82.7009487
 103.7675418  24.3838644  82.2487259 103.6987067  24.5017672  81.3013172
 104.0186105  23.4667039  82.3583317  12.4883699  71.0676050  57.2134542
  13.2075405  70.8321047  57.7995968  12.6748860  71.9705391  56.9562531
  30.7822653  91.5807070  38.7725622  31.2887930  92.3917402  38.7291318
  29.9393388  91.8442453  39.1416914   1.1789209  17.8674114  63.7127018
   0.7755371  17.6817572  64.5606661   0.4398360  18.0258799  63.1254435
   5.3955853  58.8201809  82.0215034   5.8906561  59.5557785  82.3820972
   5.5039430  58.9001465  81.0738277   4.1835022  18.0513608  85.4356003
   3.4903258  18.0641341  84.7756195   4.7906536  17.3764086  85.1322174
  91.4403014  44.2164421  87.7535439  90.5306045  43.9421892  87.8695965
  91.5725700  44.2125130  86.8055344  25.2583075  43.7865067  79.5819616
  25.8113289  43.0265570  79.7632980  25.6835628  44.5081806  80.0451851
  38.7003756  50.5910444  77.4530697  39.5423603  50.2607775  77.1396685
  38.8066936  51.5422058  77.4678946  65.4931768  89.8190297   1.9214422
  65.1425918  90.5956949   1.4854223  65.6316932  89.1892399   1.2140447
  29.9318161  85.3221501   4.1212636  30.3030445  84.6654571   3.5320455
  29.7491970  86.0738553   3.5574991  12.0025905  95.9474958  23.4285432
  11.9867476  94.9949278  23.5212404  12.4239596  96.0988296  22.5825101
   7.6782966  70.6606054  84.5207596   7.0620561  71.1334419  85.0801373
   7.2289813  69.8428488  84.3071651 106.8711591  73.2404470  80.8747673
 106.5338458  72.3557711  81.0154819 106.4994655  73.7552452  81.5910435
   8.2241720  46.1125755  56.1694050   7.8372079  46.8898630  55.7665157
   7.5281435  45.4561186  56.1404705  45.5006655  95.1380600   0.7693082
  44.6446391  94.7127546   0.7186681  45.7251324  95.3336348  -0.1404208
  67.7404355 100.6750936  78.2461214  67.7432471 101.6131699  78.0557632
  68.3332675 100.2971124  77.5965738   5.5872101  52.7978230  85.4809475
   4.9277705  52.2281027  85.0849819   5.1954514  53.0789995  86.3078117
   1.2086423  76.7405476  32.8005773   0.4020866  77.1721996  32.5188333
   1.8975481  77.1604814  32.2855073  83.4159104  64.9458504  69.8946047
  83.8104097  64.1958427  70.3396797  82.6097576  64.6001196  69.5114374
  93.0221931  15.5525071  -0.0487154  93.6634342  14.9545199   0.3352815
  92.9657189  16.2760884   0.5753595  57.4659713   8.7824958  56.2979650
  56.5805419   9.0320151  56.5625143  57.6361354   9.3011706  55.5116749
  28.6474323  71.3430929  54.0937185  27.9647899  70.8909082  54.5894670
  28.2242823  71.5861034  53.2702398 100.5395607  61.1774445  48.8447714
 100.6611149  61.3584232  49.7768116  99.6271179  61.4099407  48.6726475
  28.0841871  90.7600869  42.1551878  28.5798760  91.2593283  41.5061265
  28.0416860  89.8743833  41.7946893  71.3210782  91.7383589  26.8908578
  71.6792282  92.0091738  27.7362043  72.0792445  91.7110599  26.3071901
  88.9356510  35.4642940  87.5747871  88.4474842  36.1707830  87.1519470
  89.8024015  35.4963493  87.1698856  54.0397545  91.4931597   7.6635629
  53.2782920  91.4141621   8.2381612  53.8476904  90.9092964   6.9297773
   0.5692228  25.9088898  86.0864639   0.0380255  26.6378856  86.4068127
  -0.0240010  25.1577473  86.0964489  76.0820682  29.6040923  32.2432024
  76.8555413  30.1433284  32.0783121  76.3025798  29.1026790  33.0281812
  63.6899076   4.3791539  34.0396387  64.5943521   4.6631009  33.9070303
  63.2425664   4.6174151  33.2276327  27.4042225  83.8479042  74.1194582
  27.3936009  82.9067516  74.2936993  26.8981600  84.2299557  74.8365116
 106.9780981  37.2827148  67.1649551 107.6073739  36.9385242  66.5311003
 107.3232993  37.0127463  68.0159473  49.7912761  77.2021307   1.3307554
  49.9556001  77.9497875   0.7560998  49.3045851  76.5836705   0.7859022
  23.9351749  73.1039000  74.2666483  23.4202909  73.6653090  73.6870432
  24.8344183  73.1949043  73.9515066  67.7502140  70.9024657  13.2465917
  66.7995866  70.7911266  13.2584459  67.9279645  71.5195216  13.9564401
  92.2920553  59.6822357  82.6269436  91.4365713  59.2801952  82.7777481
  92.3709611  60.3427458  83.3152294   5.0406885   3.5968453  13.2768327
   5.8870888   3.8478238  12.9069025   5.1595211   2.6876742  13.5516435
  18.5457802  51.8721628  80.8777618  19.3026233  52.3882389  81.1554050
  17.9875743  51.8288612  81.6541386  23.1332636  89.9593353  55.1732826
  22.9783463  89.1471004  54.6910810  22.3214555  90.1087093  55.6579304
   1.0151172  11.3111932  41.2469656   1.4462972  11.4576012  40.4050142
   0.4180575  10.5804545  41.0864336  27.2275066  92.5315189  57.8371763
  27.5844073  92.3332214  56.9714212  27.7200747  93.2984829  58.1293678
   8.4124875  79.9414158  74.8502064   8.6614376  79.8731089  73.9284754
   9.1366243  80.4151344  75.2594090   7.2369754  77.7964401  75.6887674
   7.6260316  78.5967207  75.3360367   7.8910035  77.1179962  75.5208492
  63.1267484  91.6957773   6.7865736  62.3797711  91.9443478   7.3310644
  63.5950025  91.0423578   7.3062021  19.5577967  67.4936581  62.1488333
  20.1628828  67.4328518  61.4096403  20.1226091  67.6235294  62.9106426
   1.1581707  11.2218959   4.9786741   0.7622194  10.4558808   4.5631391
   0.6720472  11.3289506   5.7962686  53.3453703  84.6568680  76.1820412
  53.3797836  84.6809673  77.1383190  52.9914379  83.7915039  75.9768438
   5.7364559  50.5141265  19.7303850   5.1926184  49.7598750  19.9574739
   6.2101507  50.2400977  18.9450437   3.2039404  27.0045239  34.6022302
   4.0941668  26.7158324  34.4012624   2.6556206  26.2451274  34.4050104
  36.8892074  49.2613363  68.5548210  37.4101806  48.6833954  67.9973269
  37.5065517  49.5787764  69.2138720  19.8670137  97.8703499  76.1025715
  20.7782888  97.5801182  76.0628796  19.8136532  98.3823681  76.9095564
   3.3993265  80.2873802  79.9843788   3.1105971  80.1635933  79.0801954
   3.0994350  81.1670971  80.2132607  95.0478665  22.5460584  25.2514440
  95.4090135  21.7582757  25.6578905  94.2430918  22.7200086  25.7396204
  37.9043460  36.3918543  76.2219191  38.6134052  37.0333481  76.1777449
  37.3305941  36.6182446  75.4899406  69.8468119  24.7787578   6.4643175
  70.4231716  25.3023059   5.9076005  69.9437590  25.1614005   7.3363382
  27.7577468  97.1665634   3.6570817  28.3020367  97.7684082   4.1647893
  28.0430289  97.2912039   2.7519304  84.0012423  16.8403537  34.5427114
  83.0743949  16.8658549  34.3049318  84.0088038  16.9688279  35.4912168
  85.6411700  40.1822383  24.9858076  84.6917955  40.0625903  24.9612218
  85.9904568  39.3003852  25.1145536 104.2998312  61.9064903  87.3216724
 104.7361786  61.6094017  88.1201553 103.4125511  61.5535736  87.3881149
  81.7614828  17.8528268   9.3844778  82.0529477  17.2726590  10.0878126
  82.1100776  18.7118823   9.6226770  15.6376147  67.4566936  85.1659012
  15.2011907  67.4936724  84.3147850  16.2157810  66.6962099  85.1057529
  77.5160655   1.9105857  64.0153837  76.8806656   1.9561999  63.3009481
  77.1020373   1.3464301  64.6684837  89.8822240   4.5251948  11.5169794
  89.8849670   3.8938052  10.7975656  89.2697100   4.1588599  12.1548349
   4.8420635  69.2964411  87.7715302   5.0053495  68.4888887  87.2842598
   3.9451623  69.2049313  88.0931377  19.1602182  65.1994038  80.1965523
  19.9367237  64.7804070  79.8254585  19.1634023  66.0815430  79.8249960
  83.1135170  32.6802451  20.4922468  83.3401470  31.9766147  21.1003381
  82.1564548  32.6964099  20.4906255   1.8720722   1.5534551  13.0382711
   2.4464798   2.0569617  12.4614126   1.8175292   0.6903464  12.6280290
  53.3309110   0.4229300  60.2541590  53.5038420   0.4341643  61.1955404
  52.4955960   0.8804744  60.1586103  39.1729546  67.6248693  54.7917223
  39.7924709  66.9185638  54.6085310  38.3343840  67.1810627  54.9184704
  97.5321714  30.0559241  28.5143453  98.1059281  29.3186385  28.3058721
  96.9690983  29.7301394  29.2165166 101.7549006   1.7981202  17.4217874
 102.2152750   2.4253661  16.8642503 101.0956208   2.3215253  17.8774530
  26.9502940 101.3931717   7.6324255  26.4212676 101.7853416   6.9377595
  26.3514151 100.7968964   8.0819112  60.2387055  85.7876123  30.6935960
  59.3185624  85.6565942  30.4646856  60.5780061  84.9041165  30.8369237
  90.4160170  78.9170456  57.1698523  90.8396320  79.5738792  56.6172600
  90.7927112  78.0847406  56.8841982 106.8139390  46.1583614  87.9071140
 106.4699976  45.3980446  87.4382305 107.7540532  45.9920645  87.9761219
  26.3324666  77.9061127  67.0818472  27.2501326  77.7848339  67.3255920
  26.2049437  78.8547087  67.0933676  66.4639410  88.2382311  10.8006746
  65.8494361  87.6741208  10.3312093  66.7824753  87.6966728  11.5228159
  75.3451101  27.3544318  21.7276174  75.5374880  26.7043931  21.0518438
  76.1814074  27.4921948  22.1724302  23.5752487  66.0181522  78.6852407
  24.4442844  65.7859373  78.3580065  23.7278175  66.7703152  79.2572594
  48.5996239  17.7625901   4.9560625  49.2271010  17.6768786   4.2383176
  48.6780564  16.9416911   5.4420740 105.5445568  33.1054885  23.6231882
 105.2333443  33.8921363  23.1753522 106.4263527  33.3314235  23.9191991
  95.9666054  26.2963635  28.1707078  96.3087670  25.8989484  27.3699457
  95.0740067  26.5585906  27.9454690  90.5470328  18.6232185  85.8027363
  90.7847981  17.7233410  86.0261631  91.2633578  19.1538239  86.1513996
  75.7656123  25.4964024   5.3537733  75.5745099  26.0719067   6.0943872
  76.5292533  25.8921773   4.9337179  52.2925158  97.6464809  21.7352373
  52.6039930  96.7435373  21.6727335  52.3051270  97.8398432  22.6726228
   7.5306338  11.9892776  86.0535240   6.7963248  11.7821956  86.6315746
   8.3039582  11.6914678  86.5325928  14.4775200  82.7057266  81.4525414
  15.0752139  82.9217529  80.7367706  14.1907597  81.8122196  81.2637138
  93.0288856  25.8547646  30.5964262  93.3339469  24.9578292  30.4597646
  93.8269536  26.3831860  30.5873376  19.1573966  50.1987648  73.5520792
  19.0443254  49.4967842  74.1929150  20.0481725  50.5165482  73.6996031
   1.2734270  74.3204069  58.5804033   0.4313272  74.4909477  59.0023184
   1.8296692  75.0504684  58.8521242  18.5916289  84.1276039   1.5311224
  18.0376323  83.5075225   2.0052702  17.9848166  84.6102942   0.9698564
   2.5341868  42.0195150  79.9591637   2.9924598  42.2583437  79.1534472
   1.8520746  41.4109135  79.6753359  76.3564001   8.0455739   6.8521959
  76.9286372   7.5874717   6.2366277  76.6756038   7.7841718   7.7159101
  94.2776768  24.6686227  18.4705144  94.3679993  23.7248475  18.3387548
  94.7665731  24.8461396  19.2740709  91.5633885  89.7228336  73.3599663
  91.9589893  88.9744091  73.8067341  92.3074691  90.2597237  73.0873346
  35.3204489  51.1891508  65.5054998  36.2332535  50.9149694  65.4169369
  34.8145461  50.3920412  65.3476667   1.2335587  55.2017028  28.3672220
   2.1614313  55.1838691  28.1327802   1.1162543  56.0383517  28.8172132
  99.9570630  54.8512840  79.5564079 100.4012499  54.2175674  78.9930868
  99.1467677  55.0587988  79.0910149  16.2698066  51.6507387  77.3886824
  15.9436524  51.5855837  76.4911270  17.0012784  52.2656822  77.3336697
  55.0818829  25.6969792  16.0306722  55.6327872  25.0414855  15.6028062
  55.2012543  26.4890820  15.5066949  92.7328484  24.7301061  10.6497652
  93.3241002  24.0357215  10.3591043  92.0584361  24.2749650  11.1539918
  18.7235117  63.5389090  55.8915710  19.3154407  63.9462709  56.5239525
  17.8564930  63.8680792  56.1285496  32.2761941  41.0413265  85.1604176
  31.3481808  40.8309221  85.2641296  32.3090601  41.9976711  85.1841259
  27.4309993  79.1837120  59.0936708  28.2394361  78.6836433  59.2058563
  26.7740893  78.6903906  59.5849228  44.8414298  86.5278567   1.1779672
  45.1025262  86.8466200   2.0419389  44.9702593  85.5804457   1.2232286
  74.7715179  67.6333339  10.3704530  75.7029749  67.8451545  10.4317075
  74.3545745  68.1956965  11.0232526  75.2659793  26.6613395   1.5047628
  74.5131932  27.2492606   1.5671522  74.9010645  25.7886130   1.6511232
   7.5625294  45.9198570  79.8611307   7.3673636  46.8249464  79.6183348
   8.4531683  45.9522772  80.2103329  16.2408435  40.5494881  83.8536644
  16.1939514  41.3117123  84.4307709  15.3329980  40.3867006  83.5976410
  23.4364486  41.1364555  42.2555637  22.6292562  41.6353512  42.1299553
  23.6932802  40.8701944  41.3727427  92.3825662  22.5159509  15.8629400
  92.1406404  22.5210482  16.7890531  91.8225233  23.1827075  15.4654199
  23.8950634  72.5112963  61.9025564  23.0813050  72.7963781  62.3181963
  24.0084624  73.1086493  61.1632729  99.7051148  43.7672663  82.5820923
  99.7153054  44.5032597  81.9701767  99.3484698  44.1335249  83.3913517
  86.8863587  15.0538356   6.2707407  86.6116755  15.1969916   5.3650362
  86.1549084  15.3770644   6.7967969  31.1972141  71.3369417  70.4547405
  30.7314825  70.6641006  70.9513378  30.7450056  71.3684559  69.6116829
  29.4483580  81.3447584   5.7121736  30.3639086  81.2218656   5.4613763
  28.9902320  81.4874829   4.8839361  82.9825263  23.7472588   1.9512922
  82.7651684  22.8432710   2.1788866  82.6552705  23.8547093   1.0582143
  67.6243372   3.6648757  19.2587739  66.8148909   3.8437993  19.7373277
  68.3142344   4.0390975  19.8067075 106.2061934  56.1613369  83.9840698
 106.5766061  55.7077456  83.2269192 105.5386077  56.7390442  83.6141777
  92.9374425  17.6425702  24.5197755  92.9740850  17.1999509  23.6718446
  92.7527587  16.9435460  25.1470644  14.2438316  30.6170654  86.5134048
  14.3207359  29.7568583  86.9261456  13.3263254  30.6734991  86.2465096
  26.4049240  74.0707411   8.1334287  27.1292796  73.5411824   7.8001005
  25.7800826  73.4324302   8.4774667  21.2481117  27.6488614  80.6230068
  22.0644259  27.7448821  81.1135674  21.4045835  26.9053578  80.0408173
  61.5717523   1.3711936  16.2954504  61.5987710   2.0256478  16.9934446
  62.3015497   1.6032273  15.7211763   8.1221771   2.6583583   9.0222818
   7.5554371   2.2922856   9.7012788   8.2148123   3.5810763   9.2594320
  18.7450802  78.2931280  69.8929119  18.9577472  77.4149466  70.2088261
  19.4475937  78.8468742  70.2336025  19.8474467  72.6275301  87.1400738
  20.6532311  72.1759558  87.3911190  19.3213272  71.9554996  86.7067146
  25.3336501  67.4347305  75.0105810  25.1567602  68.3191490  74.6900463
  24.6139455  66.9064474  74.6653700  20.3062248  76.5315771  85.8485126
  20.8722091  76.3076448  85.1097679  20.9077144  76.6509533  86.5834904
  13.9658451  81.1278343  65.9788990  14.7573352  80.9594917  65.4675913
  13.3398569  81.4756393  65.3437567  54.2356356  99.7437109   1.4048749
  54.4319471 100.6803526   1.3851530  53.3080133  99.6982397   1.6365701
   5.8999372  78.1762695  51.1172485   6.1982793  78.9068127  51.6590309
   4.9447173  78.2289219  51.1491013  31.9072499  95.6568445  10.5763990
  32.6319226  95.0358499  10.6502229  31.6569733  95.8415855  11.4816362
  95.6021861  32.6134706  85.4279709  96.0519580  32.9783225  84.6658516
  95.4662268  31.6920018  85.2074146  57.5124931  82.3633099  87.4512291
  56.8005180  81.9088650  87.0008850  57.2779036  83.2896996  87.3963642
  96.6994099  56.6349411  86.8529224  96.8625025  56.9185066  87.7524948
  95.7667867  56.4201927  86.8348503  35.4574180  49.0086317  86.7467117
  35.3198171  48.9894390  85.7996464  35.5892444  49.9344683  86.9508743
  72.1432389   1.7896945  27.7435762  72.9579016   2.2866351  27.6687128
  71.7443444   2.1044785  28.5547620  90.8614377  81.0030937  72.1879530
  91.2453667  80.8073044  71.3332605  91.6134230  81.1762142  72.7543259
   4.9009487  56.3753033  73.0696297   4.0150091  56.7342806  73.0198240
   5.4732603  57.1393251  72.9991484 100.1227931  78.9776421  86.9003201
 100.7933567  78.7908554  86.2432861 100.4573880  78.5795164  87.7039242
  98.8835303  43.4617717  23.9160425  98.5534207  43.8555152  24.7236425
  98.2021014  42.8419501  23.6558134  27.2290587  63.6741972  68.7170887
  26.3875747  63.2990170  68.9766550  27.8609800  63.2871008  69.3229485
  24.5666170  61.8485355  61.7656612  24.2933941  61.0027075  61.4104700
  25.5104613  61.8802691  61.6095209  50.4309051  12.7145392  12.3585874
  51.1028687  12.8007752  11.6823846  50.1042025  11.8203551  12.2589475
   4.8901635  51.3255835  59.8220921   5.1952606  52.1343327  59.4109058
   4.7357512  50.7282734  59.0902376 103.9169643  72.3685312  71.5947342
 103.1877188  72.9624033  71.7729282 103.5197053  71.4977217  71.5845680
  95.1723067  34.6278388  12.4869997  95.0789682  33.6861045  12.3432523
  95.1309959  35.0092418  11.6100484   9.0888512  90.9667873  68.0892372
   8.6652309  90.6520367  67.2906685   8.4679049  91.5949249  68.4581518
  79.4956557  41.7337322  80.4506493  79.8741428  40.8563137  80.3948689
  78.5522930  41.5841150  80.5132008  30.1425763  97.4436773  33.5862047
  29.3797602  97.1451725  33.0909902  29.8273118  97.5238861  34.4864351
  37.8602791  58.2138491  87.4462223  37.3671603  58.7536430  88.0640316
  38.7768459  58.3552837  87.6831436 107.3938120  65.0439644  86.9187641
 107.1688319  64.3978691  86.2493038 107.2227277  65.8890629  86.5031147
  10.8998668  65.5056572  70.7298326  11.6625810  65.6238842  70.1636887
  11.2477434  65.5783033  71.6186190  97.4334590  88.8269901  69.2920637
  98.1640915  89.2960453  69.6950436  97.8465132  88.1167889  68.8009071
 104.3516601  85.1018047  85.4007626 103.8693539  85.4713345  84.6611214
 104.5840059  84.2175198  85.1174164  61.7972597  79.9553837  44.0364820
  60.8912524  80.1164998  44.2999631  61.7987283  80.0903882  43.0888540
  43.1106820  95.2647556   2.9255182  43.6443397  96.0535206   3.0219156
  42.2188689  95.5538668   3.1186945  28.4556603  65.0605536  83.6825562
  29.3638873  64.7971821  83.5342503  28.1739950  65.4307985  82.8460121
  30.6755567  14.3886602  71.8836260  31.3891387  14.3059170  72.5162268
  30.1638365  13.5872400  71.9936180   5.1121300  55.6041765  79.3257618
   4.3293172  55.2275991  78.9237356   5.8173996  55.0031805  79.0856981
  88.5320537  26.0949904   9.9959547  88.3476178  25.2360637  10.3760225
  88.0642406  26.7115790  10.5591566  65.4930266  73.9041676   3.4117681
  65.5035408  73.0265273   3.0298406  65.8986839  73.7959041   4.2719728
  24.4374323  67.7214956  57.4548626  25.1312757  67.6897335  56.7962217
  24.8991036  67.6699209  58.2917786  76.6063651  88.1699313   5.3686220
  76.2904461  88.4565891   6.2255079  76.7290982  87.2252692   5.4623491
  63.1166800  92.3930468   3.8427145  62.8493412  93.0152096   4.5192224
  62.7795084  91.5500463   4.1458589  14.1238284 101.0652161  43.4516764
  13.3124256 100.5781651  43.3080387  14.2112315 101.1095142  44.4038486
  12.1168005  46.3249922  74.0076542  12.7260077  45.9598303  73.3659744
  11.8837130  45.5831289  74.5658159  55.9753180  21.6736102  71.0325098
  56.2625456  22.2946215  71.7018938  55.1030254  21.9778943  70.7820177
   8.7637007  32.3498774  75.0097418   9.6779722  32.1475363  74.8112535
   8.7781262  33.2611823  75.3022289  55.1188660  70.4553080  83.4019470
  54.7124004  70.3572750  82.5409031  54.4485664  70.8814526  83.9361191
 105.0090329  28.7597091  10.7779008 105.1990358  28.2879979   9.9669630
 105.7932727  29.2842872  10.9392149  33.3763762  86.4949240  12.0962221
  33.6588978  85.8975901  12.7887613  33.0256220  87.2536243  12.5626737
  22.4618673  61.7389965  66.0467243  23.2542610  62.1855116  65.7484484
  21.8232441  62.4412632  66.1700726   9.5327282  34.6992404  34.9439985
   8.9244890  35.2579314  34.4601232   8.9867830  33.9919764  35.2874357
  56.9082419  45.3221137  16.4478380  56.3092784  44.5844085  16.3326532
  57.7804033  44.9400527  16.3498765  90.4005365  15.9950454   1.4720518
  91.0826926  16.6665131   1.4770586  90.6518380  15.4036004   0.7626325
  54.9004595  23.5904700  37.0346147  55.2505974  24.3288428  36.5361768
  54.9390535  23.8775355  37.9469472  85.3803281  32.0992286  12.5260431
  86.1774735  32.4011237  12.9615480  84.7357552  32.0264155  13.2299310
  16.6225767  52.0549011  82.8276539  16.9553673  51.6330338  83.6198044
  15.7560730  51.6697168  82.6971340  19.2500269  45.3403759  76.0765886
  19.2428088  44.5612812  75.5205393  18.7935925  46.0060883  75.5620718
   4.5997676  56.8199205  76.5233374   3.9369908  56.2068272  76.8412590
   4.3448788  57.6633501  76.8973541  95.9732525  18.7929637   4.3111688
  96.5722911  18.7131030   3.5688669  95.6543581  17.9025466   4.4584638
 101.4807980  28.0760056  11.7481023 100.5511658  28.2576854  11.8859750
 101.6118948  28.1984479  10.8078653  25.8655187  77.2107877  13.2939130
  26.1087444  78.0991091  13.0332262  26.1400022  76.6619648  12.5592786
  98.3082215   3.1645257  14.6976072  98.0014603   3.9703280  15.1133138
  99.2291753   3.3332736  14.4986135  37.6346326  88.7611771  56.7061615
  37.5642395  89.0083122  57.6282263  36.8769765  89.1718769  56.2896061
  12.8165948  54.9169207  78.6064529  13.2897413  54.9007845  77.7745247
  13.3050871  54.3182802  79.1714621  15.5043554  65.1914263  82.0174122
  14.8405516  65.8082485  82.3258400  16.3149059  65.7003164  82.0008564
  32.4625087  87.6729774  69.7531843  33.0675650  87.3777199  70.4336023
  31.8048477  86.9795036  69.7001505  94.6991412  60.8925295  71.4102602
  95.3765432  60.2841568  71.7056370  94.0494696  60.3369045  70.9796333
  48.4609270  56.8567467  56.6099882  48.3795547  56.3645554  57.4269056
  48.8504744  56.2360477  55.9941816 105.0219528  43.0245788  20.9232980
 104.9745266  43.9731414  20.8040792 104.9196712  42.8963000  21.8663389
  15.4461324  56.8850470  31.2961507  14.5205331  57.0117044  31.5046120
  15.5245686  57.1544027  30.3809857  32.2585773  68.0342150  76.6017199
  32.7166080  68.7289143  77.0748234  32.5625539  67.2244930  77.0118237
 102.8977130  48.9555407  84.0226746 102.8014873  49.7979975  83.5785675
 103.2543562  49.1775513  84.8827648  75.0094549   8.5679681  29.8948556
  75.8502708   8.2538802  29.5622713  75.0729699   9.5217091  29.8440630
  30.1561618  50.7176065  65.2365685  29.2543554  50.3980303  65.2656555
  30.1033950  51.5394974  64.7487736  49.4655125  21.7190034  36.6842824
  48.8783900  21.3679034  37.3537904  50.1832597  22.1146733  37.1787626
  14.2692304  58.0102968  67.2444534  15.1803696  57.9687786  66.9540501
  14.1445148  58.9207125  67.5124502 101.6784714  89.8396873  79.4106674
 100.8927737  90.3355408  79.1803598 102.3648570  90.5020523  79.4905663
  55.5219336  86.7761935  15.1428968  54.6892925  87.2403754  15.0564176
  56.1440547  87.4495353  15.4182226  44.6792462  77.1606411   5.2920229
  43.9612397  77.1026720   5.9223730  44.2496993  77.3391808   4.4554502
  39.4395112  93.3505644   2.5962526  38.6597236  93.4832300   3.1352884
  39.1595124  93.5785688   1.7097742  23.6772227  26.7522979  48.4419155
  23.0647635  27.2140050  47.8692436  23.3379221  26.9004989  49.3246078
  43.3610036  93.8187183   7.6323301  42.5548240  93.3860887   7.3510248
  43.7966677  94.0669741   6.8169862  85.2231709  15.7650334  20.1987249
  85.4824953  16.1578900  19.3652708  85.4322426  16.4316470  20.8530599
  36.6866064  46.3827705  79.1524935  37.5492334  46.6439104  78.8301373
  36.0751987  46.9602013  78.6953449  30.4421377  54.3888426  55.3439903
  29.8193717  55.0866318  55.1403093  29.9106336  53.7047815  55.7511711
  73.9066394 100.8462347   6.7817575  74.1063269 100.4083837   5.9543211
  73.3109816 100.2473177   7.2320062  69.0324434  95.5405630  26.7751009
  69.3623408  95.2359213  25.9297639  69.0912016  96.4946617  26.7254049
  31.9017363  59.6678543  80.8908272  31.1179423  59.2974138  80.4850292
  31.6511393  60.5618238  81.1237431  14.2059326  18.9508016  26.6329652
  13.5661698  19.0121085  25.9236223  13.7018490  19.1313178  27.4264127
 107.7359088  41.4939260  78.8157177 107.8670676  41.2071085  77.9119682
 107.8958885  42.4373913  78.7931919  12.6109755  63.6106920  57.6354218
  12.3251748  63.8648176  56.7579412  13.4201574  63.1201601  57.4910736
  15.8629358  39.5318103  75.0581598  16.6531301  39.7178292  75.5653286
  15.3906631  40.3641129  75.0366688  78.2514439   6.6180760   5.4609949
  78.3201943   5.7077653   5.7488138  79.1377638   6.9668729   5.5559141
  89.6995119  66.2292576  69.9674606  89.1880123  66.8999290  70.4200172
  89.0591530  65.5578661  69.7320795  12.7140570   8.6853511  21.7014963
  13.2417631   7.9015071  21.8542844  12.7530289   9.1653258  22.5287420
  42.0156050  51.5673876  59.9472904  42.0148563  50.8933544  59.2676497
  42.9399872  51.7843819  60.0683928  14.6756315  22.7834708   7.4964887
  14.2696762  21.9616038   7.2208578  15.5799198  22.7187449   7.1893961
  75.5190818  54.3203545  82.6258945  76.4715854  54.3845749  82.6955128
  75.3674332  53.9354992  81.7626858   7.2464037   6.6897542  22.5224096
   7.8435707   7.2348554  22.0100767   7.4067831   5.7994468  22.2095853
  74.1565140  91.2829222   6.3907224  74.0903433  90.4060258   6.7687494
  74.0564307  91.1458124   5.4486925  98.0180232  52.1824980  55.3615856
  98.2147799  52.8381681  56.0306263  98.5978333  52.4027729  54.6325254
  32.3265505  96.7253876  75.9046268  33.2127118  96.9618988  76.1785126
  31.9507670  96.2827682  76.6656208  98.0386935  69.2666101  77.0665312
  97.1982292  68.8086796  77.0542383  98.0903427  69.6953917  76.2122965
  79.4295005   2.4957425  19.1042120  80.0339238   1.7951018  18.8592512
  79.5334171   3.1531293  18.4162599  27.4149680  52.4300623  66.5516138
  28.1255078  52.3363018  67.1861029  27.2703362  53.3743811  66.4917946
  43.9126253  60.8126307  81.0692692  44.2074585  60.6256390  81.9605255
  44.4801474  60.2795935  80.5124664  97.2385399  40.9920604  25.7072431
  98.0340020  40.9466750  26.2377340  96.7529170  41.7344386  26.0667783
  28.8309018   6.6563899  18.2992155  29.5303981   7.2977549  18.1743509
  29.2609231   5.8084065  18.1886083  78.4475069   1.2050921   5.7301885
  77.5208251   1.3353545   5.9314901  78.5712389   0.2569587   5.7744295
  39.3017149  85.6878090  71.6182804  39.0406609  86.1609268  70.8281851
  40.1300573  86.0918999  71.8767262  18.2692480  24.3048531  15.9446603
  18.4350968  24.4812590  15.0185949  17.3524618  24.0314252  15.9759504
  12.9932881  14.4886166   8.8590890  12.9873896  14.3214328   7.9166204
  13.1414223  13.6292846   9.2538530  71.8325424  66.3444471  70.9122992
  72.3223639  65.6287479  70.5072308  72.5057220  66.9517612  71.2192631
   0.5321622   1.9459969   9.9561578  -0.2379703   2.3547561  10.3511793
   1.2743592   2.4151761  10.3372747  59.5398092  70.0813961  71.9405317
  59.1894245  70.7379103  72.5425673  60.1088572  70.5763865  71.3511276
  99.3854634  13.0288703  13.3289796  98.7894194  13.7428481  13.1026918
  99.4771759  13.0857713  14.2800695  31.7460942  51.3096905  87.2626400
  32.0534778  50.8803797  88.0610371  32.0104098  52.2239208  87.3653316
   9.2300808  66.5748024  73.2548571   9.1730177  66.6498899  72.3023176
   8.3239698  66.6448212  73.5553455  30.8277440  57.9810905  66.9663525
  30.2636123  57.4244308  66.4295864  30.4986119  57.8668070  67.8578949
   6.7020899  99.9908257  57.2508669   6.2060571 100.0868988  58.0638552
   6.0349566  99.9642849  56.5649652  56.9759234  76.1528768  14.1969949
  57.4144276  75.5811299  13.5668737  56.9066628  76.9954552  13.7481100
  46.1775160  74.6918631  63.2896423  45.2696085  74.4129658  63.1706858
  46.5249777  74.7620201  62.4004984  53.3269151  94.8287596   0.9456426
  54.2488714  94.8078836   0.6891424  52.8751346  95.1956953   0.1857168
  19.3794441  95.3464317  64.9239588  18.5131502  95.7521820  64.8902178
  19.2592859  94.4906235  64.5124006  17.3122776 101.0235786  87.9783249
  17.3227894 100.9820271  87.0220852  17.7568305 100.2232456  88.2577515
  25.5120277  68.2252359  67.0170689  26.2810016  68.7444305  67.2523212
  24.8838997  68.3959866  67.7188778  10.3933621  45.7467372  12.4497777
   9.9433470  44.9317939  12.6724607  11.3046456  45.4875571  12.3133260
   3.3133865  16.0897738   6.0518724   3.9052677  16.6141993   5.5125410
   2.7368856  16.7308671   6.4676553  79.9313049  21.8722731   1.6622716
  79.3912183  21.7092664   0.8889944  80.3645007  21.0358531   1.8325120
  11.9469476  75.5904007  56.8226671  12.0228744  76.2900829  57.4714422
  11.4125144  75.9683323  56.1242533  36.7965245 101.2649727  44.1900158
  36.8265462 102.0571709  43.6535883  36.9605422 101.5729237  45.0813627
  76.9821863   8.6354930   9.9732381  77.6517533   9.2941815   9.7887212
  76.4056052   9.0528209  10.6132490  53.6248001  26.8066733  60.8952475
  52.8235610  26.2830489  60.8869791  54.2544993  26.2732928  61.3802433
  88.2762543  42.5799847  67.3377895  88.8530354  43.0458021  66.7323399
  87.6307909  43.2343531  67.6050043  44.8469734  65.1125336  86.8024540
  43.8918972  65.1360083  86.8617344  45.1358843  65.8886480  87.2824669
  64.4736060  98.9334597  14.9788457  64.2238577  98.5270227  15.8087045
  65.0019773  98.2692350  14.5362836  24.5396614  22.2815520  11.1816484
  25.2530193  21.8374879  10.7232172  24.7849608  23.2066733  11.1673337
  37.6278090  51.3342333  53.4655333  36.9922519  50.6263733  53.5715294
  37.5400925  51.8562889  54.2630243  16.6113206  91.9124092   3.2731229
  16.1654862  91.7463459   2.4425298  17.4949928  92.1805395   3.0212099
  24.9067330  98.8502216  79.1966200  25.0136447  99.7180271  78.8071203
  24.2359805  98.4278393  78.6600447  36.2187386  51.7911482  86.8149757
  35.6661248  52.5701332  86.7514515  36.6836977  51.7585039  85.9789276
  35.9024048  55.7301521  82.6618671  36.8477178  55.8778381  82.6334763
  35.7399607  55.0852108  81.9734669 102.0579068   5.6676347  20.0252706
 101.4155952   6.0842950  20.5997831 102.3181264   4.8739344  20.4927713
  10.7157826  77.1307278  75.2930212  10.9653211  76.2196541  75.1383924
  10.0071490  77.2939157  74.6705770  97.6254265  88.6688519  63.7031364
  97.6549141  88.8027859  64.6504641  97.5782553  89.5522881  63.3376980
  18.1377077  38.7390733  79.7415876  18.9401281  39.2174697  79.9501371
  17.5338399  39.4108105  79.4248199  85.1227347  25.6297261   2.0748216
  84.2503778  25.5435759   2.4592763  84.9846642  26.1464316   1.2809831
  91.5216069  41.6457278   1.5793115  92.3127334  41.3561828   2.0337469
  90.8210175  41.5310103   2.2213823  20.0046635  26.5289790  10.2246076
  20.2250767  27.0907218  10.9676439  19.1097641  26.7778165   9.9933988
  85.2268521  11.6272456   8.6297018  84.8053293  11.3669164   9.4487173
  85.5664842  10.8100802   8.2648355  98.9915792   6.2029225  11.9688398
  99.0332930   6.1922032  12.9250700  99.6135156   6.8827826  11.7095739
  15.2850235  51.3686705  74.8600149  14.3876386  51.6891003  74.7691536
  15.5877340  51.2458324  73.9602852   8.7667513  91.3770294  72.8020906
   9.0172321  90.7705688  72.1051645   7.8097039  91.3599300  72.8019571
  19.7800374  79.2078209  82.2618008  19.4883370  80.0624561  82.5791836
  19.2642772  78.5769939  82.7640724  43.7407186  10.4711478  77.3127508
  43.5973295   9.5462649  77.5134039  43.7725975  10.5066722  76.3567400
  27.9095793  57.9788113  86.8374920  27.7364302  57.7132320  87.7406597
  28.1123066  58.9124012  86.8970394  91.2095984   4.7286170  51.4686203
  91.5018519   5.2292006  52.2303534  91.5567978   3.8483470  51.6129112
  63.4409603  14.7531169  51.4313221  62.5952562  14.9629252  51.8275499
  63.9971121  15.5029433  51.6427088  24.7300744  81.6242504  70.3731108
  23.9818621  81.9519806  69.8741055  24.4581366  81.6968727  71.2879896
  97.3043053  39.7006900  31.2431795  96.7968790  39.3308169  31.9656354
  96.8672196  39.3795878  30.4544622  46.2636232  90.8360004  62.5758839
  45.7208586  91.5336514  62.9432201  47.0469809  91.2845135  62.2574234
  36.3656193   2.0250743  57.8231192  36.0941156   2.8513663  58.2228231
  36.7298435   1.5167373  58.5478020 107.6974523  83.5675812  78.4331274
 107.8454604  83.6838913  77.4946213 107.1083216  84.2828083  78.6731386
  64.7835016  87.9876328  45.5205441  64.7138977  87.5795555  44.6574879
  63.9829159  87.7251625  45.9748554  46.2361526  57.4911785  58.4369516
  46.2943888  56.5945101  58.1070614  47.0281458  57.9183578  58.1106186
  92.3413686  74.2377996  64.5373058  92.6036875  73.5032606  65.0921679
  92.8480152  74.1234922  63.7332726  28.3399010  62.4943209  75.7113314
  28.7262535  62.5965834  76.5811014  27.8020167  63.2774448  75.5945969
  46.7649746  97.4664307  68.3765650  47.6391840  97.5963211  68.7441587
  46.8242073  96.6351223  67.9057646   2.7706099  28.9698274   0.8773595
   3.6619640  29.3128020   0.9412939   2.8853202  28.0330474   0.7176191
 106.8345920  80.6004047  56.8086100 107.1932579  80.1827526  57.5916529
 106.0525412  80.0889206  56.6012239  84.3555395  48.0409629  22.0724947
  85.2177088  48.3829982  21.8360406  83.7380974  48.6751754  21.7081243
 102.5479285  37.6506621  12.0067579 101.5948288  37.6434810  12.0949823
 102.8462164  38.2617766  12.6803953  22.0719862  23.7262201  81.0980320
  21.1447811  23.7272358  81.3357735  22.4607182  23.0498338  81.6526699
  17.6252079  52.0594031  15.5313188  18.0387688  52.7072436  16.1018449
  16.9706774  51.6349036  16.0859567  17.6201499  70.8834171  73.3854914
  18.0152643  71.2617064  74.1709948  18.0170000  70.0154686  73.3120012
  54.3471571   4.4715541  81.7755508  53.5726150   4.4249671  81.2150669
  54.3150362   5.3493159  82.1560097   0.0884295   8.4558303   5.2438814
  -0.5368996   8.0289704   4.6582300   0.4540563   7.7414519   5.7656271
  78.2289968  38.2276637  10.8017713  77.6252006  37.9548556  10.1109392
  77.7116327  38.8133246  11.3545400  47.5108290  87.4235916  83.2216263
  47.6709652  88.3607769  83.3324146  47.7642632  87.0366001  84.0596199
  98.9024083  55.5657107  53.2534486  98.7811963  56.0977370  52.4670106
  99.3848102  54.7965438  52.9502756  84.4003634  53.5906798  28.6491472
  83.5198919  53.3594138  28.9449770  84.7975080  54.0311248  29.4004900
  21.5355587  73.5979319  62.3741579  21.1060572  73.7755013  63.2109547
  21.1533141  74.2335653  61.7691040 100.9223883  59.1041858  14.8455411
 101.1843793  58.5116965  14.1408807  99.9668662  59.1290957  14.7946817
  51.0471821  80.9319687  61.8830633  50.7766676  80.3242970  62.5713825
  51.9422007  81.1769009  62.1179724  27.4483919  93.5894012  76.7653418
  26.5076041  93.7155533  76.8887663  27.7679920  94.4426155  76.4718914
  36.9229507  97.3241997  83.0764675  36.1782217  96.7477703  82.9051781
  36.9193411  97.4444103  84.0260792  62.5906897  92.6479244  58.1075716
  62.8285170  91.7804432  58.4348965  63.4209585  93.1218719  58.0599689
  50.0500154  87.3939610  67.2968292  50.8566523  87.6202202  67.7598381
  49.3494749  87.7057076  67.8697872  61.4535046  93.6889839  78.5566759
  60.6008101  93.2789803  78.7017202  61.5437603  93.7235546  77.6043653
  45.1275730  87.1681118  49.3577528  45.8628893  87.2633171  48.7523794
  45.4152250  87.6117992  50.1556396   3.7110662  72.4012804  77.6007795
   3.1799275  73.1894922  77.7140999   3.0748183  71.6871595  77.5626993
   7.3202765  57.9505873  63.4239292   6.7519623  57.2261524  63.6855459
   7.8279209  57.6038551  62.6902342   5.6375790  27.9647881   2.6956636
   5.3811836  27.8568608   1.7797834   6.0768557  27.1443707   2.9196817
  19.3433046  67.6324224  79.0057468  19.5886838  68.5375214  79.1976166
  19.9362624  67.3674297  78.3026028  42.0681906  68.7011862  86.3208675
  41.5647173  68.5068560  85.5303001  41.5620136  69.3806648  86.7662048
   9.9172813  67.6846361  76.2567711   9.9407119  67.3091316  75.3766155
   9.2129785  68.3319426  76.2223387  71.8602497  44.2868621  16.9266111
  71.8589469  43.7825114  17.7401620  72.4275604  45.0357158  17.1099550
  37.4503493  75.6587887  85.0346756  37.7464271  75.0130606  85.6762409
  38.1974673  75.7727671  84.4472599  62.7556610  80.4497433  66.9393015
  62.2002840  79.8150539  67.3920202  63.1544733  80.9631348  67.6418829
   3.4539938  87.2786338  11.5459711   4.3349981  87.1983821  11.9115240
   2.8979469  86.7879969  12.1512109  72.7178527  30.0316150  31.7290384
  72.4559140  29.1484935  31.4688188  73.5641815  29.9131305  32.1602327
   7.8950358  10.6678826   7.4271947   8.6716461  10.3576381   6.9615156
   8.2199907  10.9251887   8.2900030  44.3117347   1.4750236  64.3412876
  44.0554275   1.5283816  65.2619886  44.6555742   2.3448031  64.1375923
  76.9629453  10.9810693   5.6129056  76.2050597  11.1353404   5.0489503
  76.8169839  10.1078088   5.9767038  31.6934967  95.7015896  69.2289495
  31.6365194  94.7770691  69.4702911  32.1437907  96.1142159  69.9659729
   7.1770239  31.4830977  16.9985849   7.1122933  31.2748248  16.0665685
   6.5099716  30.9359271  17.4131757  65.7985632  19.4744832  12.5045759
  66.3480393  20.0967700  12.0280630  66.3903455  19.0686089  13.1380445
  79.5830022  36.2802512  18.1033308  80.4870467  36.0043246  17.9523260
  79.1424303  36.1248404  17.2678834   6.0532123  97.4299622  60.0006771
   5.4234523  96.9550323  59.4583941   6.8848479  97.3415947  59.5350552
 103.9645473  41.2817103  10.5860406 104.1657845  42.1980006  10.7761747
 104.7722952  40.9321887  10.2097303   7.7071267  59.2700338  65.5918789
   7.5651556  58.7967300  64.7720861   8.6111152  59.0669155  65.8322525
  71.3011464  95.0647606  11.2073976  71.5827807  95.7811798  11.7763120
  70.5990323  95.4418005  10.6772024  20.7113385  72.1580553  47.7766562
  21.6039467  72.4894810  47.8748226  20.7636976  71.5416479  47.0462227
  86.6854469   8.0103547   2.6822931  85.8706228   8.2375867   3.1302434
  87.0522229   8.8517911   2.4108297   2.3199916  33.9342029  11.1206228
   1.9999743  33.1229598  11.5152246   2.5047207  33.7013537  10.2107317
  88.2699911  47.6571090  19.3907148  88.0153756  47.9857165  18.5284978
  88.9890806  47.0507914  19.2131788  18.3765006  85.0391769  77.0541906
  17.9783690  84.1918182  76.8549061  19.3043995  84.8432350  77.1839714
  29.3435931  74.7240973  72.1931410  28.9256716  75.2151871  72.9005337
  29.3887353  73.8254213  72.5196028   9.1793680  56.5137870   4.0648443
   8.7925625  57.2861773   4.4771844   8.4645033  56.1301429   3.5568887
  66.9742505   1.7319972   1.9713384  66.5852158   1.2381513   2.6931364
  66.2333040   2.1739966   1.5567667  18.6618090  23.7818438  10.6131345
  18.2055521  23.9569098   9.7900850  19.3907786  24.4021661  10.6195241
  92.3127357  10.6816203   4.0342790  91.9170169  10.8221347   3.1741125
  91.5721409  10.6765086   4.6406824   6.5154254  58.5426426  56.4603853
   7.3546267  58.1656647  56.7246962   5.8806449  58.1642246  57.0687342
  14.0686941  85.4503441  81.9094753  14.5473659  85.0864315  81.1647034
  14.0795636  84.7529602  82.5650406 105.9489505  11.1529452  17.1992475
 106.1419050  11.7244107  16.4559824 105.2857129  11.6275031  17.7003843
  96.9937722   7.1386964   8.8582975  97.1105902   6.6203458   9.6544820
  97.3329560   6.5814788   8.1578046  99.1338621  81.8652058  84.4100475
  98.2099919  82.0243168  84.2167091  99.5748506  81.9588757  83.5656643
  19.5580792  72.0069790  55.2755165  18.8380432  71.4891672  54.9154425
  20.2995086  71.4020491  55.2995205  40.5899859  62.3336608   5.3177053
  41.3029909  62.5054271   5.9328157  40.2095795  61.5077121   5.6165773
  98.0175917  44.7663504  15.1614648  98.8259785  44.3172652  15.4085809
  98.2281582  45.6970984  15.2363473  88.2406752  36.0240561   0.7189065
  88.9565222  36.6004187   0.9864694  88.4417419  35.1845652   1.1324960
  15.3836799  67.1559334  58.8895655  15.7336080  66.3207674  59.1998482
  16.0756874  67.5137615  58.3334017  71.9877823   6.6293376  69.7449732
  71.1749919   6.1649268  69.9447727  72.0366415   6.6262191  68.7890244
  26.8167353   8.6044700  25.1003057  26.1547470   8.4272820  24.4320184
  27.4817228   9.1228492  24.6471864  85.7994668  21.2133510  24.7802526
  86.5808181  21.1197430  24.2353136  85.3682487  22.0004565  24.4474584
 107.5285022  43.6664397   2.8206235 107.5778572  43.5472781   3.7690908
 106.6022245  43.5453135   2.6118928  96.1673133  18.1915337  14.2609102
  97.0674960  17.8661067  14.2613679  96.2571327  19.1444928  14.2664510
  18.0104196  94.7999477  76.9008923  17.9496610  95.0474834  77.8235340
  17.5761592  93.9483070  76.8522930  81.0803978  24.4517571  20.2546770
  81.9554750  24.4833905  20.6412870  81.2342481  24.2636353  19.3288404
  18.0513716  26.7436606  13.1766302  18.0135393  27.6900632  13.0383474
  18.9352369  26.5851838  13.5081369  81.8262013  98.5548128  38.7860662
  82.0249661  98.4186901  39.7124559  81.1436137  97.9128279  38.5907156
 106.3320653  16.4517552  19.9344999 106.4395778  17.3537022  19.6325571
 107.0492331  16.3196523  20.5545408   9.2135620   5.4014975   1.9031793
   8.6752081   5.9380347   2.4850160   9.0073633   4.4998843   2.1497709
  91.7448775  24.9312407   7.1414453  91.1288182  24.7229392   7.8438074
  91.1952929  25.0405890   6.3654119  12.3440536  96.2157406  20.5710298
  12.8445610  96.7088856  19.9210054  11.4637598  96.5893425  20.5293447
  85.1847641  60.2045536  77.3996305  84.9775307  59.8331118  76.5421247
  84.6355240  60.9860754  77.4611950  18.2048345  41.3096571  86.7849350
  17.3010385  41.1582613  87.0614529  18.1973207  42.1922445  86.4145088
  50.6083473  30.3167098  74.7068024  51.4828189  30.6977599  74.6272564
  50.0130828  31.0401195  74.5104170  62.2193847   1.2795979  35.2268297
  61.5653626   1.8967349  34.8987657  62.9507749   1.3575847  34.6142847
   6.2342656  71.5729332  88.0173302   5.7679605  70.7479811  87.8822517
   6.2999076  71.9569016  87.1429729  76.9007440  59.4076354   8.2768899
  76.6197850  58.6498649   7.7639848  76.2261911  60.0678927   8.1179124
  33.8283229  86.9805336  71.9830656  34.4760561  87.4689293  72.4911451
  34.0862250  86.0642529  72.0838213  96.0749428   1.2296540   8.5395700
  95.3618400   1.0116679   9.1397268  95.9660737   0.6224448   7.8076631
   0.6882739  57.9680640  27.0399267   1.5607453  57.7283866  26.7275507
   0.1124907  57.2904498  26.6856081  37.0422757   4.3863337  72.4510145
  36.8825222   5.2049869  71.9814157  37.8424894   4.0372985  72.0585060
  39.1310430  47.3430252  68.6468649  39.1091657  46.6938210  67.9438066
  39.9806070  47.7731085  68.5493755  12.4712134  18.1310756  16.9767744
  12.9739523  18.1023890  17.7908117  13.1202364  17.9824979  16.2890798
  25.9639931  96.3190746  84.4460583  25.7633853  95.7937527  85.2206707
  26.4447308  97.0736313  84.7863102  13.7395477  10.4467732   6.0195142
  13.5509777  10.7293040   5.1246053  14.3371201  11.1125285   6.3599664
  93.0383222  27.3413522   9.9121458  93.2518951  26.4301402  10.1129324
  92.1428649  27.4533898  10.2312547  32.7949810  72.0633698  79.5987701
  32.5853086  71.8187666  80.5001259  32.0819902  72.6457310  79.3366003
  29.4412565  58.2757235  83.3360958  30.3838062  58.4410954  83.3580589
  29.3624949  57.3261642  83.4275627  64.7295149  96.1766161  13.6758405
  64.2788323  95.4961885  14.1759759  65.6598528  96.0001100  13.8156587
  30.2256393  62.3960495  47.2012806  31.0142779  62.9049397  47.3891878
  29.5883179  62.6934528  47.8505945  86.0938994  32.4258906  22.0744783
  86.7556433  32.9733569  21.6518671  85.5167000  33.0473239  22.5181943
 103.6621801  78.7340069  87.8773594 103.6233393  77.7846718  87.9934883
 103.0762468  78.9094019  87.1410465  15.3997982  69.5758152  82.5378799
  15.9873950  68.8433933  82.3520851  14.6788669  69.4678164  81.9175339
  92.1091597  22.4378306  23.4788972  92.7531855  22.2151906  24.1511232
  91.2902503  22.5536687  23.9607603  41.5977240  90.7890987  37.6326323
  40.6738520  90.6831169  37.8594923  41.9534206  89.9007320  37.6556063
 101.1269270  42.3606062  68.5107327 100.8179973  42.7126837  69.3454981
 102.0432929  42.6325989  68.4605026  98.6533825  14.4342334   9.9981481
  97.8834860  13.8976914   9.8094160  98.4384315  15.2957351   9.6405965
  21.8833876  72.2944641  83.8816547  21.6567087  71.3925838  84.1084957
  21.0403275  72.7245188  83.7383556  73.0033210  47.8879268  20.3210813
  73.7546940  48.4463412  20.5206853  73.1300318  47.1117980  20.8668024
  28.7548900  60.9191132  81.1086750  27.9329300  61.2029266  80.7085991
  28.8368106  59.9983549  80.8602428  34.3316913  53.7539434  24.1654611
  33.5102868  54.1620207  23.8916039  34.0661240  53.0705357  24.7808146
  96.7497436   9.9395949  11.0215551  96.7091529   9.1032035  10.5578405
  97.5077145   9.8561437  11.6001302  14.7674394  88.4578323  78.3538628
  15.6569672  88.1369019  78.2056189  14.2441368  88.0367851  77.6718807
  25.3611159  52.3429871  84.2012215  25.4822779  51.9167280  83.3527851
  26.2215757  52.7053404  84.4122696  22.4189305 100.9973812  73.4831905
  22.8107548 101.0712147  74.3533945  21.8477941 101.7622185  73.4120035
  72.1177204  30.9047133  20.3912813  72.0158721  31.4045150  19.5813066
  72.2809577  30.0075633  20.1002103   0.7304049  17.6332957   6.3316614
   0.6001449  18.1784398   7.1075994   0.3521657  16.7862899   6.5677816
  84.6677971  99.9207592  75.6372213  85.1364231  99.7361088  74.8232651
  85.3027725 100.3905582  76.1778879  14.4274036  -0.1857144  76.8738556
  14.2696277   0.5371516  76.2665558  15.2737800   0.0167411  77.2724581
  20.9574032  52.4456412  32.8530675  20.4982138  53.1706626  32.4291402
  20.7030869  52.5067527  33.7738401  58.4143829  93.6090755  70.0942755
  59.1248274  93.5434532  70.7323933  58.7159777  93.0936337  69.3462133
  45.9433999   9.0135425  85.5094528  45.0187989   8.7896960  85.4034519
  45.9353890   9.8533194  85.9687519  49.2504605  23.0914252  57.3954391
  50.1379152  23.2530635  57.0752382  48.6848768  23.3126777  56.6555786
  22.9398155  32.5647838   9.3994409  23.8227272  32.5077636   9.0341264
  22.4980164  31.7771346   9.0821821  95.2784403  29.0951007  79.0895319
  95.6019028  29.9941199  79.0315866  95.9564837  28.6275714  79.5772886
  30.5749607  90.5017757  72.2532606  30.3637218  89.6038246  72.5087929
  30.5525637  90.9956169  73.0729294  67.2811492  18.8028186  60.7284307
  66.6946467  19.5578998  60.6826544  67.8703221  19.0009540  61.4563417
  93.6855070  67.3084266  33.3006937  92.9552595  67.7288634  32.8465921
  94.2211453  68.0356986  33.6175519  14.6933603  44.8867804  28.9702016
  14.5499563  43.9492614  28.8408453  15.2672386  45.1431567  28.2482893
  44.1914060   3.4140628  72.5939751  45.0784042   3.5756534  72.9154682
  43.7125399   4.2172759  72.7983475  30.7174540  42.3435981  11.7729646
  30.1054859  42.9307944  12.2167379  30.2835035  41.4905269  11.7866880
   6.4788288  98.3130360  72.0709419   6.0741878  98.7335110  72.8296900
   6.4799273  97.3803616  72.2862291  99.3569557  33.6467368   4.6474153
  99.2509810  33.0988223   5.4250986 100.3042213  33.7442309   4.5503885
  45.6256437  88.9752769  74.3793631  44.7451115  89.3456173  74.3181753
  45.8165312  88.9650440  75.3172779  85.9756478  13.5092586  69.4792318
  85.2005776  13.1290381  69.0657902  85.6421574  14.2632716  69.9655151
 100.2386515  38.0511577   6.4001638  99.9121921  37.2545535   6.8185693
 100.2390878  37.8475291   5.4648763  58.8045216  87.0681381  80.4862881
  58.4436417  86.7418480  81.3106251  59.2397547  87.8871727  80.7228947
 102.0218484  29.6484382  39.6245080 101.4817159  29.0637404  40.1561243
 102.8116075  29.7864444  40.1474554  91.1599787   5.0652640  86.4923477
  91.2839373   5.6999247  85.7866096  91.7376431   4.3370479  86.2637806
  81.6523894  37.4067443  64.0212870  81.9946488  37.5637954  63.1412745
  82.3966750  37.5704425  64.6004915  29.1117859  45.2079678  72.7234745
  29.4570327  45.8817673  73.3091593  28.1710100  45.3808641  72.6876926
  33.5404706  83.0950165  66.4407015  32.9619622  82.4135971  66.0983181
  32.9880142  83.8750553  66.4913177  37.5031114  89.9590206  46.6923046
  37.5326872  89.2409420  46.0600662  38.4086895  90.0563717  46.9867182
  51.7873430  58.4972143  84.8833561  51.1883879  57.8012180  84.6130371
  52.6169825  58.2772255  84.4596386  54.3970204  36.9119746   5.8495981
  54.7651386  37.7544219   5.5831510  54.8414421  36.7057330   6.6719038
  77.5692855  14.0790231   9.0982896  78.1639950  14.7642524   8.7932951
  77.8873013  13.2807404   8.6765749  97.9211895  40.4061801   0.4958231
  98.6405174  40.1047427   1.0507375  97.5138061  41.1139209   0.9952051
  85.3276376  37.3250777  17.3167593  85.1378016  37.8656012  16.5499288
  86.1889867  36.9482905  17.1369154  19.6870041  38.3511550   8.6903745
  19.6340418  39.1697986   8.1971628  19.0256691  37.7869326   8.2897169
 102.4115269  38.4118850   8.6411935 101.9055907  38.9842708   8.0644495
 101.8324916  38.2500178   9.3860036 104.6513025  38.4307391  25.8556158
 103.9418952  37.9061324  26.2267763 104.5594208  38.3222873  24.9090272
  43.3798933  74.4660711  63.2155323  43.1066465  75.1679993  63.8061810
  42.9232168  74.6520329  62.3951101  18.1854105  41.2932212  15.3044778
  17.7870035  41.1695964  16.1659986  18.7774182  40.5476386  15.2051431
  88.2650177   1.5833671  14.5705587  87.9617052   1.0799558  13.8150388
  89.1713922   1.3028104  14.6970731  64.0150643  47.8414065   9.4250948
  64.0691185  48.6845691   8.9752180  64.4777107  47.9807193  10.2513963
  96.5974244  16.6732161  77.0539045  96.7630537  15.9581130  77.6682615
  96.9366559  17.4517672  77.4954987   2.7185559  83.2148838  83.4735870
   2.3297757  84.0862560  83.5496807   3.4263670  83.2113171  84.1179657
   8.0368114 101.8780041  72.0517206   8.3523697 101.0068321  71.8114901
   8.7451726 102.2535610  72.5746107   6.4551127  95.9062004  75.1847267
   7.1856177  96.5213966  75.1204348   6.8701619  95.0556850  75.3281879
  97.4286167  49.0241534   6.0733396  97.3864071  49.9721629   5.9479314
  98.0196111  48.7176520   5.3855878  72.6598158  52.3428828   0.1830751
  72.2407984  52.6613528   0.9825975  72.9445106  51.4549262   0.3992349
  42.8649696  15.1936667  65.7771301  43.1546744  14.6049540  66.4740705
  43.0079033  14.6985190  64.9705124  38.1607876   8.8152163  61.7057562
  38.0031028   8.8845103  60.7641792  37.2948646   8.9140647  62.1015358
  94.8415963  47.3178298   1.1179048  94.0558497  46.7715270   1.0983926
  95.0271337  47.4373729   2.0493108  74.0358446  32.4730403   8.3679945
  74.9710770  32.3468120   8.2078725  73.9512341  33.4045798   8.5712415
  40.4673767  87.8726101  65.3471518  41.4144087  87.7837467  65.2400494
  40.2157211  88.5399628  64.7087669   7.3753596  64.8583514  11.1433107
   7.5517702  64.4677741  11.9992143   6.8895579  65.6590754  11.3409788
  53.1758877   7.9284137  75.9892130  53.0607136   7.6351111  76.8930578
  54.0657660   7.6591151  75.7615662   9.5032787  67.1234042   4.7025568
   9.1035843  67.8959376   4.3029768   8.7705565  66.5269000   4.8559839
  44.8214865  99.7353077  87.9917908  44.0106440 100.2433491  87.9661179
  44.5751190  98.9121628  88.4136486  44.2008114  97.7391911  69.7963715
  44.1191864  97.1156406  70.5180073  45.0485754  97.5375271  69.4003105
  43.0962181  92.6811028  85.9372330  42.8322601  91.9529343  85.3748035
  43.1157970  93.4395885  85.3536797  13.3593166  67.7066803  67.1920872
  13.9196205  67.3532009  66.5011883  12.7741265  68.3135891  66.7388296
  65.0270653  80.3239822  70.3569174  65.2551794  80.5545712  71.2574863
  65.1360369  81.1385536  69.8661709  74.1311272  24.3800490  67.8238440
  74.4393714  23.4909957  67.6483154  74.9249061  24.8713630  68.0353880
  34.4900465 100.7891750  62.2265863  35.3893685 100.9626579  61.9484568
  34.5642805 100.5730438  63.1561041  20.0342369  64.4393110  83.3631802
  20.4829860  65.0543261  82.7830029  20.5729008  64.4197083  84.1541862
  12.1941281  58.7356669   3.8443166  11.4064837  58.2665927   3.5689622
  12.1875382  58.6747271   4.7995550   7.7484596  97.4875546  66.6319990
   7.0290697  97.2524834  66.0459471   8.2530814  98.1375599  66.1430407
  40.4500648   7.2657245  58.4870625  41.0098501   7.8851645  58.9552069
  39.5586773   7.5617927  58.6714602  98.7668340  29.4397456   3.6358148
  97.8773348  29.6332557   3.9317590  98.7175433  29.4884688   2.6811296
   3.9670849  71.2227065  23.8767416   3.6947131  70.4245479  23.4239942
   4.1286993  71.8530089  23.1747133  23.6936855  44.8960311  31.5907842
  23.4458113  43.9753062  31.6747552  24.4318295  45.0010688  32.1910650
  39.6892238  77.1089268  58.1394434  39.2111421  77.6651478  57.5243902
  40.4265118  77.6477337  58.4263659  41.3074684  96.7669868  88.0729198
  41.2984371  96.8054295  87.1165276  40.4455948  96.4225292  88.3069229
  97.4540337   3.5486930  52.0620203  97.9196557   3.7503951  52.8736496
  96.9460162   4.3380683  51.8748236  26.1936426  76.2398005  72.5495720
  26.8286657  76.2761021  73.2648754  25.3433108  76.3321304  72.9792738
 107.4330322  59.1558368   1.5831548 107.5894205  59.0344340   0.6466466
 106.9985573  58.3490950   1.8599874  19.6615970  97.4235821  86.1087227
  20.5892181  97.1984673  86.0375118  19.2016852  96.6499805  85.7827663
  15.5914354   5.8236510  19.3580896  15.2627993   5.9519822  20.2478963
  15.1702356   5.0169999  19.0612108  33.5796833  79.4067574  74.2407417
  32.9236078  80.0742912  74.4412136  33.5692477  79.3397999  73.2859421
  77.4531106  70.7129962  13.0177576  77.1731542  70.1789386  13.7611562
  76.8086760  71.4194209  12.9741651  62.0864439 100.4800415  75.8333158
  62.3150492 100.5276489  76.7615986  61.7885351  99.5793533  75.7058954
  56.8780550   4.2416900  83.0094051  56.1280330   4.3001979  82.4175644
  57.3221429   3.4330981  82.7540684   8.4330988  41.0012156   7.7618772
   9.2101860  40.4970080   7.5207597   8.5865116  41.8699748   7.3904687
  35.8138785  30.0945800  38.5918403  35.5907809  30.7300704  37.9116940
  36.6638963  29.7454398  38.3238792  11.2615482   6.4729827  64.9173594
  10.9949485   6.2505382  65.8093643  12.1327011   6.8570369  65.0164843
  39.8081279 100.6465626  69.3515015  39.0424085 101.1906338  69.1674089
  40.0072622 100.2229309  68.5165644   3.2439510  81.3842644   9.0572244
   2.6291267  80.8776225   9.5878202   2.8750030  81.3598527   8.1743223
 107.0154278  31.3391120   5.1455671 106.1956899  31.3450057   5.6397516
 107.0479362  32.1985156   4.7253210  44.3159389  98.7612057  77.8837395
  43.8406944  98.3479595  77.1629047  45.1822853  98.9492989  77.5227737
  16.9751215  59.8732097   2.1789342  17.7482033  59.6822459   2.7100641
  16.2705755  59.3754966   2.5938207  81.7653903  39.3591254  67.3918009
  81.3198288  39.8957484  66.7362547  81.6614302  39.8450129  68.2099295
  47.4967766  77.6269197  48.0265999  48.1280088  77.4626160  48.7271595
  48.0347300  77.8500557  47.2669649   3.1818390  26.4542825  13.8321191
   4.0006399  26.9142682  13.6471540   2.6143432  26.6682774  13.0915910
  57.3746586  70.8097124  61.7004919  57.8749800  70.5515480  62.4746132
  57.9413033  70.5839252  60.9628153  75.8954247   1.6719192  48.8020325
  75.4616388   1.2785762  48.0448437  76.5108307   1.0021441  49.1001940
  68.3586274  29.9275500   1.1836511  68.1762497  29.2557914   0.5265981
  69.2539204  30.2093989   0.9959108  41.6058826  84.8807144  83.3825016
  41.4080572  85.7481956  83.7354469  42.4552727  84.6556664  83.7621307
  28.6347342  85.1537514  53.3545923  28.4745502  86.0520840  53.0655050
  28.3823228  84.6127510  52.6063728  50.6599991  25.1484687  23.3252794
  51.2254493  25.2929360  22.5665838  51.2662189  25.0208718  24.0549737
   6.9615317  44.4797522  15.1223451   6.0545588  44.6127707  15.3979093
   7.4765206  44.6224887  15.9164793  45.0871611  87.1561527  54.3504047
  45.0221109  87.4131966  53.4306574  44.4599724  87.7209759  54.8018837
  42.4991751  89.6943474  78.6816788  41.6179609  89.4007683  78.9129782
  42.5809288  89.4950771  77.7490234  38.8109779  91.6850948  81.7017174
  38.0096936  91.6087914  82.2197437  38.8673425  92.6153564  81.4833736
  79.5500962  63.5181434  25.0935346  78.6820172  63.4381492  24.6982175
  79.4218026  64.1089255  25.8356554  34.2686796  22.2439820  15.3132230
  34.1739273  21.3288457  15.5773813  34.8532581  22.2153527  14.5558149
   6.6377068  30.6284530   3.7998373   6.4574099  29.8400790   3.2877904
   7.5401116  30.8573729   3.5773641  99.3183438  62.0080001  29.7157461
  99.5542256  62.3489959  28.8530141  98.4547965  61.6146953  29.5899278
  31.6414738  61.0474307  18.3007890  30.9522963  60.3923232  18.4108144
  32.3388100  60.7630164  18.8915998  47.9889488  78.4558105  57.9234171
  48.9008474  78.6915064  57.7527857  48.0221987  77.9357052  58.7263012
  67.4804783  75.8296251  83.1116676  67.3974180  76.5191936  83.7703228
  68.3426237  75.9736347  82.7215385  49.7589350  92.5089455  72.6054764
  49.3285179  91.8042278  73.0895758  49.1175556  93.2194138  72.5958776
   7.5459528  47.7509887  43.4635240   6.6050100  47.7795989  43.6368639
   7.8506804  46.9691855  43.9241296  92.9822596   4.8043673  83.2257271
  93.5746487   4.4419425  82.5669765  93.5410889   5.3567164  83.7723923
  11.4361250  99.8455238  80.4780006  12.0605338 100.2929115  81.0491276
  11.8280900  99.8987389  79.6063519  89.7725920  41.1979396  50.7717783
  90.4702692  41.7491824  50.4173643  88.9635329  41.6248996  50.4900629
  19.7098398  75.5344397  30.9532529  18.8344050  75.9206206  30.9798795
  19.6637201  74.8845870  30.2519685  94.1567628  27.2840459  17.8952295
  94.5794694  27.2351653  17.0378191  94.2459838  26.4022929  18.2568723
  29.9678373  89.7095776  53.6636209  29.7084475  89.0934944  54.3487406
  30.7730865  89.3399239  53.3014584  58.8204344   5.5859702  77.7759409
  59.2398342   5.4751628  78.6292028  58.0138834   5.0741618  77.8372240
   4.7590971  51.1992652   3.0098421   4.9231148  50.6779010   3.7956602
   5.6121826  51.5720851   2.7873880   7.2229338  46.5006549  13.3522111
   7.1772146  46.1086184  12.4801713   7.0163107  45.7815463  13.9492303
  22.9350853  52.5462294  66.6947412  22.8699541  52.7258921  67.6326704
  22.5193143  51.6910219  66.5852547  65.1087483  12.4524634  69.1510677
  64.6920260  11.8111651  69.7266626  65.8230051  12.8157371  69.6746159
  62.5819357  33.5749095  87.5117493  63.4460839  33.3606093  87.8632545
  62.3394593  32.8102725  86.9894695  17.9151189  76.1154795  78.8374996
  17.8331876  76.6817904  78.0701590  17.7934778  76.7033052  79.5830870
  68.3004761  34.9675948  26.7476541  68.8805676  34.2156894  26.8675310
  68.6334229  35.6264979  27.3569376  17.3716021  37.9116256  16.6507703
  16.9711733  38.7189395  16.9734651  18.2714749  38.1590278  16.4380342
  51.3479710  46.6192102  80.3069305  52.0234299  46.8016768  79.6537161
  50.6281853  46.2351227  79.8063135  46.4252063  10.0747149  81.7712688
  46.3519796  10.0219481  80.8183289  45.5299868   9.9527495  82.0874023
   7.9476714  71.6902447  41.5499258   7.5796247  72.3991632  42.0773840
   8.4471917  72.1354532  40.8654547  23.1536269  94.7454262  72.8352737
  23.1531620  94.4048595  73.7298393  23.8627863  94.2728138  72.3994303
 101.3587960  97.8374351   0.1974088 102.2292384  98.0963816   0.4999239
 101.1707123  98.4323563  -0.5284899  66.5295480  10.4281337  12.1636659
  66.8712406  10.6086642  11.2879449  67.2728459  10.0568540  12.6389390
  87.3254101  53.5698897  35.4760534  86.9391148  54.3835170  35.1519662
  87.4964766  53.7384135  36.4026433  29.9622794  14.5174926  46.2808418
  29.4558712  13.7219089  46.4446688  30.8731916  14.2517798  46.4068031
  44.4950914  94.2922783  87.8344822  44.8658514  94.9314022  87.2259712
  43.9147043  93.7559700  87.2943401   3.0047202  71.3739974   9.6192915
   3.5494948  71.9904048  10.1086694   3.6168647  70.7058150   9.3110067
  79.1131648   2.4671023  79.4360304  79.2061957   2.8803962  80.2943802
  80.0112446   2.3635619  79.1214514  10.0491667  30.8050925  -0.2038306
  10.9015179  30.6208808   0.1908857   9.4856978  31.0293204   0.5367452
 101.1939756  50.6293780  45.5267412 100.4926793  51.2377746  45.2937967
 101.7799751  50.6382663  44.7699243   9.5438969  86.6475201  57.8061533
   8.8905430  86.3340378  58.4315300  10.3042638  86.0846043  57.9517746
   5.7234478  22.8257949   5.6823141   4.9164105  22.9469115   5.1820642
   6.0609436  23.7122638   5.8107549 105.9957997  21.2629897  13.0293638
 105.9261815  20.3093774  12.9845602 105.3838365  21.5793044  12.3647768
  97.4411385  38.2003886  33.9890844  96.6920273  37.6150042  34.1003686
  97.0735995  39.0795714  34.0796072  36.3137341  59.1266353  45.0363523
  35.3962374  59.1668326  44.7665102  36.7103911  59.9093253  44.6538717
 102.3734824   3.0134017  10.8775693 103.0233018   2.4339682  11.2753469
 102.2569506   2.6701934   9.9916441  63.5660275  10.8729308  62.8047276
  64.0377506  11.7001098  62.9020786  64.0093931  10.2724116  63.4039259
  16.5402746  55.5461413  16.7761690  16.5377379  55.3231913  15.8453065
  17.2172928  54.9853999  17.1549112   4.9182463  68.6722762   9.5874292
   4.7834015  68.7473304   8.6427480   4.0345955  68.6580665   9.9551183
  92.9304044  69.0332324  25.7153875  93.5252778  68.8606364  24.9856073
  92.9482429  68.2290751  26.2342721  12.5973117  76.0972738  37.2429848
  11.8366802  76.6025352  36.9559646  12.5196719  75.2633667  36.7795157
 106.3454358   8.9242989   9.2366964 107.1016638   8.3508212   9.3610937
 105.5913751   8.3352620   9.2622644  58.5385370  63.5038424  50.8645916
  59.4165325  63.2271719  50.6022787  57.9859257  63.2920885  50.1122522
  59.3436794  28.5849673  33.0511076  59.1828494  27.7324731  32.6466066
  58.4905748  29.0189797  33.0423719  74.7857581  48.8642032   1.5189916
  74.3567289  48.6657912   2.3513395  75.3735600  48.1235892   1.3699895
  81.9310769  21.0507625  70.7091379  81.5131672  21.5483230  71.4120007
  82.8628119  21.2531417  70.7936859  84.2797144  47.2835677  85.7107735
  83.7922820  46.8285411  86.3975048  84.9842413  47.7346938  86.1759186
  57.6050933   3.8120788  57.7551460  57.0013984   4.3095725  57.2035265
  58.1393250   3.3137649  57.1366787  81.3291749   3.8685172  45.6821871
  81.8064412   4.6824401  45.8433771  80.6950005   3.8170855  46.3973141
  64.1920026   4.6255153  80.1984215  64.9554261   4.9349158  79.7108984
  63.5444673   4.4198363  79.5241642  33.2554793  75.2330208  62.5945568
  33.8988423  74.9103355  63.2255793  33.6381149  75.0349188  61.7398167
 101.4667551  44.5510394   3.7052709 102.1162812  44.5125586   4.4073087
 101.4268581  43.6566359   3.3666021  99.7034924  35.0851161  16.7905218
 100.0294654  35.5389602  16.0133535  99.9244468  34.1657931  16.6413385
 102.2218434  40.1673991  16.8685323 101.5816180  39.8060328  16.2555391
 103.0433146  39.7317035  16.6414148  51.7635155  99.2079830  80.9841537
  51.8802977  99.4135475  81.9116974  51.9954014  98.2820225  80.9130001
  49.2070818  81.4064312  79.1828060  48.8189363  80.7673550  79.7804356
  49.2640972  80.9470558  78.3449793  22.7180552  94.1080093  75.9612465
  22.4505448  93.1921864  75.8841467  21.9232225  94.6064854  75.7715225
   4.2204174  58.9949083  70.8820868   3.5846832  59.0573883  70.1692247
   5.0074852  59.4179296  70.5388594  63.2276201  81.1123371  85.9999275
  64.1100979  80.8796310  85.7112789  63.2529831  82.0634174  86.1049747
  62.5852251  69.2285776  68.7439346  62.5163603  69.3998241  69.6831656
  63.2617617  69.8332787  68.4391928  50.5966958  19.8155826  53.6000586
  50.8780905  20.6782668  53.2953835  49.9556991  19.5291369  52.9494429
  30.4077983  91.5618992  80.7455254  30.6195688  92.4371910  81.0699463
  30.5837154  90.9826088  81.4869499  33.2613540  79.7774839  68.5520840
  33.7180781  80.4857731  69.0059090  32.9396439  80.1785660  67.7447033
  87.3281078  17.9670483  14.3868143  86.9326703  17.6383073  13.5794813
  87.9352705  18.6476142  14.0962678  10.9952346  16.2212127  85.2055359
  11.5554039  16.1169188  84.4363976  11.5322868  15.9149402  85.9362888
  60.9296513  73.5440254  67.6665831  60.8544493  73.0369186  66.8582392
  61.8647432  73.7330914  67.7445936  61.5594578  99.6117401  51.0360622
  62.4228287  99.4948864  50.6396198  60.9934711  99.8654079  50.3069925
  48.6853456  79.7104979  73.8068008  49.5586872  79.3563366  73.6392355
  48.8332939  80.4352093  74.4143629  49.3122967   9.3690246  70.2383327
  49.1049858   8.5302775  70.6503582  49.6461555   9.9110072  70.9531879
  87.3241393  37.6057727  19.4893056  87.4828331  38.2724959  18.8210851
  87.1747474  38.1032569  20.2933103  51.5669966  69.6512413  66.9751787
  50.9720993  69.8157024  66.2435484  51.0181522  69.2385864  67.6420450
  25.1218891  91.5391159  84.5042801  24.3477559  91.2190342  84.9674129
  25.5659127  92.1007538  85.1396084  21.8191266  75.9266949  83.8843060
  21.8016982  76.4882755  83.1093502  22.7389050  75.9121752  84.1489315
  19.1083288  39.9852228  84.3119621  18.8099241  40.1355600  85.2089500
  18.3093798  40.0148249  83.7856197  97.3144476  22.6082284  32.0447332
  97.9766457  21.9216592  31.9650442  97.3278086  23.0533797  31.1974508
   1.1594796  19.5299632   8.5831434   1.6505265  20.2064855   9.0494234
   1.4171481  18.7115723   9.0074998   5.3367138  32.9525096   3.8908083
   5.9440565  32.2137458   3.8507349   5.2383423  33.2313544   2.9804212
  48.8081312 101.7493820  53.9093733  48.0832577 101.8865204  53.2994699
  48.8841105 100.7978916  53.9810276 103.3039157  68.9202506  15.5570299
 103.7994091  69.7374827  15.5037672 103.7360804  68.4229571  16.2514192
  14.4212437  34.0867812  41.5618211  15.0134850  34.1663749  42.3095876
  14.8273420  33.4231574  41.0042173  32.6383162  99.0517337   3.9627153
  32.4015808  99.3175799   4.8512537  32.4652481  98.1105811   3.9401704
  24.5155811  39.1014678  17.1335203  23.5584831  39.1010768  17.1195776
  24.7455740  38.4610659  17.8067476  56.2906742  86.8501377  82.0994854
  56.6975307  87.6481628  81.7620468  55.3730822  87.0873642  82.2335625
  31.6745629  37.8134768  40.0357533  31.4246463  38.6841147  39.7263074
  30.8502378  37.4103587  40.3081799  27.4277067  54.6278293   6.5268976
  26.6763497  54.3127162   7.0292932  27.1681404  54.5161921   5.6123525
  89.7924809  63.6983497  22.8756982  90.1179008  64.4590384  22.3943597
  88.8510792  63.8512046  22.9571134  99.6906106  78.6373526  19.2819387
  99.2851512  77.7779681  19.1666585 100.2597253  78.5333163  20.0445158
  79.6733676  25.2903802  12.2322160  80.3257803  25.9695012  12.0607835
  79.7014890  24.7300155  11.4566976  59.4767646  84.2556769  18.9301473
  58.5711412  84.5614344  18.8792593  59.8241882  84.6666533  19.7217447
 107.1398918  48.4409148   1.8088323 106.9650905  47.5225455   1.6032487
 107.3629801  48.8366897   0.9663278  82.1282156   3.6495917  75.9903622
  81.9839009   4.5955985  75.9682989  81.2914904   3.2732337  75.7174635
  78.3508710  50.3850562  18.0288393  79.2045031  50.7118518  17.7446825
  77.8505657  50.2860362  17.2188264 105.9471313  27.7139861   8.2814962
 106.3376038  27.4824149   7.4388010 105.5019371  26.9159991   8.5665494
  25.3158617  33.2798964  18.5365659  25.0206089  33.2682711  19.4470197
  25.4716587  32.3598105  18.3235246  57.7347501  22.1308177  78.8442612
  57.9003938  21.4734214  78.1685209  58.4671458  22.0378535  79.4535112
  72.5029755  92.1783257  77.8017616  71.7633057  92.4524212  77.2595549
  72.9421329  92.9952335  78.0384636  11.5430737  41.0765464   5.1865560
  10.7881785  41.2572963   4.6264726  12.2817135  41.0159785   4.5807725
  99.8109691  64.0841586  11.6062719  99.8049895  63.4324366  10.9052354
  98.9960186  64.5718390  11.4868814  94.9903218  81.8123824  24.2214185
  95.4500143  80.9751803  24.2847806  94.6027796  81.9389827  25.0874502
  68.0359888  73.2059574  81.6328239  68.0574751  72.8664637  80.7381058
  68.6055899  73.9749241  81.6109562   5.2148533  43.0721003  45.0504762
   4.5768070  42.3711211  45.1837331   5.9882641  42.6288802  44.7017366
  78.2108935  -0.0599820  79.7740316  77.3888119   0.0279181  80.2564049
  78.5664662   0.8281844  79.7428989   6.8629313  82.3693377  29.9384004
   7.8147268  82.4585254  29.8897535   6.7037821  81.4328677  29.8203641
  94.7572653  46.6200263  31.5936357  95.3323094  45.9148986  31.8908769
  94.5090262  46.3678080  30.7042581  64.3153811  84.1594315  74.7741461
  64.2327547  85.0509357  75.1127243  65.2433920  83.9489460  74.8776960
  79.3391000  83.9142520  13.0613119  79.7353135  83.2777697  12.4662096
  80.0489042  84.1625792  13.6535436  26.9179058  69.4205577  29.7530538
  27.5164414  69.6548755  29.0437776  26.1404991  69.0824611  29.3085748
   7.4754810  66.4508445  24.8448164   8.1048155  67.0861346  24.5033819
   6.6941977  66.5741927  24.3057329  93.5788004  31.6615588   4.3803197
  92.6913754  31.4769751   4.0726930  93.8877813  30.8277232   4.7345621
  49.3147039  85.2876949  54.3052673  48.7186337  85.6568909  54.9569082
  48.8015175  85.2637005  53.4976196  70.3365059  21.3970191   8.8494665
  70.9946382  20.7445151   9.0889150  70.7808281  22.2374732   8.9610273
  41.2062788  97.2832108  85.2650833  40.6292439  98.0207825  85.0669861
  42.0112991  97.4727440  84.7831631  26.8755841  78.5562134  56.4389467
  27.4588394  77.9267550  56.0148907  27.1605039  78.5688734  57.3526716
  99.9498360  79.4081027  52.5366289  99.3135063  79.6516139  51.8642980
  99.7165458  79.9460036  53.2932455  66.7692097  19.4671195  75.9970570
  67.5890645  19.6851867  75.5537558  66.5947731  18.5601943  75.7454824
  39.9831128  80.9048080  80.2399921  40.4940891  81.5020943  79.6937418
  39.9784923  81.3156128  81.1045456  97.8513209  49.0422446  -0.1498908
  97.9432647  48.1288440   0.1211721  98.3466188  49.5368583   0.5030042
  55.3895807  82.3031235  74.3030548  54.9025917  82.2802830  75.1267958
  54.8501492  82.8379631  73.7206602  34.4596338  62.5963218  33.7189371
  35.0378800  62.2572429  34.4022352  35.0446367  62.7989585  32.9889089
  18.6257124  66.5015799  13.2652170  19.3370056  66.6120822  12.6342851
  18.3788967  67.3943335  13.5066968 105.9954365   1.6936629  87.8249168
 105.0751313   1.4678805  87.9601479 106.2205609   2.2417109  88.5767174
  14.8965502  70.3041369  13.8721735  14.1006375  70.4261405  13.3546049
  15.6074429  70.3506286  13.2328779  19.5808363  92.6391315  81.0805988
  20.5300522  92.6802826  81.1968994  19.3679082  93.4207058  80.5706692
  43.6816835  91.9310856  79.7376347  43.0718851  92.2193241  80.4168224
  43.1830645  91.2980175  79.2210722  21.2916756  51.3769633  18.9411241
  21.7238283  50.6282145  19.3520338  21.2230730  51.1365039  18.0171663
  98.9929168  69.0835482  16.1306078  98.1830995  69.5008952  15.8369237
  98.8148658  68.1451041  16.0686189  38.1296921  94.9707603  59.7481632
  38.1140590  95.9189606  59.8782015  37.2452927  94.6832943  59.9749374
  33.0978465  93.2261753  75.6495285  33.2665968  93.3811951  76.5788984
  33.2936120  92.2979069  75.5221367  88.2758216  52.6012523  20.1397115
  89.1880731  52.4855716  20.4055101  88.1328968  51.9278533  19.4746286
   6.5748787  35.3428847  16.8911153   7.1497917  35.0234801  17.5865919
   6.6488600  36.2960631  16.9380552  39.5857612  41.0480636  75.8192444
  40.0328533  41.5497249  75.1375723  39.6830074  41.5787547  76.6099024
  96.0494749  39.9175269  11.6139299  95.4388873  40.5666930  11.2646467
  95.6172721  39.5799643  12.3984510  47.4630547  86.9202614  47.9677868
  47.6331568  86.8824387  47.0265865  48.2226372  86.4949322  48.3657408
  35.2357554  89.9477959  78.1583643  35.2169538  89.5284081  79.0185928
  34.3715239  90.3494263  78.0687714  70.8382065  14.2276294  21.1021406
  71.3780409  13.4654004  20.8928186  71.3171130  14.6762092  21.7990381
  11.7430437  92.5491524  86.4961910  12.0959461  92.1305656  85.7110310
  12.2256708  92.1480179  87.2189617  55.0606489  81.6015816  83.3311367
  54.1702127  81.4569855  83.6512089  55.0763369  82.5237656  83.0751038
 101.4920147  12.8733962  82.3747921 101.7544993  12.1363299  82.9262257
 101.9989785  13.6139720  82.7076054 100.1246397  39.2069537  49.2466718
  99.5072238  39.1633899  48.5165102  99.5984451  38.9967639  50.0181371
  46.6296911  99.1420650  85.8681011  46.2150717  99.1283894  85.0054646
  45.9015703  99.0679073  86.4850044  66.5771731  31.4767783  69.8489332
  67.1964057  31.0642283  69.2467833  66.4762028  32.3681872  69.5151138
   8.7577526  98.6278833   6.8711835   9.3389694  99.2934526   6.5031606
   9.2605297  97.8150810   6.8182069  46.6617918  82.5830650  81.3947678
  46.8659925  82.4675179  82.3227692  47.3718071  83.1306171  81.0596657
  59.0557718  93.2122517  84.4035339  58.1099892  93.1312656  84.2803764
  59.2745638  94.0637589  84.0250015  60.1817036  30.3139693  22.1895200
  59.5404244  30.8635909  21.7390806  59.9993706  30.4465110  23.1198007
  51.1743387   1.2132018  71.1977530  50.9692486   0.3931563  70.7486486
  51.2460431   0.9694236  72.1206093  93.5793122  25.3761142  80.7338142
  92.6291522  25.3066009  80.6410694  93.9225491  25.1279300  79.8754311
  86.1568312  40.5207927  36.4983827  85.8095233  40.9034926  37.3040754
  86.7297499  41.1981971  36.1390382  43.1194973  89.4705677  62.7570057
  43.9655066  89.6305847  62.3388052  42.7435637  88.7403870  62.2653341
  73.1603321  92.2758116  19.1916639  73.9941891  92.6062597  18.8574201
  73.3579525  91.3894857  19.4943220  41.1069962  67.9136290  19.2958910
  40.9209423  68.5388960  19.9963552  41.4149787  68.4538378  18.5681802
  63.9457949  66.6584946   1.5581686  64.3077477  66.1434151   0.8371145
  63.2868155  66.0875703   1.9531614  54.1763826  63.3903266  10.2879697
  53.3039506  62.9990853  10.3329736  54.0273341  64.2683031   9.9370080
  17.6445878  26.2380147  85.1142025  17.8322995  26.8004608  85.8656406
  18.4285259  25.6972528  85.0180340  60.0242289  76.3246025  12.1990091
  59.6962102  77.2062982  12.3757822  60.9502705  76.3610877  12.4384862
  79.4779404  94.4644255  41.1249685  79.6043642  94.0226091  41.9646406
  80.3619232  94.6981777  40.8418322  19.1801854  47.1158226  15.7290441
  18.5657128  46.9282330  16.4385969  18.6777409  47.6469542  15.1112443
  89.1507010  61.1727047  77.6148987  89.3504791  61.4515734  78.5085154
  89.0374331  60.2244329  77.6795959  42.2758627  26.1306620  83.8393593
  42.3080349  26.6788077  83.0553055  42.7128553  26.6510415  84.5135021
  70.2979382  81.3958658  10.1529962  70.3141602  80.8338798   9.3783170
  71.2121471  81.6460909  10.2865583 100.8195887  19.7756648  66.2707186
 101.4181886  19.4720793  65.5882645 100.4377125  18.9740729  66.6282845
 104.5343621  51.7998981  50.1875830 104.0031372  52.5469112  50.4632759
 105.2062533  51.7208862  50.8647442 107.1468451   4.3236858  55.2804947
 106.3362644   4.1211814  55.7475948 107.8422182   4.0950894  55.8972883
  78.7923018  72.0117283  73.6841774  78.7826196  71.8003130  72.7506685
  79.3195860  71.3185406  74.0812874  23.8014810   3.0594069  16.7715723
  23.7440555   2.4509961  16.0348493  23.1043927   2.7821404  17.3660738
  42.1503719  94.8707635  77.9510260  41.6434630  95.6775833  77.8598309
  41.5645011  94.1828246  77.6352310 103.3972953  34.2913604  69.9318504
 103.3674539  34.2371798  68.9766502 102.4825243  34.3931007  70.1946688
   9.3860561  58.5854149  86.6502380  10.2908325  58.8527870  86.4885998
   9.4554049  57.6848698  86.9671631  12.7049315  29.6039224  75.6402111
  13.4038961  29.7136211  76.2849188  11.9595993  30.0752354  76.0124683
  45.4318996 100.5001701   5.8011705  44.4833537 100.5876841   5.8951646
  45.7930370 101.1650242   6.3874990  10.0557923  29.3082094  40.3391409
  10.8914125  29.2413497  40.8012009  10.2165294  28.8923550  39.4921088
  61.7606314  90.0250615  15.6265623  61.4946373  89.1899933  16.0114557
  61.8549570  89.8389806  14.6923811  88.8568048  23.6016393  74.3058062
  89.5767121  23.0358148  74.5847464  89.1332928  23.9384556  73.4535503
  52.0738792  23.8407946  66.8272543  52.2667170  22.9204822  67.0063257
  52.9298830  24.2381287  66.6672134  14.0467060   6.1506289  85.9834957
  14.9719894   6.0428464  86.2036419  13.7051141   6.7323184  86.6625977
  47.0115089   7.2135311  64.4913006  47.8752708   6.8397212  64.6656847
  46.9048071   7.1379274  63.5430765  87.8796212  15.6584597  86.1042404
  87.8121106  16.1155832  85.2659607  87.7458755  16.3417411  86.7611027
  61.0842236  86.6109247  59.1396093  61.6033276  86.4712054  58.3476210
  61.6461392  86.3046498  59.8514223 104.3383099  53.2463932  47.5159740
 104.5593656  53.2327700  48.4471989 104.0462269  52.3548460  47.3260736
  29.4363674  86.8259062  43.1637556  29.5550939  87.7575935  42.9791147
  30.0961884  86.6274322  43.8281995  38.2740521  51.7034531  84.8913956
  38.9355826  52.2253323  84.4372559  38.4890723  50.7977152  84.6685982
  29.0661049  35.8140588  50.4683018  29.3796015  36.7093468  50.5964184
  28.4882116  35.6535864  51.2143040   8.0838835   1.9723864  52.4398422
   8.7863064   2.5381458  52.7603865   7.4348843   1.9742963  53.1434250
   7.0544203  88.1422819  14.7185308   6.5765794  88.8517345  15.1481515
   7.8548511  88.5548128  14.3939382  49.6207627  58.1975026   0.4820806
  48.8324793  57.7008416   0.7015592  49.8389479  58.6682619   1.2864572
  41.4004087  45.4351330  71.2406921  40.7419586  45.5855083  71.9189739
  41.2456560  46.1281538  70.5988216  96.2226097   8.7754542  17.0471174
  96.5612976   8.9505441  16.1691267  95.6710927   9.5320041  17.2463590
  76.3283165  52.4704100   6.2713701  75.7280620  52.2324881   6.9779951
  76.9320734  51.7301326   6.2105447  68.3749573  89.1443736  80.6521511
  69.2867123  89.1598768  80.9431744  68.2463004  89.9899466  80.2224064
  29.9772384  61.3709654  25.7765276  29.1236439  60.9519257  25.8861333
  29.7820511  62.2028305  25.3450948  30.3646960 101.4220299  40.0264436
  31.3029953 101.6003765  39.9630529  29.9984708 102.2076429  40.4325468
  12.6628959  48.7943792  84.4836998  13.4556687  48.2803345  84.6370029
  12.9673433  49.5688105  84.0106201  96.0375373   6.2863595  17.6800424
  95.7106821   7.1527249  17.4375326  95.6831543   6.1332137  18.5559351
  31.7360558  79.5988358   4.0065843  32.1129852  80.3247894   3.5094434
  32.3882966  78.9011086   3.9434034  87.4281601  13.3564574   1.9501001
  87.3198633  13.6560494   1.0474664  86.7263953  13.7928540   2.4331266
  22.7021980  38.5212564  76.3664150  22.8649807  37.5781250  76.3509226
  21.7650414  38.5996604  76.5447903  50.3969618  20.5857409   0.0648576
  49.8699602  21.2385501   0.5256635  51.2912115  20.7423200   0.3682310
  34.9209476  32.4847889  78.7836218  34.3495822  32.8194404  79.4748354
  34.5712996  32.8661370  77.9782915  30.4240727  10.7943952  69.1746283
  30.0133872  10.5832732  68.3361769  30.8794546  11.6214025  69.0167665
  92.0864777  39.6242142  84.6969128  91.2767498  39.7851372  85.1813507
  92.7039830  40.2693272  85.0415134  31.9667697  41.2957239  82.2239494
  32.7226067  41.8830442  82.2232056  31.5893793  41.3921595  83.0983067
  39.6505594   3.0864170  67.2090721  40.2834082   3.3091775  67.8917980
  38.8012123   3.3174396  67.5851917  18.8119042  15.3530335  55.9847164
  18.8450634  14.5184231  56.4522171  19.6628308  15.4187667  55.5513191
  88.3297555  17.8516972  65.4407358  87.4408070  17.7173388  65.1121759
  88.8920419  17.6908255  64.6829844  22.4050804  69.0232350   2.7549249
  23.0640038  68.3958520   3.0523187  21.8052681  69.1098978   3.4958345
 103.7243698  12.8855097  67.6255560 103.9997963  12.6914573  66.7296124
 102.7786891  12.7374840  67.6227856  85.3767638   4.3804652  25.2694017
  85.2325813   3.8474471  26.0512716  86.3110320   4.5877368  25.2897626
  77.8533556 101.5332609  65.8924580  77.2912510 101.7640791  66.6320467
  77.2867485 101.6174163  65.1255751  12.3083615  34.1262794  50.0282717
  12.6587033  34.6683335  49.3213987  11.6887784  34.6968317  50.4830456
 105.1271124  58.3765936  45.1499939 105.2025799  57.4722481  45.4544592
 104.8713503  58.8709354  45.9287405  51.6441592   4.0740980   7.2256547
  51.2012728   4.8858560   6.9784051  51.2222203   3.8105501   8.0434209
  32.2813257 100.3431461  67.4384022  32.7841862 101.1236011  67.6713228
  32.2764095  99.8144304  68.2363176   0.5680100  83.5658819  73.2600832
   0.6172220  84.5216794  73.2438946   0.0694410  83.3383948  72.4752855
   3.3027309  43.8669157  71.8091106   3.7513605  43.0939674  71.4663076
   2.3838210  43.7331915  71.5768290  11.5730810   2.8189126  60.2025032
  10.9734964   2.0814747  60.3161478  12.4142778   2.4955687  60.5250978
  53.0258318  72.0788540  11.5760213  52.4737843  72.2537602  12.3381788
  52.4363609  72.1698393  10.8273775  15.4523158  50.6824493  54.5368671
  15.2435780  50.7289791  55.4698706  15.0543761  51.4685965  54.1629076
  31.0115600  58.9278316  75.9976292  30.7097173  58.0905771  76.3499451
  30.9870410  59.5250893  76.7452383 105.3907810  10.6951213  58.4004784
 106.1769785  10.7419157  57.8564787 105.4374049   9.8336869  58.8151932
  91.5226845  35.1712942  34.1420436  92.2122256  34.8343325  34.7140765
  91.5727488  36.1220503  34.2409658  32.7213502  45.3515100  64.5596218
  32.2609544  45.8815575  63.9089918  32.0344782  44.8261595  64.9700451
 102.0747803  27.5587416  66.5030766 102.0246879  27.4661970  65.5516768
 101.4531259  26.9133306  66.8395615  10.7518852  40.5269289  66.3983870
  11.2714124  39.8669767  65.9392738   9.8476732  40.3359556  66.1490631
  10.0545490  47.6262999  85.1145267  10.6934476  47.8330994  84.4324207
   9.2896861  47.3052406  84.6368885 100.3990273  47.0133257  64.3835926
 101.1903326  47.3811913  64.7769642 100.0864176  47.6966286  63.7906313
   1.3834125  78.3073521  74.4043875   0.9451975  77.5102758  74.7025061
   2.0702122  78.4601259  75.0533867   6.5159893  24.2514443  66.4778996
   7.0085341  23.5007334  66.8096638   6.9295114  24.4576955  65.6396341
  43.7329833  -0.0660365  23.8205320  42.8157107   0.0196463  24.0803510
  44.1888444   0.6073577  24.3254739  98.6659024  11.0291445  86.9009113
  98.2551394  10.7130122  87.7056217  98.5709403  11.9807625  86.9413757
  13.4673810  34.1316915  84.8251343  13.6597979  34.8035812  84.1710949
  14.0051734  33.3836508  84.5654297 100.8341948   8.2314140  63.3041620
 100.9106545   8.8457042  64.0342522 100.7554547   8.7884355  62.5297213
   7.2108221  21.0535693  48.2541561   7.5306976  21.1682749  47.3593092
   6.7412210  21.8651748  48.4465265  33.9998484  24.0241361  67.9424858
  33.7107015  23.4390903  67.2422361  34.9516368  24.0596056  67.8472376
  93.3846728  26.3952088  76.1833191  92.6564662  25.7739663  76.1852169
  93.8612489  26.2080836  76.9920778  49.0924724  81.6032208  10.3758985
  49.2356654  82.5409450  10.5039674  48.1608304  81.4764871  10.5553800
  45.2599287  28.9597893  78.2347441  45.2544069  28.6826348  79.1509247
  44.4313240  29.4251370  78.1202888   1.3555265   4.6436984  17.9657632
   0.5593562   4.7639090  18.4833509   1.2100196   5.1668603  17.1774942
  43.4306808  88.6916603   5.0522214  42.9986902  89.5089210   5.3006250
  42.7578261  88.0205954   5.1669866  44.8155069  33.4741235  41.3535643
  45.1258087  32.7379012  40.8263874  45.1758051  33.3129549  42.2255993
  92.1321289  26.4008767  24.1691858  92.6835100  26.3157327  23.3913976
  91.3448386  26.8469102  23.8570005  90.2605061  28.0642962  74.7075415
  91.0379664  28.6215544  74.6721697  90.1336555  27.7725649  73.8047457
  83.3087913  56.3868904  10.4253864  82.6094453  56.5935421   9.8053527
  83.4040896  57.1804190  10.9521294  98.3211271  10.1934106   3.2791883
  97.9416816  10.6745870   2.5438482  97.6068656   9.6421296   3.5987932
  30.2054074  99.8803247  20.7701475  31.1625864  99.8864521  20.7684499
  29.9712332  99.2284597  21.4308054  30.9963727  39.1781807  68.3510303
  31.2520981  38.5644460  69.0396309  31.5359569  38.9331675  67.5993347
  51.2784052  33.3967614  70.2467394  51.5299797  34.1561508  69.7211313
  51.9229317  33.3708286  70.9539509  73.2068222  95.2274651  59.6534300
  72.8440992  95.5057395  60.4943991  74.1017311  95.5671252  59.6544123
  33.3604765  27.5378227  86.2814903  34.0055919  26.8332005  86.2217617
  33.5715103  28.1183791  85.5502892  45.8272934  63.5315514  64.2321444
  46.1119938  63.3081484  65.1182985  45.6086493  62.6901531  63.8315535
  81.0239683   1.4611394   6.8805009  80.2466790   1.2999064   6.3456518
  80.9659432   2.3875529   7.1141988  89.4910197   8.2203919   5.6900960
  89.3083565   7.6590115   6.4435655  89.0942745   7.7629048   4.9487859
  55.2468824  43.1294060  85.8183670  56.0360813  42.6151085  85.6483936
  55.5284786  44.0391541  85.7219696  20.1614928  36.4344239  64.1697216
  19.3410587  35.9671426  64.0123463  20.8400369  35.7662416  64.0730667
  51.4573070  91.3270391   9.0756303  51.3470527  92.2448934   8.8274080
  50.8158430  90.8562983   8.5434991  92.1837338  44.5078583   4.3164426
  91.2773379  44.2116083   4.2333013  92.6964148  43.8416214   3.8587171
  30.7098194  67.0398046  15.4829198  30.3493192  67.8913666  15.7301313
  31.6420045  67.2059239  15.3426820  13.6411512  40.0249338  83.2516003
  13.2648551  39.1497469  83.3447647  12.8852963  40.5983829  83.1248093
  25.1018000  53.2883215  76.7414093  24.1484237  53.3236265  76.8192387
  25.4229927  53.7031841  77.5420094  10.7868648  28.0024266  55.6199551
  11.4846969  27.3473454  55.6314850  10.0490832  27.5741100  56.0540724
  28.7219858  29.5581412  66.6518116  29.5432496  29.6966600  66.1800337
  28.9130497  28.8449335  67.2609615  48.3353615  49.1738749  56.8490553
  48.9216042  48.8842678  56.1500025  48.2336569  50.1142502  56.7021418
  80.0348691  20.3572041  16.4134866  79.5974038  20.2940232  17.2625238
  79.3255327  20.2976329  15.7735426  24.0638991  83.4996714   7.0264799
  23.4678896  82.9334153   7.5167352  24.8170527  83.6136760   7.6061327
  21.8162513  31.9253111  74.6062756  20.9344625  31.5972519  74.7825146
  22.3304391  31.6497540  75.3651619  96.6006808  39.9162006  63.9417934
  96.0473959  39.2560029  64.3592215  96.2537805  40.7517910  64.2543268
   4.5901024   7.7344954  22.7208400   4.4970930   7.9388338  21.7903423
   5.5004984   7.4541217  22.8146529   3.5586384  33.6029506  76.7570353
   4.4645715  33.4331536  76.4987993   3.0830154  32.8148746  76.4944553
  63.0370220  89.5431794  40.2123243  63.5745128  90.1022376  40.7733804
  62.5370487  89.0012301  40.8226854   4.2985013  46.8024778  79.6431351
   3.6953405  47.2532654  80.2340794   4.8041165  46.2231398  80.2131844
  43.9327669  55.5597019  60.4638910  43.4231710  56.3491106  60.6465769
  43.4633780  55.1320267  59.7476482  92.7981262  26.8523836  46.6306353
  92.7961914  26.1253285  47.2532272  93.5478393  27.3879385  46.8901396
  89.6239118  55.3618813  81.6132450  89.4006495  54.7580433  82.3216057
  88.8710062  55.3277159  81.0231686  31.4705563  66.7361498  59.1885853
  32.0603442  67.4282455  59.4875574  30.9383965  66.5267992  59.9561834
  16.7753518  31.6874123  86.8289471  17.3255706  31.1348057  86.2738705
  15.8992863  31.3100696  86.7492390 103.7856547  13.9477879   2.4886114
 103.2608478  14.1928870   3.2506734 103.1473128  13.8357217   1.7841989
  95.1517765  58.0924749  75.5623055  95.2413801  57.2799635  76.0603333
  94.9672942  58.7595701  76.2235022  27.8334498  47.4408340  78.2901049
  27.9299831  48.3888054  78.3809948  27.5793433  47.3124838  77.3762178
  25.1203068  99.8665012   9.0779668  24.7169944 100.6320013   9.4873220
  24.4238051  99.4863285   8.5426218  53.2387289  88.2840265  14.1608316
  53.8479956  88.9071120  13.7648660  52.6236268  88.0714716  13.4588987
  19.8652613  20.6248260  80.7118893  20.6637025  20.8139324  80.2189827
  19.3915129  21.4563966  80.7286453  31.7501950  73.2601500  75.9060431
  31.6915941  73.5544014  76.8150043  31.0713696  72.5899363  75.8270216
   7.0305687  36.4666867  87.6334286   6.2572068  36.4425611  88.1969547
   7.7685875  36.5114379  88.2413387  13.4588802  42.0208931  78.6283779
  12.7459264  41.6611767  78.1006145  13.7659860  41.2809706  79.1522360
 107.1251745  29.8495698  61.4447689 106.5131311  29.3290997  60.9244347
 107.9439658  29.8221064  60.9497309  93.2947986   0.3239829  18.5353643
  92.4755685   0.4360635  19.0175802  93.7688152   1.1438186  18.6746675
  72.9054970  82.1264500  64.9903250  73.6494871  81.5355522  65.1067305
  73.3019393  82.9730994  64.7847748   4.4434527  23.6508989  76.6536522
   4.0636697  24.4615531  76.3147783   4.4185805  23.0463743  75.9119225
  17.1013951  39.7872853  63.9344120  16.5007889  39.1733408  63.5118294
  16.6411221  40.6262636  63.9122105  33.0825830  63.9148903  85.8902168
  33.6580372  64.6623659  86.0525799  33.1853080  63.3609915  86.6640854
  99.9477909  29.0241170  87.8571129  99.6037529  28.6990309  87.0251369
  99.8298041  29.9728847  87.8107452 106.4578901  22.4666333  44.8587227
 106.5288956  21.6531682  45.3581858 106.6059143  22.2036409  43.9503384
  53.8669404  67.3535170   4.7977430  54.5164748  67.6636018   4.1667253
  53.0242702  67.5186814   4.3748266  10.4190159  49.6182871  44.6786976
   9.9311858  49.1894484  45.3817987  10.9621704  50.2675819  45.1254988
  78.3373984  83.0724586   9.5587045  78.0486496  82.1961702   9.3037969
  79.1398724  82.9241384  10.0589639  26.9424820  55.3970432  53.0282402
  26.4773369  56.0499668  52.5052071  26.3622856  54.6357346  53.0321741
   5.1673118  94.8581792  79.8205662   6.0386220  95.2448792  79.7338820
   4.7263710  95.4046632  80.4710674  74.3223883   4.1709525   0.5193025
  73.9132124   3.4172208   0.0942213  75.1777093   3.8497836   0.8048040
   9.0797883  46.3619328  72.9362154   8.5983622  47.1149206  72.5934792
   8.5404813  45.6063795  72.7027178  23.2814407  20.1867175  56.7036867
  23.1443191  21.0237908  56.2601376  22.3989463  19.8474157  56.8530464
  26.3985062  17.5923872  70.9169579  27.0711017  16.9887972  71.2324381
  25.6393433  17.4168396  71.4729166   6.1581004  90.2083778  72.5214958
   5.5070013  90.7942200  72.1353769   6.0699016  89.3933392  72.0273542
  33.1706786  21.2616968  72.5088644  33.4226990  21.1472940  71.5925503
  34.0012574  21.2926960  72.9836369  12.6076710  54.2285395  57.6836538
  11.9602966  54.1750240  56.9806051  12.3844790  53.5058498  58.2702780
  38.4692550  57.4160194  83.7879372  38.9555430  58.2097769  84.0108776
  37.6088572  57.5419235  84.1880608  37.0279169  40.1957226  75.7651663
  37.7557516  40.6970978  76.1327362  36.5667987  39.8481750  76.5285873
  99.7585253  51.8285275  67.5865507  98.8426320  52.0622444  67.4357271
  99.7253589  51.1577892  68.2686377  34.8838305  52.7923536  70.8175516
  35.4309058  52.0432329  71.0536861  34.6453810  52.6362181  69.9037695
   3.6012053  42.0863724  34.6685839   3.9079922  42.9741430  34.8529291
   2.6803786  42.1956396  34.4311619  82.2635476  11.6263127  66.1723614
  81.4967672  12.0839643  65.8276367  82.5140755  11.0200465  65.4752922
  77.6928338  86.8626059   1.2668115  76.8485268  87.2151174   1.5480787
  77.4904688  86.3541831   0.4814512  74.5989658   7.2545821   3.7399656
  74.0894271   7.2698600   4.5501310  74.5084785   6.3580758   3.4169847
  40.9802212  91.7826094  21.4286977  40.7175126  90.9427322  21.8052942
  40.2465754  92.0333446  20.8673364  98.0753843  16.0579306  13.4228403
  98.1424539  16.0670096  14.3776495  97.3389904  15.4743821  13.2400114
   1.2528463  49.5973444  78.6110401   0.3652556  49.4080162  78.9152908
   1.1312750  49.9864197  77.7449703  50.7984372  87.6607098  12.8769380
  51.1174508  87.1998252  12.1010191  50.4349276  88.4784450  12.5372201
   0.2674116  41.6156816  83.1633663   1.1078167  41.4774656  82.7265072
  -0.0194361  40.7375813  83.4141541   6.2346613  65.3577852  67.0839167
   5.5133307  65.0248194  66.5500212   6.2150580  66.3052177  66.9489479
  42.3640776   1.5802974  56.0465002  41.9803429   0.7892250  56.4248943
  42.6845694   2.0752984  56.8004847 102.2293220  24.8206568  53.8804579
 102.5064294  23.9047885  53.9054966 101.7215953  24.9393010  54.6831846
  55.1773842  83.0292882   6.3101179  55.1548239  83.9674772   6.1216337
  56.0128339  82.8949012   6.7575437  44.1527691  51.3244209  20.3593427
  43.2282235  51.1190878  20.2204687  44.6181973  50.5380573  20.0743181
  27.9726624  27.8582978  72.3993206  28.5675907  27.2072721  72.0272207
  27.1852016  27.3625565  72.6237726 106.2611325  72.9473066  68.1589508
 106.0335962  73.8201141  67.8385353 106.4270565  73.0709791  69.0935135
  75.6390683   6.1066896  82.5811481  76.2279336   6.1023891  81.8265343
  74.7803942   5.8930123  82.2161102  44.6493387  57.0318747  87.3527050
  45.5858517  57.2273970  87.3219204  44.5058584  56.6852427  88.2333279
  89.6947916  71.6786255  11.3738710  88.7937935  71.4310707  11.5816099
  89.9889716  71.0126056  10.7524950  40.3885174  42.8704500  77.5993872
  39.9736714  43.0968142  78.4317875  39.9603534  43.4360790  76.9567633
  35.7668519  52.1248388  51.4599562  36.3632560  52.2293186  52.2013187
  35.1032114  51.5093279  51.7713356  61.9698270  89.2781152   1.4917451
  62.6211389  89.5359410   2.1440965  62.1207984  88.3421959   1.3594801
  58.4841903  83.5938682  10.4549772  58.6707743  84.4754781  10.7777483
  57.6253208  83.3817781  10.8204824  49.6485567  50.2753782  83.1783772
  49.4810343  49.3469000  83.0168152  49.7700548  50.6520367  82.3068333
  34.6559181  94.8166717  19.0663606  34.5823329  94.5613398  18.1467802
  33.9479079  95.4474129  19.1971952  22.2332764   8.6558264  67.4751711
  23.0477643   9.1206825  67.2834682  21.8436670   9.1443247  68.2002974
  91.3737206  26.0711360  62.4590588  91.4017765  25.2477908  61.9716692
  91.6529564  25.8353949  63.3437538  11.3244641  37.0484304  65.9507179
  10.8512127  36.5532351  65.2821064  12.2429454  36.8146658  65.8166313
   9.2294693  34.3384671  78.9200974   8.5280007  33.7326574  79.1591930
   9.0864289  35.1028204  79.4782543  38.4703875  46.0014343  62.3712015
  39.0107274  46.1934757  61.6047907  37.7081013  45.5427599  62.0179749
  67.8338645  16.7635304  11.6330701  68.6375375  17.2298390  11.8630678
  68.0006669  16.4166648  10.7566625   3.6973727  36.2278366  77.9068708
   4.6253860  36.4252281  77.7801466   3.6118993  35.3077960  77.6569700
  87.3416631  74.6371031  60.1454067  87.0350305  75.2770281  60.7878304
  87.2040264  75.0625420  59.2990637  17.6884854  28.4013677  72.2286797
  17.3972654  27.5125217  72.0252705  17.2535896  28.6127377  73.0547667
  10.0801134  44.3363619  54.5941496  10.9812224  44.6199608  54.4398594
   9.7959507  44.8443031  55.3540707  13.9796782  79.9309111  80.9798050
  14.0850055  79.1225100  80.4781818  14.5297420  79.8062849  81.7531967
  31.1652136  61.8246460  82.7346325  31.1286712  62.6359892  83.2412052
  30.3948832  61.8613863  82.1676445  70.8016264  10.2849061  11.4673120
  70.4598911   9.4297225  11.7282945  70.7356471  10.2879292  10.5123884
  90.5337409   3.7895501  83.0861664  91.4193253   4.1234350  83.2293224
  90.2238325   4.2573732  82.3107147  26.3293719  50.6576777  68.7812471
  26.8317246  49.8993683  69.0793133  26.8174529  50.9866333  68.0263996
  15.3886175  41.0101795  54.7495842  15.2126288  40.1883602  54.2914629
  16.2761319  40.9075785  55.0931311  44.8037259  13.1572110  21.0452158
  45.1125948  12.7917058  21.8742162  43.9949743  12.6800353  20.8596021
  38.1869960  62.6711607  84.7263813  38.3694267  63.2635546  83.9969826
  38.8020420  62.9366112  85.4101181  53.2296546  70.3765930   4.6741468
  52.3237761  70.6584622   4.8012907  53.7154981  70.8074452   5.3773958
 107.5710239  56.7069006  68.1803989 107.2911906  56.2445688  67.3903513
 107.9226792  57.5374985  67.8599691  88.7265436  50.0446510  79.1397667
  87.8783027  50.2111578  79.5508575  89.2438154  49.6173763  79.8224831
   9.3935907  37.2417355  71.2625313   9.7636193  38.0155420  70.8376408
   9.3879104  37.4599195  72.1945143  10.3900564  37.0129251  35.8689737
  10.7128632  37.5973535  35.1830649  10.3215170  36.1585021  35.4429483
   8.8731813  56.0409403  62.2485590   9.4335085  55.5433941  62.8441334
   8.4965801  55.3809071  61.6665316  35.3256750  14.8950875  75.6437969
  35.5105567  14.5990741  76.5351057  35.3459048  14.0961230  75.1170397
  91.2601618   0.6455905   1.6048605  91.4058797   1.4620978   1.1270315
  91.3548676   0.8871037   2.5262338   0.5523711  43.2136631  86.1122799
   0.7985497  42.8351355  85.2682781  -0.3689299  43.4516811  86.0084438
  17.3374748  57.8704405  72.4986696  16.8938088  57.9065037  71.6512680
  18.2562375  58.0462217  72.2956657  56.8981918  61.7338766   2.8141862
  57.1376618  61.1804809   3.5575754  56.9859823  61.1618937   2.0517141
 106.7771350  40.7481861  63.5943031 106.1031334  40.0773335  63.7034607
 106.2928091  41.5736151  63.5763836  32.6324677  24.6121550  59.0838861
  33.5501862  24.6266866  59.3555737  32.4806547  23.7103772  58.8010788
  93.0399958  40.0581980  43.6648512  93.9209263  39.9340630  43.3116007
  92.9700224  39.4111300  44.3667364  45.0123405  38.1007123  81.5462971
  45.6733179  38.6801124  81.1672974  44.5310926  37.7606273  80.7919884
 105.7419535  52.5133467  80.3100204 105.0291644  53.1005478  80.0583076
 106.5259312  52.9131842  79.9335289  13.1315172  38.0796432  76.2758827
  13.0626607  37.1286654  76.1914349  14.0583360  38.2376623  76.4555168
  63.6645230 101.5964617  24.2267210  63.6573108 100.7758345  23.7340242
  62.7396139 101.8055357  24.3573457  26.9994903  65.5084896  66.6361809
  26.2979841  66.1592054  66.6624546  26.7997193  64.9116850  67.3573923
  32.5823494  95.9057440   5.5883104  31.9639333  95.8531536   6.3170225
  32.0372599  96.0961403   4.8248560  22.8562522  10.1330888  81.4204788
  23.4907699  10.2707827  82.1237946  22.8038263   9.1818053  81.3280487
 105.6217967  55.3028917  86.5382290 105.0121073  55.9758806  86.8408775
 105.9098068  55.6097746  85.6785107 103.8096670  36.9723868  78.5607672
 104.7295336  36.7698860  78.3902645 103.8305662  37.5704670  79.3078232
  95.9815816  58.8868237  79.6118116  95.0886361  58.9028215  79.9562263
  95.9250943  59.3535614  78.7780285  29.6771765  49.8987293  54.5457411
  29.6846986  49.9717474  53.5913610  29.5927715  50.8008909  54.8543119
  30.1162004  33.1758118  62.3753166  30.1713157  33.3658671  63.3118391
  29.3664002  32.5863528  62.2942686  38.5499907  30.6413770  80.0225735
  38.1440258  30.6336236  80.8893871  39.3444276  30.1174355  80.1254654
  39.0202355  41.6189957  84.3964291  38.0946565  41.8356562  84.2841911
  39.2995572  42.1430063  85.1471710  99.9589451 100.4974868  80.7757378
 100.1192602 101.3463717  81.1879539 100.8238467 100.2023385  80.4910183
   5.5818498  64.8169518  47.3145247   5.2522528  65.3250217  48.0557823
   6.3904339  64.4192266  47.6373816   4.5098370  47.0065641  83.0141449
   4.8811367  46.2827539  82.5096989   4.4143149  46.6568899  83.9000511
  39.3283772  15.6946933  47.9092932  39.7265506  14.8438287  48.0929232
  39.9414539  16.3306153  48.2780409  26.4750934  46.0164881  80.2296162
  27.0376086  46.3632011  79.5370817  26.0401559  46.7876482  80.5934525
  21.5981913  49.5851088  61.4459848  20.6934285  49.7995901  61.6732168
  22.1214461  49.9916363  62.1367598   6.8416858  18.6772263  68.8227081
   6.5378755  19.5510161  68.5768986   6.4080673  18.4988439  69.6572065
  15.8200395  77.4136686  67.1142483  16.3789630  76.6700315  66.8887663
  15.8616793  77.4636984  68.0692339 106.8931988  42.6401091  72.4235725
 106.1526601  42.0447493  72.5392485 107.3351039  42.6404953  73.2726622
  30.9306669  35.7953668  66.9640827  31.7216420  35.3621149  66.6433239
  30.9929466  36.6886449  66.6258430  65.4748353  90.2185120  30.0202734
  66.3709458  90.5547179  30.0067312  65.5590256  89.3016685  29.7584611
  25.1798940  38.2969880  73.1980133  24.7917223  38.9819264  73.7424517
  24.7640014  37.4885392  73.4974766   4.7303182  68.4687901  53.5366774
   4.8675632  69.2744446  54.0349865   4.0808880  68.7046051  52.8742075
   5.6436628   4.9927270  84.0401459   5.9425658   5.0873691  84.9445438
   4.7437736   5.3188175  84.0499401  28.7771034  24.2633748  69.3289185
  29.3320584  23.5215402  69.0882111  28.0304122  23.8678956  69.7786760
  17.2959507  39.7143292   7.3698223  17.5252318  39.2903066   6.5428597
  17.6389539  40.6040192   7.2859699  18.2262170  26.0507059  81.0297585
  17.2895312  26.2467647  81.0094738  18.5611784  26.5581393  81.7690372
  87.5981657  51.1510801  87.0510292  88.5211198  50.9411478  87.1935558
  87.2768657  50.4476118  86.4869881  53.1191015  35.7803178  82.2172832
  53.1227732  34.8482537  82.4351788  53.9074993  36.1270332  82.6349545
  29.2943599  56.7727513  10.9889967  28.8011827  55.9592958  11.0953027
  29.7032770  56.9181581  11.8421537  12.9901111  54.3401241  83.7308884
  12.1446049  53.8921499  83.7567425  12.8490186  55.0844193  83.1457806
  33.2595706  31.8301082  64.4851303  33.1433153  32.1194291  63.5801411
  33.9662790  32.3799515  64.8234606  21.3952279  47.0427465  76.2721825
  21.7208219  46.2464333  76.6918278  20.5606341  46.7835951  75.8816385
  97.3556666  41.3889885  57.3269081  97.5933520  40.7748890  58.0216169
  98.1602208  41.8777943  57.1537209  57.3892085  19.3197215  70.6293154
  56.7312590  19.9890804  70.8171940  58.1252448  19.8052502  70.2568340
   1.0741139   6.1966903  14.2601949   0.7376909   5.3140933  14.1050321
   1.9175863   6.0591466  14.6913225  34.9390221  54.1025066  84.9167919
  34.1973925  54.6724606  85.1201916  35.4180837  54.5682383  84.2313480
  78.0696448  93.9664234   4.8326665  78.5303124  93.3314861   5.3811819
  77.1590479  93.9182962   5.1237470   8.9780909  32.4179769  21.5741181
   8.8322914  33.2900095  21.9409037   9.5292580  31.9756746  22.2197318
  82.7584140  20.8954430  83.1390667  83.3528559  20.1792407  82.9156208
  82.0186703  20.7881045  82.5411606 102.6474349  21.5718317  56.7228127
 102.9961504  22.3868775  57.0838261 102.6766066  21.6981363  55.7744312
  42.5591278  51.7244816  74.0894699  43.4449673  51.4294577  73.8785696
  42.5841522  51.9049597  75.0291681  43.0965605  67.6812769   5.0531179
  42.1968820  67.4315168   5.2639085  43.1238034  68.6264790   5.2017194
   5.8390141  60.6758738  62.8708315   5.2754706  60.6361055  62.0981312
   6.4266300  59.9260473  62.7775669  12.9282093  58.0579567  79.5334339
  13.2125926  57.1739197  79.3014097  13.7270188  58.4979439  79.8242044
  87.2394387   0.5172225  74.1272211  87.9190509   1.1872181  74.0532875
  87.2001974   0.1189000  73.2577181  20.0399446  49.2186213  69.7177219
  20.4888082  50.0639868  69.7283316  19.2859137  49.3405485  70.2946138
  77.0041599  94.4247253  78.9957714  76.6799997  94.2284478  79.8747635
  77.0373221  95.3807057  78.9606476  32.0869541  26.0265660  68.6591959
  32.8577638  25.5354452  68.3747911  31.4480042  25.8963370  67.9584742
   0.7130830  25.3569102  69.7989321   0.8491226  24.4268203  69.6182156
   1.0942866  25.4905510  70.6667185  15.7573771  23.5079718  81.2449551
  15.1215529  24.2168283  81.1475945  16.3729072  23.6375666  80.5234528
 106.7069684  13.4648728  49.1413689 107.3534533  13.9835298  48.6625338
 107.2276611  12.8421497  49.6486425  36.6890097  21.6451120  79.3304539
  37.1351457  21.0205746  79.9024200  36.4895201  22.3895621  79.8981047
  33.2353783  29.1688895  78.1933069  32.5359702  28.6047983  77.8633690
  32.9244280  30.0586152  78.0261755   5.5490828  28.3202893   5.3356821
   5.3399849  28.1654937   4.4145185   5.1266480  29.1545112   5.5402643
  21.5332007  53.4759188  71.9406414  20.9523392  52.8389072  72.3566294
  22.1791077  53.6870718  72.6147699  92.5959746  76.1755514  59.4999361
  92.3945050  76.2827253  60.4295349  93.3794300  76.7078400  59.3617439
  24.7003146  52.3953026   1.8853265  24.4477912  51.8162589   1.1661798
  24.0306564  52.2525436   2.5542146  25.0766333  88.3248891  32.7493650
  25.6904312  88.1372370  33.4594900  24.4212039  88.8995232  33.1448919
  34.3291385  52.7019673  21.7437917  34.7932708  53.5237364  21.5840799
  34.2380363  52.6594438  22.6957017  19.2490375  61.2858391  72.2121477
  19.1348362  61.3435602  73.1607580  18.3583510  61.3048697  71.8620825
  63.3963355  95.0692667   0.8726961  63.0280741  94.1992868   1.0268098
  63.5469755  95.1016773  -0.0720232  88.0756156  52.9137087  69.2091608
  88.7492792  52.6723957  69.8449087  87.4994938  52.1503448  69.1692734
  46.4402580  52.5289392  88.4651184  47.0381021  53.1780148  88.0942917
  45.8574772  52.2990417  87.7414227  23.7519717  30.2297544  75.9487391
  23.5098743  29.9857688  75.0553799  23.5270429  29.4629955  76.4757299
  36.5638113  56.7043400  41.2348557  37.1824169  56.0005951  41.0391569
  36.4089918  56.6321182  42.1766853  12.1184576  38.9782119  73.0186033
  11.8307579  38.2248116  73.5342073  11.4946294  39.0249157  72.2941113
  44.7619963  61.1770725  63.3017969  44.6747971  60.3152704  63.7091398
  44.0491390  61.2137842  62.6640511   1.1230248  45.6253386  55.6120634
   0.4542039  45.4583931  56.2761688   1.9275829  45.2671719  55.9870768
  14.9947476  77.7001810  52.5937462  14.8329663  76.7712545  52.4289656
  14.1830575  78.1347799  52.3319912  32.8117180  49.7003365  73.6093664
  33.5972619  49.5299864  73.0896235  33.1226635  49.7185516  74.5144701
  57.2214635  70.2115001  18.6203844  57.9178055  70.0984980  17.9734117
  56.4233931  70.3028048  18.0998308  32.5245404  80.1948833  53.6202812
  32.5449586  80.9840393  54.1616249  31.5983891  80.0706577  53.4128141
  56.9447001  76.1785616  -0.0552386  57.0560678  75.8030070   0.8181364
  57.8280600  76.4349617  -0.3201216   9.6377945  57.0616293  50.0659800
   8.9221972  56.4261580  50.0477362   9.2572212  57.8613853  49.7029638
   4.5941830  37.1555812   3.5779363   4.6475887  38.1056125   3.6819917
   3.6650634  36.9831950   3.4254438   6.9488847  34.1739702  56.4169121
   6.5879434  33.4881115  56.9786501   7.6633954  34.5520544  56.9295120
  89.2986052  41.2962634   3.5199720  88.4227471  41.0185630   3.7882787
  89.4692711  42.0833499   4.0372640  28.6668038  71.9763231  81.9764328
  29.0009332  71.0793352  81.9755650  29.4242477  72.5142860  81.7459869
  18.4165287  48.1002569  36.8361878  18.2894814  47.1557522  36.9256544
  19.3638241  48.2074308  36.7502999  13.2437241  11.8477702  32.2701550
  14.0734088  12.3095179  32.1491432  12.6648855  12.4963427  32.6708198
  77.4167822   4.0211923   9.8024637  78.3653585   3.9302737   9.7120840
  77.1408848   4.4627387   8.9992506  99.0687357  21.6182899  55.5084467
  99.6925704  21.3039446  56.1628532  98.5653732  20.8414412  55.2648020
  28.4622359  34.8106885  87.1191502  28.4425354  34.8687625  86.1639214
  29.2556977  34.3113971  87.3124409  76.5600737  77.9814257   8.2618696
  76.4976605  78.3664049   9.1360075  76.0161408  77.1950902   8.3070642
  49.1648388  83.4915829  73.3550644  48.5313463  83.2447624  72.6812696
  48.9805269  82.9005623  74.0851021  26.3172793  49.7172976  62.2646332
  26.7956734  48.8945961  62.1619797  26.9028354  50.2721739  62.7798700
 103.5912154  56.1721802  59.5355606 103.1712861  56.3444996  58.6928272
 104.5278833  56.1613941  59.3386602  32.5667667  53.0975580  66.4414024
  32.5730109  52.8638887  65.5131865  32.0630884  52.3998642  66.8606424
  12.1820617  79.5506382  55.0656986  11.8688023  78.7300777  54.6851969
  13.0483961  79.3382692  55.4129648   5.0070524   0.5641610  13.4164125
   4.4159651  -0.1467651  13.1685525   5.6691599   0.1446063  13.9657957
  19.5663071  11.6054160   4.1028863  20.2021980  10.8917338   4.1531831
  19.7101641  11.9940144   3.2400209   4.8500210  43.5286379  85.3424931
   5.2634901  43.0517340  86.0621071   4.5728648  42.8463697  84.7309971
  26.3633013  37.7785182  83.3108616  27.2473359  37.9501319  82.9864216
  25.8396554  38.5062814  82.9756260  58.6832611  11.5353829  17.1178514
  58.5998373  12.2855050  16.5291387  59.5973663  11.2645013  17.0326025
  16.0439718  47.8183126  72.9106474  15.4606164  47.6762342  73.6561251
  15.4559350  48.0007267  72.1777248  32.5585747  84.7311401  79.3431520
  32.3328495  84.3064404  78.5155582  32.1554279  84.1792679  80.0133324
 104.5849828  93.9105225  18.1126511 104.8308290  94.7737026  18.4453976
 105.0857071  93.8146019  17.3025239  26.3203025  38.5204625  43.8654995
  26.3081217  39.2132282  43.2050753  26.2520766  38.9840364  44.7001696
  21.4353061  82.9031372  57.4620008  22.0953536  83.4110069  56.9901514
  21.2284184  83.4347439  58.2306528  36.0269917  98.7059654  45.0484830
  35.9443108  98.0331100  44.3727190  36.7916866  99.2176975  44.7846586
  16.6957998  56.9224405  79.7421169  16.9991386  56.6203022  78.8860035
  15.9352505  57.4699831  79.5471954  45.8083248  31.0981059  76.8326807
  45.7521629  30.1975226  77.1520996  45.3999043  31.6224575  77.5215054
  22.3046160  69.7976875  66.6175890  22.9364872  69.2618752  66.1381388
  21.7541695  69.1643333  67.0781374  15.5388188  64.4358015  87.2179317
  15.6759417  63.7460375  86.5685844  16.4212286  64.6846724  87.4929714
  37.8174138  44.2960310  56.7856836  37.8273630  43.5799646  56.1505604
  37.5996566  43.8753986  57.6174784  36.4237189  71.6799974  71.8688631
  35.5282879  71.8954659  72.1296501  36.7095613  71.0286427  72.5093842
  30.5356932  82.2399330  59.8060608  30.9424233  82.1537685  60.6682539
  31.2711620  82.2422314  59.1934347  69.6779290  20.8439404   0.7305604
  69.0174703  20.5366284   1.3515169  70.4310857  21.0722453   1.2754137
  20.9300137  40.8565378  79.8996878  21.7957282  41.1696863  80.1618099
  21.1054587  40.0639725  79.3924475  90.9605058  92.5153638  86.5846443
  90.6164940  93.2002611  86.0112286  91.2126752  92.9768819  87.3844147
  59.5422888  58.5083294  86.4233780  60.2162457  58.7859726  85.8029461
  59.8540878  57.6661825  86.7547321  13.4525037  87.8122997  76.0144186
  12.5913405  87.4689484  76.2526226  13.6693299  87.3676682  75.1949501
  43.4452105  22.0226645  75.3317642  42.8676844  21.5701771  74.7169876
  43.0787754  21.8257546  76.1938429  28.8845468  35.2849674  84.0655708
  28.0625963  35.7551503  83.9257240  28.7415266  34.4279146  83.6640358
  24.2485070  60.0309467  71.1289978  23.5098863  60.3914833  71.6195917
  23.9608669  60.0478601  70.2161932   8.2611793  28.9674306  48.3420658
   7.6201993  29.6343446  48.0958843   9.0261346  29.4653320  48.6304569
  36.8389606  60.8028460  62.4010277  37.7034998  60.5676222  62.7378893
  36.5765953  60.0515079  61.8691540  32.8430367  42.0302582  46.2893009
  33.0399609  41.2105131  45.8360195  31.8876433  42.0497561  46.3447618
  36.3079190  61.6793299  54.5589876  36.0364270  62.1878529  53.7948322
  35.6474876  60.9906912  54.6353769  46.2057447  22.8277230  88.1268120
  46.7122126  23.3505011  87.5051785  46.8349218  22.1979618  88.4786224
  54.8796749  29.1723800  45.6903028  55.5419397  29.6795082  46.1598301
  55.3035498  28.9286518  44.8674059  11.7401969  55.3193474  47.3750973
  12.3275006  54.7033978  47.8131723  10.9428024  55.3077650  47.9044962
  25.9107336  98.4747471   5.2336008  25.5798038  99.0101112   4.5124227
  26.4027121  97.7740444   4.8055822   1.6808272  11.7374284   0.7508165
   2.4910259  12.2399670   0.6655962   1.2519360  11.8283898  -0.1000708
  12.1690583  32.6573777  57.6892328  11.5620291  32.0669627  58.1355000
  11.6158795  33.3661032  57.3606968  20.5529428  67.1597624  67.2879410
  20.9671283  66.3209105  67.0854330  19.6310723  67.0318890  67.0642567
  36.4030480  66.7565966  53.8288927  36.0494113  67.3856258  53.2000017
  37.0108509  66.2225151  53.3174610  31.9942760  57.6688433  35.8895659
  32.4407339  56.8428707  36.0757709  32.5408983  58.3355999  36.3053393
  20.7807370 100.2657141  16.8767149  20.5718907 100.5970873  17.7500993
  21.4807375  99.6294512  17.0230085 103.9142011  86.0278702  40.9822845
 103.9516909  85.5869293  41.8310499 104.8297090  86.1958981  40.7590246
  29.1132545  46.2408638  68.9014101  29.9219799  45.7761860  69.1165113
  29.3803859  46.9049978  68.2659578  72.1670704  22.7109200  18.1310350
  71.9675094  23.5965211  18.4345323  72.1354922  22.7721173  17.1763116
  26.6759872  40.4320860  81.9724655  27.0119882  40.4429722  82.8686905
  25.7273889  40.5134630  82.0713043  30.8799076  45.8418274  59.6553659
  30.2089024  45.6266975  59.0075207  30.8215141  45.1393938  60.3029871
  14.4813859  58.5383463  72.3336601  13.8479900  58.0781364  72.8843403
  13.9688659  58.8486576  71.5871620   5.8772242  41.0799599  78.0694866
   6.8249881  41.2139177  78.0750084   5.6082618  41.2341261  78.9750957
  10.9653974  66.5022182  45.8751631  11.8858063  66.4209366  45.6252193
  10.5888951  67.0855808  45.2162552  21.5138507  32.5051284  71.6438675
  22.1795440  33.0852342  71.2743282  21.7362881  32.4465561  72.5730181
  40.3452969  96.3847256  69.1664886  41.1764002  96.2442875  68.7128639
  40.5967712  96.6910553  70.0377846   6.1637461  39.3070674  71.5016556
   6.9365287  39.2025304  72.0567322   6.0030049  38.4323692  71.1476851
  25.2363133  54.0705538  80.1208305  25.3536201  54.4649982  80.9850597
  24.2930746  54.1138744  79.9638176  80.5225762 100.9243788  17.0353872
  80.1656540 101.2239803  17.8714925  81.4711722 100.9325947  17.1631891
  12.2972643  48.7872887  79.8716640  12.7792931  48.0635738  80.2718067
  11.7217231  48.3673048  79.2324448  37.5860023  46.0920191  70.3151464
  38.1308842  46.5933180  69.7084904  37.5013614  45.2310228  69.9055719
  11.5630853  60.7199717  57.0003080  10.8888936  60.7875443  57.6764202
  11.5563190  59.7969961  56.7467213  58.8509997  84.3870295   7.8713304
  58.9051994  83.7796272   8.6091405  57.9270586  84.6340169   7.8318101
  12.5426340  10.7616670  26.2102396  11.6858149  11.0994441  26.4710123
  12.4572230   9.8109824  26.2818700  12.3641157  57.4327755  73.5404444
  12.0385051  58.1843758  74.0357256  11.8992507  56.6823959  73.9106607
  70.6293066  90.8355869   6.6059953  70.6150421  90.5697884   7.5254423
  71.1254652  90.1459683   6.1649877 106.2011607  43.2524681  27.7204299
 105.9689435  42.3281717  27.8097963 105.6409898  43.5728931  27.0134878
  36.1180449  62.1717024  58.8198185  35.9739161  61.2374687  58.9703512
  36.7501497  62.2038841  58.1017399  67.7484624  11.3522584  20.5960161
  68.0622615  11.5772445  19.7201520  68.4859748  10.9002549  21.0058958
   3.2878914  58.9385796  77.8806829   2.5824785  58.7025023  78.4830856
   2.8379932  59.2396784  77.0912743  27.0939803  43.3181095  70.7132959
  26.4607215  43.9710712  70.4152107  27.8089452  43.3708477  70.0790453
   9.0838403  51.7669439  77.0712042   8.7772274  52.6070881  76.7300606
  10.0350606  51.8614388  77.1210146   6.6292238  20.0763423  17.8760129
   7.4693346  20.5178172  17.7513296   6.6694355  19.7325713  18.7684423
  12.6208961  49.2792606  62.5352764  12.1668947  49.1524506  63.3683586
  12.0890903  48.8028479  61.8977451  94.2595856  29.3701751   5.6725484
  94.3256657  28.7672240   4.9320680  93.4062020  29.1790015   6.0616762
  10.8532405  66.4559603  59.1524172  10.8483267  66.5206671  58.1974220
  10.8841312  65.5156231  59.3286133  30.1717234  65.7524252  61.7056179
  30.7200027  65.3368902  62.3711634  30.0575662  66.6506767  62.0160103
  68.3578213   5.8906119  60.8801031  67.9240855   6.7274325  61.0469532
  69.2823943   6.0597651  61.0611677   1.7651661  42.3577595  58.6959171
   1.7906007  41.5464735  59.2032623   1.3140708  42.9817963  59.2645359
  24.4140291  69.9332380  74.4455671  25.1840186  69.8646402  73.8810825
  24.3561506  70.8644056  74.6596050  51.2322807  91.1869144  30.4497862
  50.9160280  91.0656643  29.5545125  50.4797411  91.5408325  30.9237671
  19.9014521  56.8943310  72.1527052  19.9942279  57.5584221  71.4696169
  20.7268214  56.9309998  72.6360798 107.2066512  78.6681366  67.8646517
 107.2759468  79.3755674  68.5057211 106.5560424  78.9784908  67.2348738
  44.6532202  70.5435991  59.1637993  44.0991449  69.7961378  58.9390135
  44.4918919  71.1795235  58.4668016  38.8691688  52.7874994  81.2749386
  39.0822697  53.2770538  82.0693874  39.0868545  51.8798828  81.4872646
  49.4116449  80.7030773  68.7217760  49.6676350  79.7877407  68.8351965
  49.1960049  80.7780457  67.7922010  96.0652940   2.0963675   2.3457319
  96.3587205   1.5033585   1.6540128  95.9376709   2.9356486   1.9035131
  12.8490591  65.0958967  85.7053852  13.6177218  65.0140142  86.2699127
  12.1808875  65.4899120  86.2662220  36.2118793  42.4992943  65.8731604
  36.5866566  41.6330099  65.7140446  36.5403748  43.0382395  65.1535320
  36.4471722  75.4495096  69.5359898  37.0187759  74.6999884  69.3695068
  36.8099070  76.1519003  68.9962673  33.0969429  53.9906836  61.1070490
  33.9514542  54.3684053  60.8987904  33.2664537  53.4086800  61.8478394
  82.7711300   8.8393933   7.6944047  82.9210214   9.7167069   8.0466634
  83.3389632   8.7898213   6.9254190   3.7595910  44.0260029  66.4895391
   3.8462335  43.3850718  67.1951771   4.6530187  44.3315172  66.3324404
   2.7820879  59.4264221  50.7008982   3.3118150  59.1352367  51.4430761
   3.4005567  59.4822359  49.9724627  41.8383074  65.9921408  60.6041718
  42.4286366  65.2529621  60.4580164  41.1375475  65.6348038  61.1495876
  23.3490562  50.0277233  81.3823223  22.6652455  49.8738241  82.0342064
  22.9553795  50.6419754  80.7626820  44.4899579  91.0547747   3.3957464
  44.3045386  90.7499565   2.5075323  43.8450404  90.6060208   3.9424974
 104.1160421  51.5014219  61.5320396 103.7101288  52.3567581  61.3910961
 105.0245688  51.6188049  61.2544966  65.6665395  19.9519784  16.7636663
  65.5134503  20.7989509  16.3448221  64.8423342  19.4778592  16.6535360
  34.4800564  97.3712601   7.5051290  33.8756937  97.9457630   7.9751569
  33.9141267  96.7375339   7.0642835  14.0729571   6.9161660   6.5423757
  14.0235138   5.9762961   6.3679201  13.5823202   7.3188931   5.8259183
  18.9153421  55.0575542  70.4071808  18.2662129  54.6787167  70.9999275
  19.2526305  55.8201647  70.8771753  29.3027206  87.7868260  55.5196554
  28.7008115  87.0611443  55.3543455  29.0162130  88.1494440  56.3578970
  59.4935616  88.4674944   0.5878145  60.2256497  88.9880361   0.9184438
  58.9998587  88.2240309   1.3708955  16.4298904  71.0055828  51.2857246
  16.0038233  71.2001801  50.4509640  17.3338926  70.7968140  51.0502958
 104.3276725  87.4432373  78.0076551 104.0538220  86.7780113  78.6390924
 105.0363735  87.9132175  78.4470701  31.9221139  61.0773993  77.7538443
  32.1274471  60.3692722  78.3642721  32.7723837  61.4579487  77.5337124
  29.2330194  42.2302914  74.6711111  28.4966135  42.7743912  74.3920183
  28.9560604  41.8651485  75.5114698  76.8620308  85.3357495  11.5085298
  77.8166064  85.2793492  11.5513689  76.6780909  85.6035937  10.6081659
   2.1322738  47.9102564  80.7307243   1.7942578  48.4871054  80.0457287
   1.6185901  48.1335497  81.5069294  81.8786391  77.7650083  11.3704568
  81.1537894  78.0124082  10.7963354  81.9316252  76.8124665  11.2924177
  84.0967099  20.6713588   1.8608743  84.9302809  21.1413199   1.8838388
  84.0730338  20.2679164   0.9931737  10.7891178  17.6556814  57.7751350
  11.0170162  16.9656253  58.3981228  10.0628734  17.2912705  57.2691631
  82.1571676  22.2546775  31.7603952  82.8245143  21.7279965  32.2002679
  82.6534097  22.8465325  31.1949903  17.8830481  47.2873592  85.7823944
  17.3549104  47.8971004  85.2671146  18.2688057  46.6978645  85.1343822
  18.4118569  34.5798993  60.1297712  17.6217759  34.1353345  60.4369640
  18.9597213  34.6613669  60.9104395   2.3175433  67.5814199  81.1065769
   2.6959151  68.4020853  80.7910156   1.5063354  67.4842978  80.6078339
   9.2571217   8.8534552  61.6647053   8.3640367   9.1528779  61.4944744
   9.4656670   9.2024612  62.5312710   6.1794120  84.0862179  69.8824215
   7.1344817  84.0228081  69.8896599   5.9028041  83.4592342  69.2141342
  27.1769643  82.0698261  68.9823723  27.5603271  82.7937222  69.4775867
  26.3734174  81.8547058  69.4559383  42.5595570  11.7160738  59.1907167
  42.1596384  12.5794172  59.0861511  43.0026007  11.5548551  58.3576775
  46.2376070  91.9116211  80.3964996  45.3116798  91.9120312  80.1538277
  46.3396931  92.6837063  80.9530067  42.7827784   6.2364238  61.2325144
  43.3519890   7.0016044  61.1504316  41.9276639   6.5979331  61.4655972
  66.4904483 100.1105751   2.6212198  66.8114313  99.9727405   3.5123998
  65.5826720  99.8078407   2.6440984 102.5290863  20.6754500  21.6918928
 102.2347967  20.1613862  22.4437982 102.2735159  20.1543767  20.9307081
  13.1366205  91.8469143  84.1884899  14.0713441  92.0527649  84.2006588
  12.7813983  92.3878860  83.4832191   3.6353254  25.9139830  19.0211851
   3.2058907  25.7965190  18.1738264   3.0418801  25.5025823  19.6495229
  27.0623398  40.8511877  85.0848770  27.1070695  41.8018866  85.1868725
  26.4138627  40.5712366  85.7308865  31.5449262  32.4393058  58.3129120
  32.2673392  31.9645762  57.9018354  30.7565999  32.0067620  57.9847670
  19.7748506  42.0064974  72.0490599  19.9458086  41.0656261  72.0071220
  20.5518556  42.3725176  72.4715853  76.1385775  25.9260345  87.3161983
  76.2148046  26.5355515  86.5820980  77.0356464  25.8184242  87.6323032
   7.7172256  55.5515671  26.9609213   8.6676347  55.6343269  27.0390582
   7.5286514  54.6627283  27.2619748  15.7156825  42.2470808  64.3862820
  16.4157391  42.8946447  64.3037701  15.2439749  42.5039434  65.1785898
  38.0354047  22.1158457  86.3710785  38.0599403  22.1774292  85.4161835
  38.9201498  22.3527431  86.6491795  48.0490017  58.0783606  83.8527679
  47.6308203  57.7923489  83.0406380  47.3201513  58.3004904  84.4321346
   6.2229025  58.6130762  67.6477194   6.6993749  58.7757874  66.8336391
   5.3253108  58.8866043  67.4586582  26.8669462  20.3053451  62.8624916
  26.8939686  19.6866608  63.5923767  27.2635031  21.1039495  63.2106400
  23.0783176  52.5349760  55.1259708  22.2273374  52.4367905  55.5530834
  23.2183576  51.7014885  54.6766138  16.1899304  54.0475988  30.6013608
  15.5580127  54.7126484  30.8745241  15.7515860  53.5777760  29.8918867
  73.2321580  95.5228533  23.3981878  73.5257395  95.1334919  22.5745183
  74.0340599  95.6375946  23.9081079  43.5151815  36.9288492  79.6108961
  43.9097071  36.0893750  79.3745422  42.5742483  36.7542195  79.6304989
  88.1982430  96.8795885   2.3107130  87.9274233  96.0871328   1.8471414
  88.4250077  96.5769972   3.1900579  17.5113201  60.2788019  60.5735588
  17.7962255  60.6370306  59.7328854  16.8496609  60.8963251  60.8851719
  85.8481459  15.8035190   3.9456541  86.3646392  16.5324218   3.6019022
  84.9686460  16.1645848   4.0567476  98.3421968  48.2703829  60.1722908
  97.6359920  48.8568592  59.9010801  98.1517826  48.0744123  61.0896587
  17.5370407  56.3244629  27.1669054  18.1283820  57.0075607  26.8507981
  18.0470574  55.8517075  27.8246403  47.7079010  24.9318147  38.0864358
  47.3680925  24.3221688  37.4313831  46.9286489  25.3552508  38.4465766
  87.9593913   0.8948953   7.5274164  87.4248116   0.1071698   7.4276907
  87.5787680   1.5220744   6.9125921  69.8845681  85.2438034   6.4270193
  69.9080547  84.4285382   6.9280416  69.1305812  85.1459254   5.8455068
  86.2055592  26.2136227   5.2302152  86.4698843  25.6436068   5.9523183
  86.7819421  25.9668452   4.5069391  10.8578169  17.9711652  52.3316956
  11.2615335  17.5834727  51.5552044  10.3232205  17.2678351  52.7001619
  22.0128107  15.5879164  56.0436344  22.2133064  15.1986563  56.8948126
  22.8533316  15.6094444  55.5861473  35.7654786  39.3045592  85.6518745
  35.3523707  38.9853621  86.4541817  36.6553593  38.9534545  85.6846428
  28.3050776  59.6959591  43.2661152  28.5699487  58.8074827  43.5041952
  28.2585764  60.1635885  44.1000175   9.2292982  42.8076506  80.3319836
   9.1607803  43.1284142  81.2312317   9.6081746  41.9328403  80.4179573
  22.8578830  33.3754110  81.6388226  21.9087005  33.4735942  81.7139530
  23.0830216  33.8356066  80.8302689  39.5278049  48.9283991  58.8381386
  39.7136259  48.2025909  59.4338751  40.3767920  49.1455317  58.4530306
 106.6077557  44.5442009  65.4190826 106.2098677  44.0002155  64.7393799
 107.3821702  44.9211025  65.0014019  21.5276194  28.0563307  58.9558268
  21.3712025  28.5309219  59.7722387  20.7881832  27.4527240  58.8842297
  36.6096568  82.1960926  62.5360775  36.8080020  81.9497013  63.4395027
  35.8481288  82.7717304  62.6064920  97.0528094  69.5040226  45.4243231
  96.8748740  70.4371119  45.3063631  96.8836467  69.1174459  44.5651531
  23.2741209  99.5671715  13.5198576  23.1463226 100.3926672  13.0524618
  23.8773271  99.7851337  14.2303926   6.1257887  52.9288292  62.8516483
   6.3764542  52.5026894  63.6712885   5.5213720  52.3133564  62.4367952
  30.6901455  77.9150152  74.9036741  31.2061739  77.6789713  74.1328096
  30.7629681  78.8678885  74.9580574  30.3989267  58.8425350  54.8001146
  30.7542634  59.0751553  55.6579351  29.7541428  58.1597042  54.9851131
   1.1446449  60.4244709  63.5999966   0.5945948  60.7213163  62.8750372
   0.8539862  59.5284319  63.7698698  60.9240445  99.7265400  27.9213220
  61.6977485  99.8354258  27.3683721  60.6263789  98.8343014  27.7437479
  93.6031525   2.5616938  10.1892454  93.3751218   1.6526229  10.3837186
  94.0866916   2.8575951  10.9605199  43.0012204  74.4204010   0.2729398
  43.6024769  75.0404824   0.6855184  43.5495724  73.9222802  -0.3332060
  27.8136706  63.4709835  86.1176014  28.3871841  62.7483940  85.8623123
  27.8654099  64.0874004  85.3871250  32.6316309  84.9510002  60.5313730
  31.8844438  85.4094696  60.1469994  32.9629993  84.3978691  59.8239279
  34.4778776  38.1800079  72.7630091  34.1351032  37.4864435  72.1993494
  33.8753247  38.9126086  72.6347256  26.5370035   6.6734273   8.5156137
  27.3073101   6.7747504   7.9565126  26.8275786   6.9667823   9.3791753
  29.2192936  69.8615742  59.7164106  28.7552738  69.2633724  59.1306877
  30.1432776  69.6384525  59.6037006  39.6734357  75.7166815  64.0226793
  39.7245932  76.4125061  64.6780014  39.6162224  76.1789513  63.1864595
  40.5057335  69.9133062  55.1841688  41.3448954  69.5067549  55.4004002
  39.8726106  69.1971684  55.2344990  46.3659000  64.7266197  59.9055481
  46.4112806  65.5126095  59.3611240  45.4304743  64.5973921  60.0621080
  33.7184072  85.7412052  42.0982265  34.0747285  85.7636166  41.2101030
  32.7835274  85.5751896  41.9771004  13.1426430  89.9857521  72.3049688
  12.4977767  90.6199169  71.9915771  12.7613235  89.6340084  73.1094027
  57.1715546  88.0217648  64.9508047  56.3229179  88.4644890  64.9445486
  57.7350855  88.5764980  64.4114256  45.0644064  80.5267429  43.1525373
  44.5086145  80.0710106  42.5203753  44.5524836  80.5322266  43.9613247
  85.7509192  98.3426775   2.5089246  85.5498703  98.7063374   1.6466218
  86.6910227  98.1648077   2.4805910  63.1941573   3.5455138   6.1270505
  63.5562078   4.2500455   6.6644365  62.2460459   3.6645705   6.1830980
  92.5193302  37.5410468  13.6659605  92.9224555  37.4129683  12.8072912
  93.0366079  36.9943244  14.2573530  93.1107347  22.7920777   5.6530935
  92.7965204  23.6579997   5.9132368  94.0562193  22.9010589   5.5510503
  99.4869904  92.5647449  61.0425663 100.1761715  93.1994915  60.8467245
  98.7593250  92.8184509  60.4747915   9.7540355  70.0110245  57.3274899
  10.6696129  70.2876568  57.2897339   9.4717395  69.9917889  56.4130688
  91.8997173  21.8652064   3.4189397  92.2916715  22.2854287   2.6534254
  92.2861664  22.3211772   4.1665918  40.1289892  66.4933348  64.9738264
  40.0545788  66.5855694  65.9236622  40.3534698  65.5725861  64.8394489
  18.5529061  20.2690547  85.6775951  19.2005166  20.8081286  85.2234745
  19.0357693  19.8762839  86.4047909  99.2798547  58.2903004  85.7964325
  98.4108375  58.4618187  85.4336357  99.6363829  57.5937939  85.2450752
 105.5195485  75.2135611  83.0599117 105.8869783  74.7610807  83.8191891
 106.2502609  75.7211256  82.7068329   8.3314723  82.0676517  61.7241478
   8.8475347  82.5282860  62.3857594   8.6958653  82.3611164  60.8890867
  72.5667199  12.0127910  68.2479572  73.0908378  11.3010638  67.8805542
  72.0046147  11.5868800  68.8951588  28.3420253  93.1764412  69.6986389
  28.4498477  93.5083675  70.5899477  27.5823760  93.6484718  69.3575335
  26.5661907  57.7516556  59.8373222  27.1332622  58.4988356  59.6465826
  26.9982529  57.0091391  59.4151545  42.5174236  98.8699722  79.7711611
  42.4648380  99.8185539  79.8880100  43.0922174  98.7533283  79.0146971
  51.9139910  72.7008772  54.1870737  51.5482521  72.3884726  55.0146437
  52.7956152  72.3291254  54.1593361   3.1197503  78.8240576  52.4621487
   3.4948596  79.6800947  52.6688528   2.8627998  78.4638786  53.3109617
  39.8122334  68.6282396  51.6096544  39.9625778  67.7186537  51.8670940
  39.9040341  69.1254950  52.4223900   9.1235250  76.8411875  58.9145327
   8.8689184  76.6374207  59.8144722   8.5406578  76.3078499  58.3741188
  22.5918055  59.2776871  45.2966166  22.0254636  58.9541006  45.9971714
  22.8814769  58.4884453  44.8389912  12.3321092  65.5097914  68.4695864
  12.7285480  66.3059950  68.1158495  11.5428340  65.3811264  67.9435444
  31.2576056  98.2310009  61.7622852  32.0720601  98.3530903  61.2744427
  30.8981848  99.1135025  61.8530464  13.4660935  89.8891830  61.2946796
  12.6396632  89.6387386  61.7076254  13.4151042  89.5194817  60.4132318
   1.5392439  58.2414150  38.8887739   1.2243419  58.5920858  39.7218990
   0.7671154  58.2383060  38.3230543  34.8672581  51.2157011  68.3134794
  35.0171924  51.5289116  67.4214840  35.4849100  50.4922867  68.4203005
 107.1450083  14.1489465  17.9420454 107.1254818  15.1050908  17.9824525
 106.2269155  13.8874442  18.0124647  42.3698807  65.7737827  56.7461061
  42.1521378  65.1601171  57.4477053  41.6268492  65.7235146  56.1447668
  30.3901029 101.5646935  73.1841087  31.0678673 102.0346737  72.6983261
  29.6072197 101.6423035  72.6388550  83.7275021  47.0075328   8.5963899
  82.9950420  47.2439582   9.1654569  84.4845561  47.4445922   8.9863664
  58.2738217  11.2047713  80.3392029  58.3925160  10.5022281  80.9784126
  57.3710092  11.4956325  80.4678726   5.5199277  75.0492001  69.8640823
   5.0946099  75.9059572  69.9002695   5.7336360  74.9267673  68.9391136
  57.2450447  83.3875561  69.1297770  56.3045835  83.2897186  68.9808273
  57.4148846  82.8851604  69.9266291  65.4120044  41.7662436  18.5186178
  65.2357183  40.9249312  18.9397413  66.3668088  41.8329532  18.5071737
  24.6175241  99.5466042  64.5442963  24.8301888 100.3077984  64.0043020
  24.8057985  98.7945461  63.9828825  28.8404155  74.6603251  48.5719967
  29.4260907  74.8497438  49.3050289  28.0605865  75.1873732  48.7461090
   4.5777670  98.1487465  77.4295235   4.3175203  97.8356457  78.2958221
   5.3461593  97.6235771  77.2059059  77.6837071   4.5158141  68.5056400
  77.3987635   4.0058463  69.2639112  78.6368426   4.4277900  68.5022688
   6.7640066  36.7418391   7.6352293   6.2219000  36.1438949   7.1206361
   6.8275118  36.3272292   8.4956342   5.5598235  77.6877451  77.7381277
   5.8597010  76.8986225  78.1893396   6.2136686  77.8361177  77.0549726
  11.0806334  59.3131638  75.0623178  10.4441512  59.0089655  75.7093000
  10.6291115  60.0152540  74.5938778  33.3512831  78.9148521  78.9417791
  32.5765967  79.0338802  79.4912577  33.7351227  79.7892714  78.8762903
  58.1798744  79.7120523  53.3418131  59.0749884  79.9602365  53.5729218
  57.7540159  79.5418358  54.1819906  10.8403301  45.0507838  23.9482194
  11.5148020  44.5681960  24.4261533  10.0254393  44.5943553  24.1576273
  90.8513038   3.3619553   0.9218198  90.0591545   3.4901149   1.4436513
  90.5420272   3.3495147   0.0160486 107.4761041  97.5318813  52.2870779
 107.1282963  98.0667019  53.0006838 107.7867921  98.1666565  51.6415024
  53.3213004  14.9863189  67.9799366  54.1780694  15.0449317  68.4027195
  52.7042898  15.2893870  68.6460257   1.9310567  47.7909088  60.8429289
   2.6691762  48.1678867  61.3217831   1.3528009  47.4488974  61.5247488
  34.8658204  88.2052422  37.2943592  34.1919017  88.8429832  37.5296330
  34.3790603  87.4068260  37.0898557  10.3872633  60.1653010   1.6306097
  11.2771607  60.0109298   1.3136083  10.0701666  60.9002787   1.1057455
  33.6438680  65.3700781  71.2298441  33.4921908  66.3147020  71.2601709
  34.5956516  65.2787685  71.2745810  39.7762728  77.2812748  53.1944323
  39.0029550  77.0523167  53.7099838  39.4241357  77.6051283  52.3653650
  84.4661713  55.6243753  71.3004684  84.2169762  54.7283602  71.0739899
  84.1699696  56.1503839  70.5576277  88.0497559  23.0855315  42.3826981
  88.3103665  23.3319896  41.4952469  88.0160483  22.1290820  42.3655128
  34.6903014  34.9000812  68.5682249  34.5584631  33.9834023  68.8101959
  34.0396667  35.0635242  67.8854418  50.5379915  71.8632603  68.3026743
  51.1067295  71.1123753  68.1325531  50.3982687  72.2577858  67.4418259
  25.3606439  76.6334248  55.2707911  25.3463411  77.4547958  55.7620859
  26.2886858  76.4723778  55.1004028  38.1117988  42.8774118  79.8976612
  38.0106544  43.5187101  80.6010342  37.2435856  42.8206205  79.4986486
  20.8161592  56.4959383  47.9102993  21.3513851  56.3439035  48.6891747
  19.9626780  56.7599249  48.2539701  37.7953053  77.9397964  60.4901981
  36.8738794  77.8964901  60.7458019  37.9187822  78.8406086  60.1910019
  70.8860334 100.1189627   3.2378179  70.7592519  99.5371975   3.9872915
  71.6567977 100.6387533   3.4657842  28.4016180  71.7797327  57.5695944
  28.7571812  71.4169693  58.3808947  29.0586638  71.5707827  56.9056177
  59.7492409  75.6945753  68.9349842  59.6164751  74.9190950  68.3897877
  60.5041409  75.4766321  69.4816637  26.5676689  95.3442383  87.2476387
  26.0894108  96.1260605  87.5237751  27.4723005  95.5108547  87.5124264
  86.9117737  84.2706776  71.4041948  87.5675106  83.7385082  71.8547869
  86.7087841  84.9737740  72.0211935  45.9296608  85.0754070  60.6256151
  46.8800545  85.0067616  60.5346680  45.5815744  84.5605946  59.8975754
  84.0296610   3.9538806  69.3863583  83.5834702   3.3111518  68.8349438
  83.4559878   4.0574878  70.1455641   9.5644200  45.4634237  60.9176207
   9.6180832  44.8148680  61.6195631   8.6672401  45.3903675  60.5921030
  53.5537672  69.7154188  63.2703543  52.8480816  69.0838385  63.4094572
  53.3032513  70.4743481  63.7971401  10.8884633  74.9358702  27.3021245
  10.4377162  74.0917444  27.2795177  11.6031539  74.8091221  27.9261303
  14.0357542   8.7874181  36.8144781  14.5705080   9.3137271  37.4088460
  14.4656706   7.9323346  36.7991239  73.7531122   2.2382491  63.6246490
  74.5050081   2.1866744  63.0345440  72.9918130   2.2201484  63.0447149
  24.8212052  61.5518004  27.1227151  25.1364803  61.7866523  27.9954607
  24.3461609  62.3268897  26.8230611  46.1425829  83.0007267  64.8647308
  45.2948761  82.5563335  64.8530817  46.6683102  82.5307369  64.2174673
  17.9677391  80.5135066   3.2598478  17.3492956  80.8420760   2.6073152
  17.6191330  79.6581180   3.5108644  83.4312399   5.7704966  40.2027130
  83.5560282   5.8613437  41.1473846  84.3143185   5.8277934  39.8378611
  36.4326239  46.2869079  13.3640272  36.2373495  45.4928977  12.8663904
  35.6686449  46.8477351  13.2296735  47.5996065 100.4672241  81.1057186
  48.0880976 100.8932209  81.8100834  46.9595480 101.1224651  80.8278370
  57.0562967   3.7584060  79.0413332  57.4847158   3.1279033  78.4624147
  57.3497661   3.5152190  79.9193811  46.6340542   0.4455621  20.0141317
  45.7674694   0.0686843  20.1665098  46.6352368   1.2566573  20.5224210
  26.5677571  72.7193451  73.0670309  26.5816593  73.2949162  72.3023415
  27.4550438  72.3634720  73.1151104  63.8140535  60.4569626  48.9426470
  63.7916517  59.9740696  49.7688103  63.0775881  60.1075029  48.4409189
  70.9958156   1.4206069  31.6177702  70.8893450   2.1092265  30.9614921
  71.8125661   1.6408580  32.0657015  70.4145002  73.4324741  62.1513700
  70.4892826  74.2965460  61.7463827  70.6044054  73.5846138  63.0771255
  42.0182800  52.7190685  56.3857269  41.3958216  52.0040226  56.2534904
  42.0729685  53.1498432  55.5326843  49.0327692  83.2708359  62.8279972
  48.5289192  82.5422955  63.1907558  49.9417448  83.0660248  63.0471849
  11.6152239  47.2444541   1.4764577  11.4819193  47.1908194   2.4228078
  12.1340037  48.0392463   1.3523180  94.6299561   3.3832686  54.8175621
  95.2221926   3.9228671  54.2938042  95.0688704   2.5347369  54.8773813
  66.9276667  61.9404554  75.7187557  67.0370388  62.8071404  75.3274441
  66.1514091  62.0239353  76.2725496  39.0817475  86.6211510  68.9643669
  39.4177604  85.8746052  68.4683895  39.3141913  87.3842907  68.4353924
  39.2243147  26.8596227   7.3922044  38.6122418  27.5908191   7.4755937
  39.8097849  26.9504315   8.1440050   3.3239385  92.7432346  58.8597393
   2.5030473  93.1223202  59.1738415   3.1904116  92.6289463  57.9188108
  53.8472939  76.0624743  71.7402601  53.8046408  75.1470995  72.0168495
  53.9928961  76.5509558  72.5504589  68.4681034  85.5611229  18.1768680
  67.9868078  85.2420616  18.9402699  69.1621161  86.1092091  18.5431755
  13.7448406  34.2001826  25.9543401  14.4201660  34.6542270  26.4583379
  13.3411646  33.5998828  26.5811712  83.2910355   8.4110873  81.2383747
  84.0404995   8.0786078  81.7323303  83.4991034   9.3315547  81.0781097
  13.2774353  53.6562640   7.3380357  14.0784216  53.6596114   7.8620988
  13.5773230  53.8050086   6.4412767  69.0082693  60.5340910  78.5834074
  69.2277145  60.8180094  79.4707966  69.0661955  61.3306856  78.0558586
  63.8547739  11.1782210  79.8476791  64.0257534  11.5371650  78.9769554
  64.6546777  11.3574164  80.3419209  53.8229942  42.8472812  18.4260065
  53.7513161  41.8947322  18.3647996  54.2279911  43.0026538  19.2792779
  41.3825989  35.1231963  25.8953458  41.7108679  35.9795100  25.6210977
  41.5034390  35.1132304  26.8448335  29.7804093 101.7952061  87.7680874
  29.8617125 102.1299267  86.8750095  29.6783376 100.8495045  87.6610565
  87.5110380  43.9181620  29.2211038  86.8362920  43.4596545  29.7218305
  87.8123395  43.2745082  28.5798914  46.2662077 101.7843342  69.9855042
  45.9421539 101.1020374  69.3975401  46.9011450 101.3368130  70.5448008
  53.6256882   6.6217559  83.5654354  53.0781253   6.9366782  84.2846203
  54.2419704   7.3359626  83.4031391  40.1021242  97.3796844  72.5445318
  41.0561180  97.3014545  72.5474072  39.9362731  98.2771873  72.2560787
  72.0133658  46.2845713  14.7701532  72.4388699  47.0226104  15.2065736
  71.5773476  45.8077151  15.4763586  92.2334759  59.6367366  -0.0037116
  91.9228308  59.6370990   0.9016782  91.8142681  58.8731391  -0.4004591
 104.3254002   9.5785182  83.1875229 104.2175492   9.1207354  82.3538399
 104.4517239  10.4952376  82.9427910  97.5188868  34.2473704   9.6351797
  97.9738967  34.3754012  10.4675275  96.6438786  34.6062285   9.7828752
  32.2483921  48.0069644  28.8477880  32.9508019  47.8778178  28.2104665
  32.6719952  48.4459216  29.5854265  55.0241137  69.0873098  61.0879850
  54.4763374  69.3170404  61.8385839  55.8258438  69.5952749  61.2121677
   2.4469495   4.3875796  47.0983964   2.2129941   4.4064290  46.1704237
   2.1133781   5.2145583  47.4463445  28.7619686  41.2452227   6.6034872
  28.4079504  41.9799334   7.1045858  29.7032547  41.2693221   6.7756349
  65.0422581   5.8479350  70.8025551  65.3440984   4.9572223  70.6243610
  65.8128603   6.2969249  71.1501360  73.9176591   2.6893180  74.3972635
  73.3082136   2.0136779  74.6944571  73.5764988   3.5012858  74.7721577
  49.0317631  68.7109423  62.0867252  48.4879446  68.5663605  61.3123894
  48.4280062  69.0620708  62.7412605  68.6667212   4.4169372  82.6875305
  67.8747042   4.9298041  82.8484821  68.5113748   3.9952605  81.8423748
  53.7073612  79.5276165  75.3759432  54.2352629  79.9837494  76.0312986
  53.2723904  80.2277088  74.8892212  86.3384656  32.8698165  15.8678419
  87.0361952  32.6314647  15.2574426  86.4396290  33.8137252  15.9904844
  50.5475378  75.0413895  48.5877180  49.7035313  74.9145269  48.1543732
  50.3990889  75.7676840  49.1932678  33.0691385  16.1225993  21.9839746
  33.3918524  16.0103948  22.8781206  32.6165915  15.3022296  21.7879564
  33.9829540  74.6036863  60.0340366  33.4136796  74.6492147  59.2658663
  34.3435526  73.7172651  60.0127220  70.2707291  85.0657558  84.2762375
  69.6021795  85.6972980  84.0108490  71.0551405  85.3314304  83.7963009
  11.9204652  89.6447945  25.7556319  10.9835863  89.4989014  25.6244588
  12.3439837  88.9510155  25.2501249  69.1485651  23.9791339  73.1612253
  68.2294973  24.2422622  73.1131363  69.1199382  23.0302279  73.2836628
  39.2442990  38.6995513   6.5293581  38.4750223  38.2427127   6.1891347
  39.7319317  38.0265719   7.0042783  60.7210064  56.0800886  77.6893139
  61.1799479  55.2977180  77.9951048  61.0660553  56.2316179  76.8094206
  88.8146631  86.3375664  55.8045578  89.7133140  86.3675499  56.1328220
  88.4737496  85.4991150  56.1160040  50.1157236  89.1215515  40.3401184
  49.3987656  89.1800404  40.9716129  49.8068333  88.4965134  39.6842670
  55.1066494  90.4009724  36.5244818  55.3831863  91.3077450  36.6568589
  54.5087576  90.4394627  35.7779717  57.5164270  94.5804501  79.7751093
  57.7479935  94.9405575  80.6312275  58.3550406  94.3379211  79.3824959
  53.3760643  90.4470062  69.3786287  52.6594639  91.0743523  69.4743013
  53.8549662  90.7464504  68.6058331  34.7543383  86.2120533  34.0054154
  34.8330021  87.1582603  34.1267991  34.1229057  86.1136723  33.2927823
  95.5359618  53.4447200   7.2107202  96.2010853  53.0999476   7.8065187
  95.0188343  54.0433699   7.7496416  50.7317734  77.9264355  40.9823656
  50.4232931  78.0102158  40.0801134  51.0528660  78.7995529  41.2077570
  56.7567682  78.9199018  55.8946037  57.0047665  78.2629490  56.5450954
  56.6851664  79.7344971  56.3921452   7.6486159  46.6595847   0.8474046
   7.3284674  47.0003421   1.6826421   6.8707466  46.2988574   0.4219324
   0.5293504  10.9956115  43.9568949   1.3660471  10.6578772  44.2764378
   0.6815616  11.1733478  43.0287409  28.1455851  78.9111525   9.6691114
  28.5125685  79.1489608  10.5205804  27.1978855  78.9575107   9.7953683
   4.8612177  68.6382771  84.2806530   4.4975480  68.0026293  83.6642647
   5.0596058  68.1255913  85.0642490  81.3086510 100.8086395  71.1367607
  80.4643345 101.1682892  70.8646870  81.6315365 101.4258480  71.7932892
  51.0427570  77.2576053  25.0329858  51.8451023  77.0454795  25.5099184
  50.7058811  78.0411441  25.4675085  11.8986941  74.9647338   0.3363592
  12.0783138  74.2324263  -0.2532977  12.1922350  74.6587951   1.1945325
  57.7330208  61.7626381  76.5442324  58.5450315  62.0822382  76.1508846
  57.1055698  62.4726963  76.4087200  75.8727026  74.8076725  68.4016466
  76.7212105  74.9553394  67.9839659  75.2315378  75.0609684  67.7375793
  94.1853142  80.7725811  41.9906521  94.9055672  80.2105999  41.7049170
  93.7928391  81.0908699  41.1777020  59.5000156   5.8787387  80.4606628
  58.7290748   6.4181655  80.6364346  59.8002966   5.6009143  81.3260460
  87.1072300  16.6849177  69.6256924  86.1811074  16.9265597  69.6139193
  87.3557766  16.6437381  68.7022448 108.1649057  45.7029158   0.9455377
 108.1180851  45.0436217   1.6379053 107.4642508  45.4633910   0.3389532
  45.0474453 101.8386555  80.9105778  44.7475863 102.1482277  81.7652607
  44.3676758 101.2282848  80.6249332  48.3551931  53.6338377  80.8984661
  47.7909136  52.8701735  81.0194778  47.7848053  54.2927933  80.5026627
 106.1283056  63.2870299   2.7853662 105.5587832  63.3166797   2.0165998
 106.3630478  64.2011744   2.9449445  15.5020785  84.6759987  37.8654742
  16.4586198  84.6866512  37.8993535  15.2967489  84.2700958  37.0232677
  51.9338799  87.3425388  83.7602806  52.5047016  87.7190781  83.0904865
  52.2140169  86.4297771  83.8281822   7.5606471  82.9538918  79.3646002
   8.0810905  83.3795547  78.6832952   6.6533071  83.1470013  79.1286469
   1.1484289  43.8478381   7.7624399   1.1022067  43.4107406   8.6127550
   1.8193984  43.3641822   7.2806722  48.4932280  88.2257748  80.1019669
  48.2608557  89.0843678  79.7483349  47.8429985  88.0643559  80.7856178
  53.5112763  76.6582305  34.9148065  53.0953312  76.4647681  34.0746862
  53.6176586  77.6094920  34.9159700  16.8881846  26.4861161   0.8831865
  16.3680077  26.6732365   0.1017553  16.5695000  27.1077735   1.5375692
  62.5256594  26.4469283  67.3603725  62.8109773  25.8540194  66.6651821
  62.5917252  27.3197024  66.9729042  37.7086282  58.4336948  53.6977911
  38.1459522  57.7089071  53.2509470  36.8195987  58.4323025  53.3430290
  74.9212512   5.2674525  76.1378813  75.8647545   5.1160186  76.1935520
  74.7739705   5.5296939  75.2291632  16.8484569  83.0742073  72.1112871
  16.8018568  82.1690083  72.4189758  17.7241611  83.3678246  72.3626137
  84.6767044  84.9732780  65.8935165  83.8586521  85.3141308  66.2552452
  84.6419048  84.0326405  66.0673761  22.4868011 101.3541698  65.7467651
  22.9218388 100.5258465  65.5446196  22.9973412 102.0137024  65.2770901
  91.9678935   7.1260779  63.8594818  92.2064026   6.3795703  63.3098698
  91.6204890   6.7327922  64.6600246  19.2736173  83.5650635  73.4755516
  19.7576165  83.0010223  74.0787363  19.5349824  84.4537354  73.7167501
  48.3622452   7.3701899  77.8954601  48.9383050   6.7998736  78.4045029
  48.9576312   7.9535811  77.4249220  40.8247185  78.3477497  68.5041285
  41.7098618  78.2414150  68.8526201  40.3180599  78.6939192  69.2387676
  56.9619417  78.0210543  60.4425192  56.6015053  77.1778536  60.7169867
  57.7783823  77.7983522  59.9952316  64.3839979  74.0192699  47.5473261
  64.3060875  74.3889093  48.4268332  65.1537895  73.4522200  47.5931692
   3.5719490  78.2604606  10.9632856   3.3503056  77.3491675  11.1547071
   2.7857304  78.6162764  10.5491716   7.1398544  51.5116031   2.0639211
   7.7996111  52.1947009   2.1836454   6.8908501  51.5780551   1.1420709
  18.2949615  77.9061127  88.0041409  19.0569663  78.3084154  87.5873280
  18.3945942  76.9697094  87.8325176  54.4956732  82.9755211  68.6156416
  53.8791752  82.2568893  68.7560797  54.0256548  83.5869598  68.0486679
  59.3861437  89.4863987  72.3695850  58.5018587  89.1593361  72.5348234
  59.9152136  89.1130543  73.0745173  76.0575390  83.3264351  51.1224747
  75.3604698  83.0883217  50.5112219  76.7281055  82.6555252  50.9941769
  26.9095206  87.6834583  82.4985409  26.8477225  88.2551098  83.2637978
  27.7998757  87.8149319  82.1726418  72.7056456 101.5682697  87.9785919
  71.7573833 101.6857719  87.9218102  72.8166914 100.6956100  88.3559036
  34.9015951  74.4842196  64.5861530  34.9790096  73.7529278  65.1988935
  35.7144547  74.4607115  64.0812397  47.4272442  96.2703705  76.1559200
  47.4377251  97.1844196  76.4398956  47.0403481  95.7954693  76.8914557
  29.4798660  63.0497980  67.0914507  28.8977861  63.7928534  67.2504473
  28.8930321  62.2970629  67.0189810  92.1619853   4.4582122  55.1510382
  92.0105322   5.2088969  54.5767927  93.0409010   4.1554969  54.9227524
  32.3916435  78.7207556  63.6653185  32.9833174  78.1224012  64.1215277
  32.0426798  78.2047319  62.9385614  96.8069132  33.9985698  83.6347866
  97.5131186  33.5856479  83.1377983  96.2100752  34.3365996  82.9671478
  39.7698116  82.2885418  64.2483711  39.4536543  81.7207050  64.9511099
  40.1572514  83.0373859  64.7015285  18.7448168  20.6791360  11.1386758
  18.2979059  20.3025777  11.8967706  18.5984945  21.6217381  11.2182123
 100.0778119  22.0127303  19.2564088 100.4241936  22.5732762  18.5621149
 100.1944272  22.5237281  20.0573617  89.9618626  90.6224632  75.2897024
  89.0818596  90.2751064  75.1441956  90.4419327  90.4004478  74.4919157
  75.4356241 101.0670757  79.2902613  76.2360048 101.3407612  79.7382784
  74.9412298 101.8773651  79.1667795  33.9886809  25.5506141   7.1994001
  34.1769791  24.7580010   7.7019388  34.8461247  25.9492213   7.0506078
  65.9564161  54.1875792  81.3842106  65.1820993  53.9406157  80.8785725
  66.4898062  54.6953917  80.7727814  23.6737132  87.1922779  83.0186367
  23.9622951  88.0487061  82.7032375  22.9887080  87.3905373  83.6571407
  83.9793881   9.0132277  85.4150486  84.8041972   9.3927234  85.1118851
  83.6563977   9.6333545  86.0687733  37.9459858  87.9715061  79.9710751
  38.3210611  87.5829983  80.7614040  37.1629333  88.4288883  80.2774525
  29.8895454  92.8170681  10.7193327  29.6740127  92.0697689  10.1613748
  30.7801151  93.0576801  10.4639423  34.1087270  74.8689175  42.0605564
  34.7444320  75.5481434  41.8352413  34.5908260  74.2689562  42.6296377
  98.7922232  32.2226340   6.8004114  99.2730252  31.9890315   7.5944501
  97.8740017  32.0679862   7.0221883  53.0231094  87.3790836  81.0515022
  52.4091434  87.9015446  80.5354500  52.6293087  86.5071583  81.0815239
  59.6571048   5.9016746  73.0981255  59.2353471   6.4960235  72.4775553
  60.4668506   6.3483947  73.3450747  28.0205727  69.3627501  67.9978704
  28.3273220  68.8360882  68.7359476  28.2742429  70.2583742  68.2209063
   3.2974911  25.6963784  16.3405878   3.5900140  24.8010117  16.1703569
   3.1106973  26.0562570  15.4735071  66.7469501  67.3829365  53.9114904
  66.1856985  67.1270275  54.6434355  67.6380014  67.2526169  54.2359543
  69.3580540   4.8911803  87.2275066  69.9443420   5.1023906  86.5009499
  69.8647626   4.2946380  87.7785206  99.5477971  15.6597465  70.3038740
  99.6400364  15.6249087  69.3517637  98.7000807  16.0805648  70.4471397
  27.1241554  14.2314291  10.5862791  26.7435440  14.3999243   9.7243196
  28.0474266  14.4650602  10.4902345  69.1676474  96.2930298  52.3271608
  70.0107193  96.7166042  52.1657562  68.5552931  97.0180988  52.4517965
  89.8530249  34.9200637  13.7807542  90.1793496  34.0231044  13.8529855
  90.4852454  35.3598983  13.2123548  18.7244928  89.6467400  69.8788691
  17.7766073  89.7690964  69.9315214  18.8442361  88.9999008  69.1835356
   4.1577578  44.4375903  12.7408773   4.6984148  43.6477858  12.7295095
   4.3158627  44.8237044  13.6023599 100.9828226  44.7839839   0.0730020
 101.6590230  45.3333098  -0.3235167 101.4118092  44.3849475   0.8299524
  25.7185030  62.4183471   7.2971326  25.8874464  62.0481784   6.4307195
  25.5490160  63.3459098   7.1323949  63.1992388  81.7708015  55.2348900
  63.7933493  81.1096096  54.8798084  62.3451090  81.3391972  55.2551317
  19.8718691  13.2063491   8.1902772  19.3013382  13.0822331   8.9487726
  20.6810761  13.5643823   8.5552770  93.2383593  94.2887224   6.7361242
  93.9477118  94.5907463   7.3034269  93.1059273  95.0056662   6.1158926
  21.9613004  91.4373016  76.2497377  22.4067020  90.8810329  76.8888092
  21.4477801  90.8284187  75.7189035  35.0929189  73.4059954  55.8004427
  35.5006957  73.0162573  56.5737820  35.4945374  74.2718935  55.7286024
  67.9443630  16.5992015  59.3744183  68.7880763  16.3160460  59.7268438
  67.8177269  17.4776690  59.7328568  45.1784563  99.9975204  72.9225588
  46.1320686  99.9148655  72.9185915  44.8762274  99.3129826  72.3256540
  35.4621649  82.6802921  80.8173180  35.9201264  82.2146130  80.1175594
  35.8820224  83.5399628  80.8476257  52.4267912  70.1395464  60.4314661
  52.4852324  69.5005465  59.7211885  53.1543636  69.9185896  61.0128880
  49.0221214  32.4418361   7.0811063  49.9592590  32.5043685   6.8964559
  48.6558056  32.0011813   6.3143808  63.5450745  90.9918499  68.3400631
  63.3775997  90.3606987  67.6401806  63.2967710  90.5318165  69.1419029
  24.4937039  10.2581126  10.7326299  25.1199103  10.8381516  11.1658174
  24.3670607  10.6461913   9.8668367   7.7993671   7.1307033  68.0594969
   8.0757896   6.4239638  68.6428785   8.6172096   7.5278991  67.7601671
  69.2549467  77.0979452  49.5748377  69.0214634  76.5380669  50.3152800
  68.8074446  76.7038107  48.8260794  77.7323286  42.7151210  14.6775228
  78.2544546  43.2249648  15.2969343  76.8344639  42.7931888  14.9999696
  66.1922216  86.3303852  24.8089671  65.7476902  85.9621429  25.5725241
  66.5416336  87.1670914  25.1156616  45.7792616  94.2024708  77.9383230
  45.1080990  94.1935730  78.6207390  45.4008055  93.6906147  77.2234774
  12.8583694  50.5253553  71.3051748  12.2006309  50.1539230  71.8930912
  12.3735631  50.7394028  70.5080700  95.4735796  41.5577800  37.0182973
  94.8732321  40.9035022  37.3757059  95.8209650  41.1547667  36.2225992
   0.8896306  73.7604523  50.5962229   1.0706990  72.8823185  50.2610731
   1.2318015  73.7509203  51.4901257  63.9912661   0.2348369  71.7106867
  63.1999596   0.2995913  72.2453594  63.6702856   0.2162211  70.8091021
  28.5206127  80.9928417  51.3878632  29.0543127  80.3086281  50.9838104
  29.1255856  81.4591312  51.9647598  89.2671021   9.8970073  47.4816751
  89.0357598   9.2861598  46.7819786  88.6702832  10.6356948  47.3617744
  39.2533674  22.8061622  59.8739767  39.2214345  23.7412208  59.6718264
  39.6769374  22.4107306  59.1121006  42.7820778  97.4289989  67.4844599
  42.6308966  98.3657742  67.3586607  43.1526995  97.3622513  68.3644724
  60.9696770  24.4591689  84.7733212  61.3559484  23.9369798  85.4764175
  61.0423088  23.9053249  83.9960098  63.9967632  89.2941570  70.8707857
  63.8340044  89.2506313  71.8130398  64.7864914  88.7694073  70.7396460
  59.2364844   2.7450889  85.1489067  59.6290167   3.5701030  85.4344177
  59.9784263   2.2148459  84.8580647  61.3196190  35.1425021  80.4015923
  61.9909581  34.5283072  80.6987381  60.8745965  35.4172080  81.2032890
  18.9240408  41.4782054   0.9554273  19.7835255  41.4725978   0.5341417
  18.3998585  42.0758540   0.4222566  32.2645855  15.7964093   0.6646520
  32.1389961  14.9338347   1.0601503  33.2042647  15.9611613   0.7426816
  50.2166653  13.9174754  14.9825651  50.3121185  13.5194547  14.1172964
  49.4447518  14.4780928  14.9044973  84.2752032  40.4434687   2.3356420
  84.6578078  39.9831015   1.5887052  84.1406838  41.3379008   2.0223886
  52.1782780  64.1881752  78.3488417  52.6338482  64.6644163  77.6546669
  52.6982784  63.3946562  78.4759712  68.2138586  93.3442688  58.0405903
  68.7376785  94.1199875  57.8403282  68.8582420  92.6538467  58.1965351
  31.9876766  98.5898781  69.4499493  32.5583434  98.0233955  69.9692440
  31.1959434  98.0700588  69.3114614  10.3443519   5.1216453  87.6358700
   9.6375457   4.4992583  87.8070259  10.6836693   5.3431457  88.5030746
  67.3134565  91.0339928  56.0239410  66.4894533  90.8794785  55.5620098
  67.5544739  91.9304466  55.7904673  94.8488943  39.5993811  15.3834516
  94.0144507  39.5228965  15.8461458  95.3754823  38.8732440  15.7175905
  60.8589125 100.4129791  61.9609547  61.1713886 101.2693214  61.6689539
  60.7337332  99.9153996  61.1528826  80.0747021  89.8399295  32.2023183
  80.9853896  89.9221767  32.4853593  79.5798548  90.3639640  32.8321916
  66.8613958  88.4968662  70.2721691  67.6462173  88.2663918  70.7693243
  67.0590782  88.2289410  69.3747473  10.0002205  74.7331047  48.6894083
  10.7346845  75.2066517  48.2988358  10.1116192  74.8539448  49.6323919
 102.7436217   6.0753577  73.7993813 102.6669701   5.9930461  74.7499466
 103.6784037   6.2121337  73.6454201 105.1764965  88.3160877  65.8888578
 105.0580025  88.4533024  66.8287325 104.8543072  87.4281597  65.7339382
  71.1598762   3.2854884  68.8676167  72.0680507   3.1373065  68.6039972
  70.9405192   2.5265925  69.4081688  21.9376135  64.6213443  27.5487882
  21.5302038  65.3493602  27.0794851  21.2668753  63.9385516  27.5603754
  47.9962846  17.8152507  53.8094187  48.1240948  16.8666499  53.8157511
  48.3784016  18.1028884  52.9802704  20.6212235  52.8580100   4.1733820
  20.2244425  53.6859137   4.4442541  20.6279612  52.8972251   3.2170087
  47.6803827  93.2946968  64.2287636  48.5187054  93.7202072  64.4087172
  47.8468990  92.3641872  64.3792772  58.2214745  26.9527476  76.3954163
  58.1910666  27.8655665  76.1089325  58.6732658  26.9813388  77.2388029
  82.6631030  37.3251861  50.4897738  82.6514634  37.5426047  51.4218807
  81.7404469  37.2240203  50.2558899  81.6013297   3.3802646  71.1726141
  81.0155161   2.6774924  71.4539814  82.2575768   3.4374946  71.8670845
  12.9905510  55.2421195  13.7223703  12.7241707  54.7286898  12.9597074
  12.2535467  55.1700885  14.3288881  54.4441175 100.8353806  57.2339630
  55.0533867 100.8043766  57.9715681  54.3486404  99.9221230  56.9636297
  63.3168888  92.9590034  61.6968346  63.1961918  93.8004875  62.1368074
  63.7857628  92.4204922  62.3343277  27.8744936  55.3320987   3.2158643
  27.9266596  56.1023528   2.6499826  27.0998812  55.4845721   3.7571222
   5.1636887  42.7970416   8.1304533   4.7318602  41.9828803   8.3891088
   4.6915960  43.4802539   8.6064512  52.4294949  91.0197353  76.1407185
  51.8138218  91.6526413  76.5103340  52.2646379  90.2125359  76.6280413
  38.6986844  75.1605899  16.7167551  39.5864384  74.8272616  16.8472082
  38.1701581  74.6941954  17.3643476  94.6785355  84.3168926  82.7423191
  94.4554996  83.9229012  83.5856819  95.0984001  85.1466560  82.9691410
  26.6774511  34.7618014   7.8773290  27.4795199  34.2779643   8.0743581
  26.2259960  34.2227656   7.2278291  33.6831665  80.1599700   9.8801214
  34.0384245  80.4413325   9.0369970  32.7941036  79.8672969   9.6797544
  42.9384089  42.9661757  13.2944089  42.0953989  43.2510573  12.9416925
  43.1569243  42.1828944  12.7894861 100.3148953  41.2036902   3.0390531
 101.1504881  40.8729369   3.3686239  99.7964255  40.4173095   2.8687173
  75.4716349  94.1568756  81.6856480  75.6259775  93.2671070  82.0030308
  75.6172609  94.7128391  82.4511051   1.3114969  22.4737971  58.8793516
   1.6542808  21.6060679  58.6654139   0.5833427  22.3030799  59.4767427
  68.2896709  88.6444283  48.4934521  67.8352165  89.2892170  47.9512787
  67.6629019  88.4274197  49.1835976  55.2125692  86.5609741  85.1138783
  54.8332262  86.9092560  85.9207439  55.8754301  87.2045612  84.8635769
  58.5695219  83.4299088  55.8026600  58.1854391  83.6685658  54.9590015
  58.1983232  84.0589428  56.4213371  10.5751944  44.6665484   4.8766119
   9.8903990  44.6559913   4.2079050  11.3076973  44.1977507   4.4767267
  95.6392018  79.9081809   2.5173265  96.0839169  80.7526023   2.5908643
  94.8015396  80.1139647   2.1023542  12.9899550  59.7877986   0.8425218
  13.2582665  59.6327884   1.7481786  13.8118649  59.8383147   0.3545267
   0.4255343  50.1039893   3.7841493  -0.0040603  49.4545562   3.2274515
   1.0864449  49.6067626   4.2660123   4.6004486  58.4178645  18.7544233
   5.1231432  58.0141837  18.0615598   5.2035046  59.0210730  19.1888124
  77.3488863  14.4757503  72.1210575  77.3485621  15.3720229  72.4571085
  78.2570990  14.3166678  71.8640232 101.5664188  44.5148379   6.9483644
 101.7766540  43.9422709   7.6860696 100.7961575  45.0043303   7.2370321
  85.3472765   2.7827781  61.3539600  86.0356244   2.3327964  60.8641386
  85.2145155   3.6042064  60.8808231  36.9811344  37.3757083  32.1183473
  36.8423176  36.5883548  32.6446897  37.5606060  37.9206569  32.6507741
  60.7947620   3.2088416  70.9233570  60.8420595   2.4242251  71.4695883
  61.5043910   3.7661879  71.2427711  83.6794289  23.7628501  69.6340227
  84.3644436  24.4174045  69.7701550  82.8648337  24.2230266  69.8362637
  97.0644855  98.6463928  74.0720272  97.8528881  98.4794235  73.5555172
  97.2246361  99.4943523  74.4862270  41.0528279  31.8774230  21.7733079
  40.1754427  32.2533519  21.7018491  40.9568405  31.1633403  22.4034673
 108.1613819  42.9869849  16.4966375 108.2893602  42.1382815  16.9203741
 107.2174446  43.1384951  16.5441495  95.0426587  20.0208896  52.9535913
  94.6596154  19.9112170  52.0832586  94.6560582  19.3179458  53.4757376
  19.0363304   1.1797660  81.2342262  19.1568844   0.8817237  82.1358204
  18.1231205   1.4640468  81.1960220  28.4489775  38.6558635   1.4482957
  29.3102980  39.0350825   1.6230852  28.6146164  37.9762465   0.7949144
  50.1646328  94.2887974  64.7955704  51.1118031  94.1873741  64.8894596
  50.0346994  95.2302551  64.6815348  21.0592079  68.6942584   0.4985220
  20.1587868  68.9175422   0.7343656  21.5630007  68.8567263   1.2960321
  33.7401628  78.8302088  83.3538914  34.3274212  79.5844984  83.4029675
  34.2694139  78.0942154  83.6612034  39.4053173  58.9813525  13.7973768
  39.8115206  58.2550151  14.2703039  39.9326754  59.0754134  13.0041105
  31.1585093  78.7965018   9.7507459  30.8321524  78.8796241  10.6467420
  31.6167116  77.9561717   9.7397214  43.8634825  94.5511818  75.6108618
  43.0649996  94.3420410  75.1261759  43.5521889  94.9089241  76.4423370
  20.1598263  55.2316577  14.2969495  20.3994322  55.7495791  13.5284502
  19.9947548  54.3540294  13.9523393  99.6604737   1.1186927  75.0296974
  99.0503367   0.4131358  75.2445412  99.2064723   1.6329520  74.3621206
 100.3231303  36.1169631   2.6898271 100.7705657  36.8569095   2.2793371
 101.0192387  35.6322772   3.1333906  73.2977541  25.5607074  77.7269983
  73.2993253  25.1401275  76.8671465  73.2293948  26.4961570  77.5359440
  60.9795809 100.6126595  79.5827103  61.8250084 100.5062199  79.1466427
  60.3926659 100.0179386  79.1157293  41.7525673  35.2100379  28.5027296
  41.6069365  35.1522834  29.4470197  42.0496416  36.1088187  28.3607275
 100.6700516  81.7187786  77.0000076 100.2496624  80.9706974  76.5758848
 101.4330292  81.3460255  77.4417639  62.6916170  73.4296894  64.5561695
  61.7959261  73.1372595  64.7248459  62.7829981  74.2310762  65.0715923
  66.9082244  10.0443023  80.7815742  66.7454012   9.4576972  81.5202332
  67.3948344   9.5098536  80.1540375  50.9651947  76.7815924  61.0214186
  51.7372608  77.2874928  61.2748146  51.2704945  76.2189341  60.3097773
 101.4349024  57.1742827  12.7117521 101.8767445  56.4356429  13.1305868
 100.8398358  56.7704970  12.0800287  13.0999994  48.6771113   8.0827505
  12.5589371  48.0936057   7.5507719  12.8643274  48.4651191   8.9859373
  32.6402331  23.6102683   1.8578130  31.8073845  24.0537650   1.6968519
  32.9802895  23.4150082   0.9846193  98.0024966   2.2042697  66.8969059
  97.2891768   2.8343623  66.7949152  98.5956439   2.3942607  66.1700583
  51.1026382  92.0668697  70.0347376  50.2461243  91.9890881  69.6145391
  50.9075308  92.3669720  70.9224892  99.6874142  81.5754700  38.4129262
  98.8778877  82.0521641  38.5964084 100.3741646  82.2400761  38.4667635
  92.7819729  77.6065350  40.4901600  93.5456371  77.6830387  41.0621691
  93.1494808  77.5104380  39.6115637  16.9717781  25.2193397  62.0391607
  16.6804783  25.2893107  61.1300516  17.5021640  24.4227927  62.0600891
   0.6562893   8.0347960  58.2103109   0.1313249   8.8288920  58.1100655
   1.5479986   8.3084434  57.9953527   9.1497032  39.1118949  83.8659096
   9.0017883  38.5262912  84.6084881   8.3671753  39.0133040  83.3235455
  15.4563809  61.8833930   5.0287897  15.1595068  61.2299926   5.6621629
  16.3490200  61.6162211   4.8096067   9.3017093   1.3544314  77.3416138
   8.8418667   2.1931498  77.3779917   9.1182129   0.9438270  78.1865740
  77.7613266  24.9264090  81.1729908  77.7793702  24.5329993  82.0454216
  78.4847077  24.5077270  80.7064533  46.5451336  75.8193213  12.2107202
  46.5558911  76.4324099  11.4757139  45.7627392  75.2869136  12.0670682
  61.4615965  70.5405474  49.0658045  60.5696249  70.7759905  48.8104963
  61.4422655  70.5312586  50.0227642  89.5759209  24.2893832  71.8710327
  89.2245015  23.5449737  71.3825798  89.8578080  24.9070304  71.1962843
  16.2731218  78.1143195  31.2688333  16.5445662  77.6566417  32.0644933
  15.8675194  77.4359710  30.7288629  28.1150627  56.9537074  25.8295423
  28.8934374  57.4960620  25.7021982  28.1870461  56.6393096  26.7307645
  37.0096087  91.6467762  55.7194757  36.7775011  92.0043182  56.5765190
  36.2971425  91.0424519  55.5111361   0.6373525  79.5723349   4.5658666
   1.2381053  78.8718612   4.3115884   0.2897740  79.9023158   3.7372953
 107.1428212  23.1876510  51.6713810 107.3395260  24.0971702  51.4470768
 107.9779585  22.8290122  51.9716406  74.7988661  10.0168746  60.7542324
  75.4334124  10.0359099  61.4706278  74.6309193  10.9386676  60.5584717
  52.1688557  97.4562740  50.4998493  52.8445387  97.1914673  51.1240005
  52.1633196  96.7599487  49.8430920  25.6970167  73.5434443  15.1266653
  24.8465681  73.2286364  14.8202879  25.4847908  74.2353351  15.7531435
  84.8463210   1.9279998  86.7699623  85.1723011   2.0175116  87.6654816
  84.8126563   2.8246444  86.4365864  64.9821568  99.1470146  82.6933289
  64.3823051  99.2492676  81.9544411  64.5093250  99.5172691  83.4387016
  68.4965332  31.0227530  71.8203545  68.9765104  31.8508857  71.8139076
  67.8003081  31.1444133  71.1748266  78.2753523  17.5626224  70.7038450
  78.6188229  17.0576137  69.9667978  78.8343152  18.3386367  70.7436752
 101.5983192  36.5344245  14.7834474 102.5250737  36.3512713  14.9377615
 101.5212767  37.4829585  14.8862535 107.4098500  38.2793086  53.3425093
 108.2177218  38.2085650  53.8510132 107.6103886  37.8461593  52.5128078
  22.9192019  50.7775409   0.4437429  22.6747322  49.8525054   0.4156572
  22.9620314  51.0419661  -0.4752081  43.3807659  53.6094100   2.6219636
  43.4345055  52.6583011   2.7153665  42.8825474  53.8974196   3.3868581
  68.4232092  81.7744160  69.9171400  68.2444859  82.4354267  70.5859900
  68.9857244  81.1360073  70.3556061  65.4271317  80.1161861  79.6401691
  65.8062696  79.7403908  78.8456488  64.5172310  80.3007317  79.4072437
  89.2717509  69.2586619  15.1150304  89.8462598  68.4963328  15.0441724
  89.7696738  69.9717910  14.7153455  34.8696709  99.4672871  82.7235413
  35.3885794  98.6683846  82.8169060  34.4103193  99.3585873  81.8908310
  92.0938929   7.1535151  82.0569420  92.1760567   6.3198035  82.5199795
  91.8875321   7.7889007  82.7424622  53.9949676  13.8939994  49.2733002
  54.3957790  13.2850497  48.6530161  54.3248697  14.7537368  49.0120506
  11.2567282  63.0380542   8.6212141  11.8756914  63.5347087   8.0860025
  11.6212177  62.1534449   8.6502058  55.3581858  95.1715851  61.5604258
  56.1816263  95.3111458  62.0280790  55.6134653  94.7219658  60.7548761
  28.5208559  77.0344931   0.6211168  28.9044142  77.7816398   0.1618845
  29.0104628  76.9807631   1.4418680 101.5076693   4.6358340  71.8512678
 102.0353373   5.0653594  72.5245476 100.6045016   4.7451156  72.1488762
  17.1936083  55.5054767  23.8664896  16.8110609  56.3018042  24.2349321
  16.5072298  54.8448283  23.9595014 106.4184777  21.9814832   1.0875589
 106.8132011  21.1099631   1.0579759 105.6189363  21.8650014   1.6007787
  56.0659266  70.3398848  88.0621433  55.4754686  69.9022293  88.6753750
  56.0265255  69.8055124  87.2689724  33.7631941  46.9415767   9.8173124
  33.2691765  46.7248160   9.0266210  34.6428967  47.1475322   9.5011789
  62.4165734  14.2543834  61.2276220  62.6693877  14.8905890  61.8966150
  61.8926891  14.7576278  60.6043148  48.2021996  23.4013408  63.3893919
  48.1461700  22.4462073  63.3607817  48.2450458  23.6663859  62.4706173
  72.4600029  85.5518627  82.7189827  72.9239273  85.5555248  81.8817329
  73.1540680  85.5808926  83.3775234  23.3756344  16.2878745  85.7264614
  22.7397434  16.1325973  85.0280666  24.1755859  15.8596747  85.4215813
  16.1880636  84.5993049  24.3989450  15.9256363  84.6231658  23.4787351
  16.9289684  85.2029902  24.4524461  50.0334167  87.0719528  49.8694181
  50.1888657  86.5897369  49.0573025  50.9070873  87.2181702  50.2321243
  57.4298048  69.3937492  75.3634119  58.2689619  68.9724922  75.1774311
  57.0152426  68.8255262  76.0126400   4.4989205  36.6254050  28.5922414
   4.2181540  37.3145778  29.1942770   5.2782488  36.2512404  29.0031892
  70.8286333  69.3366671  73.4990501  70.7344437  68.4239197  73.2265520
  70.0341511  69.5201540  74.0004110   9.4346142  42.9152114  49.9820024
   8.9941740  42.8428466  49.1352350   8.7486267  42.7354819  50.6249219
  34.6764612  71.1687667  17.1398908  34.5280886  70.9401709  16.2223035
  35.6289435  71.2096793  17.2255308  10.3115750  52.1338088   5.4296857
  10.7308674  52.9162032   5.0715047   9.7435951  52.4638945   6.1258775
  33.6430979  26.6537148  13.5052568  33.5793018  27.5118882  13.9244253
  34.5059014  26.6531569  13.0907613  44.0843125  27.0898192  75.7111549
  44.2913570  27.9251330  76.1302233  44.7432484  26.9972365  75.0230694
 100.0957744  78.7403399  35.9625799  99.4657533  78.9121920  35.2627450
 100.8730380  79.2402465  35.7132036   2.1791546   6.9966357  68.9310169
   1.7244331   7.6814120  68.4405661   2.9992716   6.8655913  68.4551287
  63.1347760   1.3129657  81.5422535  63.7654503   2.0329707  81.5337181
  62.7156933   1.3718169  82.4008179  27.5868941  87.7340228  26.2786180
  26.9525242  87.6293094  25.5695039  27.0538426  87.7764995  27.0725137
  19.1136599  92.6797485  70.5580378  19.1473961  91.7438984  70.3598404
  18.2305837  92.9469013  70.3030109   5.8424616  54.3520934  10.1912290
   5.7764530  53.4259707  10.4239923   5.5515051  54.3914039   9.2801744
  79.3004274  74.6337938  62.1372843  79.4341469  74.5720053  63.0830812
  79.0112686  73.7587500  61.8786001  70.9956439   2.8291552  82.8245831
  70.2994164   3.4860461  82.8241062  70.6753906   2.1411365  83.4079266
  45.7064438  87.3298645  70.8305836  46.0278273  86.7775822  71.5432692
  45.8599901  88.2248783  71.1332369  14.6169186  86.1857993   1.1976415
  15.5566597  86.2592513   1.0311491  14.3659973  87.0447833   1.5373498
  11.5156460  33.1404693  38.5739118  11.6242123  33.2451541  39.5191556
  10.5677700  33.1156356  38.4429819  75.6578970  64.3433952  68.2561588
  74.9474239  63.8438988  67.8537178  75.2193069  65.0712061  68.6967993
  53.0614710  95.7804108  62.9805899  52.6627779  95.0049210  62.5857401
  53.9081240  95.8640957  62.5419474  22.7032995  15.9155232   4.0811521
  23.1723929  16.6331202   3.6554319  22.1146202  16.3478906   4.6998197
  19.9698687  79.8903853  20.3593523  20.8501005  79.9394996  19.9865133
  19.5444966  80.6999308  20.0766450  11.5088415  16.7303378   9.8954851
  12.0180798  16.0443313   9.4638616  10.9261608  16.2579018  10.4900629
  28.3337832  28.5436732  16.1680299  28.0914688  29.3688685  15.7478220
  27.7454758  28.4760434  16.9200593  75.9059095  69.0372896  69.4107676
  75.8315039  69.4024467  70.2924442  76.7215443  69.4028139  69.0681839
  48.2385206  98.3216286  83.1152630  48.4878016  99.2150307  82.8787708
  48.9953518  97.9798508  83.5913181  25.7136059  38.3721167  24.0096933
  25.9552097  38.3290488  23.0844862  24.7694159  38.2150657  24.0182382
  13.3407545  33.2233436   9.7260648  13.4738922  34.1662413   9.6289045
  13.6026716  33.0360991  10.6274873  91.2524184   7.0230239  60.5292177
  91.7036637   6.2585299  60.8872032  91.4196404   7.7191394  61.1645889
  79.8830136   2.5543445  85.4580116  79.0746745   3.0557769  85.5647278
  79.9712237   2.0652335  86.2760639  96.6903512  34.3227965  19.5307523
  95.9452979  33.7561137  19.3307478  97.3301904  33.7412078  19.9413473
  69.2066336  98.7991238  82.9192543  69.5700026  99.3569851  83.6069965
  68.5748339  99.3578053  82.4665451  86.6938210  52.6586866  80.9455299
  86.5656853  52.3115110  81.8282986  86.1948395  52.0681524  80.3811550
  53.9819050 100.6983471  80.0760651  53.1553411 100.2933216  80.3386879
  53.7562132 101.6121387  79.9020720  46.6085529  47.2117240  24.7640306
  45.7143498  46.8702704  24.7707159  46.7272377  47.5894172  25.6355268
  25.6864929  16.8712432   2.5979024  25.8645487  17.5834615   1.9836790
  25.2565766  16.1999041   2.0680791  46.1312103  80.9220607  15.0329286
  46.4837170  80.0641353  15.2694112  45.1825524  80.8209521  15.1107484
 105.3049811   4.1937869  69.2182875 105.3073224   4.8075335  69.9528265
 104.7580441   3.4666293  69.5154905  75.3873913  59.7905833   5.4279119
  75.9495736  59.8511798   4.6555692  75.6978194  59.0116698   5.8895952
  74.2611504  83.4374809  53.5021400  74.7953224  83.3333015  52.7147102
  74.0550852  82.5424957  53.7719059  11.8818903  41.9586188   7.8344614
  11.0161734  42.3627860   7.8929311  12.0722532  41.9347865   6.8966848
  11.4852619  48.6606700  41.1094743  12.2840834  48.8389880  40.6131727
  10.7878971  48.6745078  40.4539377  20.3359175  20.4887969  19.0444643
  20.7483339  21.1119038  19.6426946  19.8938179  21.0363776  18.3956701
  83.4484005  92.4969959  84.9245548  82.8767395  92.3559380  85.6792259
  82.9574871  93.0946636  84.3606091   8.6882973  84.3738658  24.7136480
   8.0724716  84.1603667  25.4146558   9.2393398  85.0648982  25.0811559
  94.4288103  55.8848578  11.9150907  94.9110739  56.7038447  11.8014127
  93.5090415  56.1339671  11.8245012  10.5535825   0.2351618  18.2040292
  10.6528588  -0.5009031  18.8078481  11.4465889   0.5473757  18.0581266
  54.0967655  29.4565780  25.2920896  54.9848461  29.1155631  25.1859552
  53.6390591  29.1844565  24.4966680  78.6376723  21.4216655  78.9518738
  78.2491501  21.1624854  79.7874022  78.6016234  22.3781722  78.9574242
  66.0275698  74.6611404  86.8261528  65.6588554  75.0733948  86.0449123
  65.3378105  74.0738249  87.1352291  83.5387187  33.6742408  10.8326131
  83.3716707  33.1510550  10.0486452  84.1144590  33.1275088  11.3672430
  23.0642414  90.2855682  85.9384346  23.0766749  90.0440884  86.8645954
  22.1356916  90.3891850  85.7303810  59.6315917  20.8854907  53.8857698
  59.6616276  20.2562564  54.6064615  58.7262972  21.1962836  53.8767338
  22.6203346  38.7621219  31.9877416  21.9047117  39.3428523  31.7291338
  23.2523394  39.3378646  32.4182397  14.9861956  60.9958751  19.9053461
  14.9237347  60.3984267  19.1601068  14.4324017  60.5989081  20.5776292
  12.3374987  45.4899222  40.1443750  11.9258213  45.9086711  39.3884641
  11.6786766  44.8741633  40.4653627  63.3199453  60.3378677  76.3211155
  63.4941196  59.7824574  77.0809937  64.0938711  60.2355337  75.7672167
  34.0324531  12.8808444  86.5733337  34.2733242  11.9576209  86.4966679
  34.0058470  13.1972068  85.6703186  27.2069454  95.3608608  67.4139643
  26.7599726  95.5325794  66.5851307  28.1356907  95.4776669  67.2139168
  49.3387365  86.7784405  70.4742861  49.1136742  87.7008915  70.3532410
  50.2166796  86.7941093  70.8553362  61.9752789  84.4918728  52.5671005
  62.8941011  84.5814323  52.8200436  61.4890957  84.6190834  53.3817625
  29.1884518  75.8660418  13.0368024  29.1992808  75.9432990  12.0827943
  30.1101637  75.9104449  13.2911760  56.9467735  25.0195462   6.3480169
  57.3359013  24.1669232   6.1534864  57.4835014  25.6445844   5.8606988
  37.0378924  24.0421159   0.6150228  36.5445614  24.3251521   1.3849241
  37.1012688  23.0914885   0.7073385  37.5254822  73.4525973  41.6243249
  36.8318510  73.5038096  40.9666902  37.9572678  74.3059260  41.5839750
 106.0688822  41.1928565  36.4055711 105.5129973  41.5779120  35.7281095
 106.0000197  41.7976958  37.1442586  96.8211842  80.3689575  78.1434774
  96.6575527  80.9360313  77.3898935  96.6650677  79.4834471  77.8152561
  61.2831887  12.7103179  80.8349609  61.4786323  12.6818126  79.8983622
  62.0757016  12.3764174  81.2552834   3.4320152  92.5602436  79.3960762
   2.7048534  93.1336880  79.1539431   4.1853154  92.9169369  78.9253950
   7.3106758  17.0254748  71.9530535   6.5006582  16.5459483  72.1267176
   7.8146640  16.9455283  72.7628899  97.5494631   3.5362380  83.8228703
  96.9302805   4.2380088  84.0237522  97.0849617   2.7327006  84.0569592
   7.5397913  11.5643828  72.5145006   7.0332042  10.9288638  73.0201864
   7.1173422  11.5785068  71.6556835 100.1932581  33.1142180  43.3423996
 100.3950175  32.2901385  42.8992033 100.0004729  33.7269061  42.6326895
  46.1580133  97.1580887  79.7682858  45.6192493  97.9135227  79.5331526
  45.5932426  96.4020061  79.6082592  24.7230292  34.4819171   0.4111082
  25.5027723  34.1758639   0.8743173  25.0383806  35.1959903  -0.1428717
  99.6772003  28.9104056  75.1074076  98.8710594  28.5327029  74.7556829
 100.3713989  28.5488844  74.5563841  54.5308503  21.0544436  75.8647633
  55.2392503  21.4978164  75.3980494  54.8238810  20.1461356  75.9378815
  26.1390877  49.0335090  17.4038011  25.3660822  48.4922702  17.2432977
  25.7865906  49.8985202  17.6128942  16.1714411  28.5447699   8.1878072
  16.1378241  29.4941813   8.0706865  16.8963623  28.4040934   8.7968523
  13.8615799  29.9488074   9.7962743  13.7766695  30.0965125  10.7381898
  14.6182823  30.4753024   9.5385248  49.0291023  74.2950678  59.9967575
  49.6074057  74.6765852  60.6572437  49.3553686  74.6391153  59.1652441
  97.9057940  20.7260268  67.2377872  97.9305848  19.9742549  67.8297710
  98.8000163  20.7975429  66.9038820  44.8357582  75.4524231  67.6559353
  45.4922724  75.9629583  67.1820450  44.2808867  75.0805092  66.9703484
  10.4280996  77.0247943   8.6942464  10.6537771  76.1005980   8.5885793
   9.7090435  77.0250422   9.3260557  40.6556749  74.4062049   3.1334764
  40.2843332  73.7001140   3.6624128  41.5374327  74.1040332   2.9156953
  68.5588026  91.4104843  67.4400139  68.3213425  90.4899216  67.3286724
  68.1026459  91.8630028  66.7305183  42.5345850  25.9949214  29.7091753
  42.2403956  26.3944823  28.8906175  41.7515421  25.5757481  30.0660688
  44.5961714  83.8924408  41.0514832  45.4839849  83.5351467  41.0325146
  44.2558193  83.6427784  41.9105864   9.1787998  19.4851630  64.3247128
  10.1208488  19.4504970  64.1586590   8.9475528  20.4057639  64.2012310
  74.3732985   7.3965209  57.0879316  74.1107901   6.4849132  56.9602871
  74.9164351   7.3812621  57.8759670  33.1662130  92.4808979  72.5039101
  33.2364726  91.8352222  71.8007755  33.2320142  91.9667816  73.3086395
  95.3493023  73.1586790  83.7348938  94.4808769  73.3616495  84.0825558
  95.2032280  73.0021811  82.8019428  90.0331764  79.1333300   5.9054262
  89.1651682  79.4044501   5.6066209  90.5170338  79.9525363   6.0104066
  46.4214420  93.5497195  16.6786176  45.6664658  94.0517623  16.9855386
  47.1690369  94.1303069  16.8209249  29.4984961  16.3393075   0.2351839
  30.4359102  16.2030274   0.3727323  29.2175055  16.8530232   0.9924013
  12.9314566  38.3880717   1.6072256  13.6335707  38.7720019   2.1324522
  13.1303692  38.6549289   0.7097513  32.8655529  70.3702361  28.3316499
  33.2139969  69.6366984  27.8249628  31.9907904  70.5160720  27.9714281
  29.6757269  65.5996520  19.8913843  29.9023628  66.5230758  20.0016576
  30.1103687  65.3417880  19.0784723  87.5815201  95.2904129  86.5982246
  87.2194958  96.1764336  86.6097164  87.1687031  94.8727894  85.8423138
  22.7308361   6.2287467  84.2343807  21.9169513   6.6037696  84.5708179
  22.5951187   5.2822917  84.2796612  11.5302650  30.4611056  85.6542015
  10.7677643  29.9328940  85.8904648  11.2676708  30.9163802  84.8542023
  47.4862957  78.8864715  16.2480051  48.4220123  78.7574489  16.4030057
  47.2659683  78.2492263  15.5685789  10.1620571  13.0356067  67.5115681
   9.6088878  13.8113826  67.4198055   9.9208156  12.6686709  68.3620930
   1.6254544  42.9332168  13.4092409   2.5388312  42.7854068  13.1640226
   1.3658953  42.1304042  13.8612920 100.1162680  34.2426818  84.8969269
  99.4634350  34.8335975  84.5216084 100.4757365  34.7248118  85.6416130
  48.1318331  92.1529675  37.6172376  47.6595259  91.3259506  37.7131844
  48.6394644  92.0469284  36.8126893 104.0694197   7.9890483  60.9889698
 103.7091883   7.9047053  61.8717766 103.5192784   8.6495536  60.5678988
 100.5732767  72.6418216  14.3099863 100.6265871  72.3369033  13.4042245
 101.4552419  72.9559142  14.5092660  33.8256169  48.1151969  12.4139291
  34.3832398  47.7036483  11.7536909  33.0184508  48.3292205  11.9460470
   8.8432884  60.1086528  53.7684709   9.3265534  59.8758036  52.9757101
   9.3442679  59.7101313  54.4801122  74.5155573  56.9471502  78.8199282
  74.4055891  57.0154238  79.7683382  73.8461542  57.5282526  78.4587479
  98.7948616  29.2691176  85.1247978  98.9186629  30.1506560  85.4766560
  99.3704661  29.2331355  84.3608570 101.7868423  90.1543808  75.3684902
 102.3615456  89.8471737  74.6673727 102.3401451  90.1531315  76.1495733
  13.8522617  18.9880984  78.3593702  14.5957653  19.5499747  78.5778189
  13.8996402  18.2713931  78.9920759  16.0654537   0.5818789  48.2617664
  16.6670887   1.0530036  48.8382244  15.2394859   1.0599845  48.3353519
   7.0716828  89.5630646  86.4531994   6.2170118  89.9812031  86.5577507
   7.3577195  89.8187160  85.5762386   8.9091587  62.4475963  20.6717760
   8.0281258  62.8085334  20.5731279   9.4859886  63.2106311  20.6358892
  66.6042519  63.4778983   2.2712690  67.2206021  63.8270575   1.6275102
  66.9543648  62.6155478   2.4948865  55.0747204 100.6433296  53.2873726
  54.3774462 100.7655525  52.6430845  54.8836660 101.2847900  53.9716673
  28.1820631  73.2814032   1.8853075  27.7124405  74.1123969   1.8136579
  28.3495474  73.1809718   2.8223783  23.7481117  43.9830119  12.2351152
  23.3916426  44.6271808  12.8468496  23.9011812  44.4768340  11.4295465
  55.6453228  62.9621512  18.9042264  56.4428139  63.3894355  19.2167646
  55.9514141  62.3299987  18.2538969  53.2660198  55.1609427   4.4424898
  54.2055988  55.0649650   4.5981008  53.1751061  55.1163298   3.4906656
  70.6993103  69.8668528  69.8834324  69.8193836  69.5455313  70.0802088
  70.5729485  70.4861832  69.1646147  39.4420314  91.4398766  58.0790901
  39.6396661  92.1586132  57.4786043  38.5525203  91.6197777  58.3834553
 101.4988335  16.4808124  63.3670568 101.7561205  15.9203284  64.0991020
 101.0717782  15.8871692  62.7494478   8.9604465  14.5289557  84.5398426
   8.8261787  13.8382857  85.1888180   9.6398346  15.0859302  84.9199104
 105.5498902  78.4304244  12.7771360 105.4386942  79.3810946  12.7676565
 106.4906375  78.3004958  12.8969080  25.0732279  83.7709910  10.0172884
  24.3375397  84.2888076  10.3441698  25.4675245  84.3175322   9.3375474
   7.8716421  50.7617671   4.7627718   8.5991240  51.3714892   4.8862154
   7.7125502  50.7666880   3.8189012  63.9819249  11.0814994  76.9261169
  64.8387989  11.3088935  77.2870731  64.0777000  11.2102931  75.9824657
  75.2411556  85.9527779  51.4718294  75.5768681  85.0682449  51.3264418
  76.0140228  86.4668941  51.7054558  28.9430134   7.0196574  66.2439299
  28.3164684   7.2495692  65.5577707  28.8449470   6.0734885  66.3505650
  15.5291367  56.2611110   4.4025308  16.2511921  55.7051093   4.1097242
  14.7455692  55.8452041   4.0429861  25.5892420  69.5559604   3.2853014
  25.7772827  68.6599070   3.5645181  25.4981041  70.0471122   4.1018182
  72.7970123  97.8086567  77.0105600  73.1427193  96.9991589  76.6344786
  73.3576012  97.9796886  77.7673435  14.9541569  70.9634787  28.4816343
  15.5552626  71.1682040  29.1978723  14.8872471  71.7788035  27.9846460
   5.8412067  16.9009250  74.6933413   5.8544008  16.2615340  73.9811325
   5.5721275  16.3978236  75.4619217  25.3097630  84.1621685  84.2938137
  25.3402448  84.9455070  83.7445450  24.5074630  83.7135315  84.0268517
  40.4005098  85.1479537   0.4363996  40.2028084  86.0678393   0.6122953
  41.2197304  85.1693732  -0.0582236  95.1334294  64.3150466  73.9305592
  95.6661137  63.5236876  73.8515377  94.7955760  64.2879432  74.8257399
  55.4584106  14.2214530  64.5472956  56.2270125  14.7130912  64.2578459
  54.9209865  14.8662036  65.0074005  64.7757483  70.8640862  68.0672026
  65.4880619  71.3524103  68.4799671  64.7128534  71.2315464  67.1855831
  45.5687142  37.5535685  16.7432386  46.1788559  37.0212657  16.2327367
  45.1793099  38.1505973  16.1043817 101.2268885   9.5481055  78.4992218
 101.2217101  10.3668445  78.0033684 100.3794774   9.1464942  78.3072948
  68.6525901   4.0030330  73.8416100  69.0014418   4.8934215  73.8833666
  69.2581233   3.4835093  74.3704319  98.3562200  74.6634204   8.6042482
  97.4242179  74.8454196   8.4839136  98.3935539  73.7285334   8.8063127
  85.8142098  33.2700484  64.7144365  85.8084305  32.9516643  65.6171179
  86.6698369  33.0089992  64.3738651  50.4043007 101.3615322  86.4354515
  51.1587763 101.4491367  85.8529377  49.8661518 102.1305370  86.2476444
  45.9703255  67.5793654  19.1111452  45.5175591  67.2695548  18.3267671
  45.2981568  67.5763232  19.7926218  23.7399626  31.9652182  11.9575101
  23.4618473  32.8730685  12.0787698  23.7442923  31.8407828  11.0084421
  96.2679823  11.4660876  82.0598507  95.8610018  10.6237548  81.8571949
  96.3992413  11.4467757  83.0078125  10.2160120  68.7327868  33.6026079
  10.7156277  68.7102134  32.7864534  10.6134033  68.0520064  34.1456014
  67.9599389  18.2680266  52.4585342  67.1193942  18.1530230  52.9018068
  68.3127531  19.0805858  52.8211546  24.3154144  21.3395650  26.1434251
  24.3662071  20.4010350  25.9622747  25.1172877  21.7002637  25.7651025
  99.9768750  85.7637603  26.6272432 100.0957195  84.9011142  26.2298090
  99.4117562  85.6034762  27.3830110  43.5302782  91.7619991  76.3594198
  43.1932926  92.4772263  76.8989754  42.7579212  91.2382221  76.1464357
   6.6237736  55.1035220   3.4370405   6.5501690  54.9623114   2.4931795
   5.7237816  55.0485999   3.7583429  57.9919704  28.7690585  82.0742512
  58.5861929  28.1428950  81.6606712  57.4680289  28.2404273  82.6761436
  41.2182665  74.4683654  16.7560655  40.8249378  74.1724879  15.9351045
  41.9702101  74.9951083  16.4852315  60.6425953  62.0566756   7.4221880
  60.4013157  62.5310523   6.6265852  59.8718071  62.1260650   7.9854757
  41.4814568  45.4882533  15.3398401  40.6705475  45.9895045  15.4258615
  41.4796829  44.8986060  16.0938531  53.5131168  83.5783005  87.2038364
  53.7516260  83.9289474  88.0619717  53.6067438  82.6303577  87.2979927
  24.1590778  22.1972983  61.7600632  24.5308201  21.5521377  62.3615694
  24.6764747  22.9888766  61.9081879   5.6097547   8.8139956  55.8336306
   5.2327339   9.6935313  55.8112717   5.5858032   8.5199206  54.9230385
  94.4546032  97.5900173  73.9962959  95.3350544  97.9064274  74.1986084
  93.9041901  98.3721638  74.0352249  38.9339733  89.7727687   8.0615407
  39.7923422  89.4789607   8.3666879  38.3698225  89.7049243   8.8318426
   1.3733856  28.1973403  43.8549042   1.3416044  27.7438682  44.6972704
   2.2227709  28.6386722  43.8523674  19.8105049  67.0043857  39.4622213
  20.1231051  66.6543586  38.6279565  18.9932299  67.4518878  39.2430383
  75.0798257   6.4442580  73.1441355  75.2895912   7.0015853  73.8935471
  75.1146992   7.0332663  72.3904181  84.4938374  97.1425724  77.3814201
  85.3950500  96.9855118  77.6631784  84.5674419  97.8217125  76.7109108
  87.9645665  98.7541351  70.4168415  87.1177848  98.3154685  70.3345966
  88.6080082  98.0504895  70.3326035  28.3298894  60.2519198  10.8410436
  28.9144828  59.7364117  10.2854044  28.9172812  60.7801808  11.3815481
  10.4362965  22.1478915  59.5989227  10.4209018  23.1029439  59.5367336
  11.3169336  21.9035029  59.3143463  28.8950014   0.3509754  74.5005369
  29.5203686   0.1626163  75.2003002  29.3522429   0.1020793  73.6972857
  27.8766229  72.9241885  35.4378778  27.2290154  73.0171336  34.7391683
  28.7163075  73.0918397  35.0100309  23.5893703  49.0422201  47.1127987
  23.4482312  49.3828678  47.9961300  24.5082402  48.7742233  47.1034288
  93.5191337  12.7085888  70.6506014  94.4021599  12.3691976  70.7965899
  93.5981206  13.6515796  70.7946873  93.4345587  98.3893795  77.8590727
  92.7872833  98.8183210  78.4187841  94.1855558  98.9828596  77.8631306
  29.5591712   9.9823809  27.1085978  29.3430161   9.9440414  28.0402827
  29.7604418  10.9041500  26.9471526  10.3104413   5.4845393  46.6009617
  10.4621518   6.0071284  45.8134842  11.1664593   5.1097256  46.8082762
  41.9426044  41.9597114   6.4698106  41.7116972  41.4784379   5.6752759
  42.1776273  41.2801839   7.1016676  18.3845496   9.4180506  38.3538365
  18.4786022   9.6161461  39.2855787  18.6560178   8.5035610  38.2748055
  73.9723255  90.5698771  86.5203476  74.6128329  89.9317998  86.2059689
  73.1488296  90.0834734  86.5590572  93.3074935  83.1511790  33.6382747
  92.5243123  82.9443330  33.1282997  93.8803800  83.6083347  33.0226111
  79.4576313  82.7778048  52.5503826  79.3615325  81.9436712  52.0908022
  78.7469025  82.7812750  53.1915426   7.7640611  24.1570759  58.1720304
   7.9216462  23.9665771  57.2473097   8.5919541  24.5206070  58.4861517
   7.5411689  14.7771120  25.8833671   6.7620480  15.3319955  25.9195232
   7.3577011  14.0663075  26.4976382  12.1119058  23.2462406  82.7398968
  11.8060243  23.4924769  81.8669510  13.0213368  22.9782128  82.6082611
   3.0939656  18.3091390  48.2903719   2.3111920  17.7788424  48.4396505
   2.8428021  18.9162552  47.5942659  19.2104244  12.1842146  33.3360887
  19.2049313  12.3090065  32.3870754  19.7921956  11.4370966  33.4760547
  12.8191078  16.7689681  67.8031206  13.5769904  16.7097747  67.2214460
  12.7202129  17.7057528  67.9730749  24.9015470  78.1261100  25.2480203
  24.2856153  78.8094820  25.5123312  24.3533321  77.4515332  24.8472196
  95.7990269  27.9675412  62.2280455  95.6519453  27.2905517  62.8885603
  95.7153408  28.7919140  62.7072525 101.5360717  23.2137871  76.4927387
 100.6590728  23.3004928  76.1191273 102.1076582  23.0876040  75.7353783
   2.3363320  88.9428682  58.6355686   2.1944300  89.8702890  58.4458637
   2.0597950  88.4903545  57.8387070  13.1153687  49.5138825   1.9346220
  12.9659494  49.9780136   2.7583295  12.4748596  49.8877230   1.3294584
  96.3686975  73.7729127  86.0361767  95.8180841  73.7770087  85.2532101
  96.3907059  72.8555924  86.3087082  16.0063720  23.8884759  54.6013451
  16.4614332  23.4839654  53.8627529  15.1030934  23.9880657  54.3006802
  48.2747229  39.6720435   4.0410787  48.9168700  38.9651276   3.9766676
  47.4828883  39.2470397   4.3706304  64.5693382  78.3756699  10.9430009
  63.9906724  77.9899825  10.2852613  65.3046998  77.7657784  11.0022337
  96.6875200  16.7388332  61.4092541  97.0453457  16.9792068  62.2638988
  97.4564580  16.5401936  60.8749247 104.7844483   2.7297515  57.1987915
 103.9017497   2.8219324  57.5573683 105.3628759   2.9825369  57.9183435
  34.8953676  21.4095855  61.4106131  35.2774930  21.9172192  60.6947088
  35.2742887  20.5359483  61.3136292  71.9379070  70.5742557  64.4422913
  71.8813433  69.9209721  65.1396084  71.2741164  70.3049666  63.8073921
  83.5923882  90.9911043  68.1762695  83.4386726  90.9722156  67.2316837
  83.2113119  91.8205554  68.4644079  44.0058007  50.8937250   2.8380281
  44.0176280  50.1865891   3.4830457  43.8309576  50.4553852   2.0052511
  56.7504128  96.2924541  84.2802811  56.6067322  95.3687985  84.0742493
  56.2896367  96.4276404  85.1083183  39.2307373  64.6916820   5.6070787
  39.6366986  63.8634004   5.3513986  38.6603563  64.9158908   4.8718053
  72.4758625  28.3081746  77.5205278  73.3262300  28.6568499  77.2530794
  71.9938087  29.0710807  77.8396368  18.5693383  18.6751914  79.3097878
  19.0545714  19.4058836  79.6930218  18.0215192  18.3504295  80.0243855
   6.6190559  26.9232631  84.1841888   5.7990491  27.0189381  83.6997604
   6.4732659  27.4037218  84.9991322  29.3447854  66.3400735  13.2875139
  29.9674257  66.9536020  12.8974706  29.4744273  66.4347423  14.2311555
  32.9097032  61.1158337   0.9338933  33.5084791  60.6832845   0.3251249
  32.0987608  61.2229277   0.4367715  26.7220998  32.4285769  59.8757029
  25.8258247  32.7636218  59.9015236  27.2460747  33.1694603  59.5711184
 108.2496272  20.3056407  65.3982401 107.5584434  19.6482372  65.4777193
 108.0556135  20.7591844  64.5779419  15.5469903  67.2195639   5.2754671
  15.3402766  67.0882393   6.2007982  16.5014442  67.1611167   5.2326280
  85.6546648  31.7273129   3.7074358  86.2613114  31.5620722   4.4291765
  85.5556591  30.8773889   3.2784063  87.4172314  98.3954666  80.5128956
  87.7064343  99.2595453  80.8060837  86.7008718  98.1686959  81.1058807
  69.6878942  69.1589071   1.5009958  69.1032394  68.6328341   0.9554082
  69.3340739  70.0465156   1.4445001  89.9020378  31.3099122  79.2322063
  89.4547490  31.0518122  80.0381565  89.8441057  30.5384493  78.6685371
  97.4505786  30.3597212  72.4513912  96.4957372  30.4260039  72.4406242
  97.7539460  31.2672758  72.4280596  75.6515869  56.4861674  15.1724035
  76.4306267  55.9786959  15.4000074  75.8712800  56.9010861  14.3382532
  97.1508463  72.1661861  44.9146652  97.9334029  72.3212487  44.3857098
  97.0455702  72.9676611  45.4272890  21.1274481  12.7955866  60.8463240
  20.2280307  12.6284170  60.5646563  21.1024976  12.6974845  61.7981577
   3.4265772  98.5672725  53.5894060   2.8712098  97.8052498  53.7540913
   4.2115251  98.4094236  54.1139698  24.8566198  20.6087756  52.6901388
  24.2458487  21.3282013  52.8501892  25.7195091  21.0230827  52.6882887
  19.6186364  26.1456323  20.6335902  18.7860167  25.6766582  20.5784583
  20.1039124  25.8640957  19.8580408  85.3679458  29.3934202  77.0566130
  85.9915845  28.7220192  77.3332548  85.7878153  29.8162270  76.3074970
  21.0987020   6.4045495  58.3137941  21.5713787   5.6836218  57.8977728
  20.6743884   6.8629128  57.5884724  97.3692076   9.4386232  75.8674288
  97.9926298  10.1529336  75.9991026  97.8248839   8.6606938  76.1890173
  46.7551192  52.1716696   2.7198679  45.9332176  51.7221528   2.9164487
  47.4326046  51.6028865   3.0855638  36.1452746  15.9032369  82.9783440
  36.3832235  16.0584772  82.0642853  36.0164404  16.7783117  83.3442402
  22.9574895  26.9574833  72.9070091  22.5172520  26.6592574  73.7029266
  22.2700596  26.9633913  72.2409439   6.2946892  24.3308830  18.4199381
   6.1322099  23.7359953  19.1520166   5.4745620  24.8136187  18.3170235
  41.5149164  18.4755170  46.4145517  41.1475563  18.8844597  47.1981573
  42.3373795  18.9415896  46.2643290 104.1945465  98.1762732  67.3560143
 103.3477553  97.8038309  67.6019049 104.3802412  98.8206125  68.0390739
  93.4939400  17.7592039  68.2679892  93.8897054  17.7368915  69.1392565
  92.6039151  18.0782485  68.4173107  35.6881499  13.2826269  54.1977978
  35.3707814  14.1853189  54.2234039  35.2376890  12.8915143  53.4492350
  64.1496285  74.9741043  12.4803907  64.7939023  74.3821443  12.0921594
  64.1745862  74.7747697  13.4162694 105.0446985  17.0462203  56.4901733
 104.2592738  16.5122759  56.3708305 105.6944088  16.6495895  55.9098339
  24.4221973  11.0265112  67.2054911  25.0626302  10.8219814  66.5241337
  24.5291328  11.9649589  67.3607779  32.3564982  22.2554469  81.3488293
  32.1314454  22.8880310  82.0310497  33.1076741  21.7790151  81.7023563
  37.6480129  61.9151153   7.8371126  37.8880203  61.0971619   8.2725221
  37.3756354  61.6481437   6.9591791  41.8389432  17.3505151  76.4890957
  41.4219968  17.0392776  75.6856585  42.7569882  17.0957839  76.3967037
  33.8232183   2.3915480  60.1796436  34.3901873   1.6237970  60.2526951
  33.2834601   2.2181730  59.4083881  71.1537305  97.9481215  60.7607222
  71.4274732  98.1714992  59.8711157  71.1287287  98.7868352  61.2213373
  71.1972557 101.5204832  69.4567347  70.5226820 101.8364149  70.0578785
  70.7099472 101.1917298  68.7013006  70.8014220  67.9011900  51.0272646
  70.6001166  68.7271554  51.4671373  71.7548175  67.9013903  50.9420109
  19.6664953  24.0893316  50.7391977  18.8194215  24.1906714  51.1732817
  19.7667646  23.1439829  50.6274176   8.0008274   4.8234293  75.2497292
   8.4556216   5.6647319  75.2897882   7.3235941   4.9486747  74.5849752
  67.1442278  96.2714464  67.9325676  67.0570301  97.1329386  68.3405590
  67.8277590  95.8340824  68.4402370  32.5572896  49.0289402  35.1256895
  32.5372863  49.9844980  35.1780486  32.9968023  48.7541246  35.9303880
  34.0864468  41.0688114  67.4512529  34.0822935  41.1570215  68.4043694
  34.8131156  41.6210413  67.1627712  30.7472110  39.3484569  43.6479473
  30.4475570  40.1335669  43.1896448  30.2032781  38.6436272  43.2963991
  41.7083510 100.9597469  46.0137272  41.1543878 101.4785898  45.4304981
  42.3335775 100.5296446  45.4303455  87.0770760  79.1234190  40.7884073
  87.1152635  78.9979250  41.7365742  87.9241832  78.8104660  40.4710722
   5.6467477  97.5690968  54.9357653   5.5095998  96.8450309  55.5466223
   6.5908042  97.5735972  54.7777510  69.9557074  59.1864581   9.6985990
  70.8354147  59.3839575  10.0200635  69.8544129  58.2453205   9.8408300
   3.3489522  23.4242654  31.6696525   3.1987521  24.1350079  31.0463405
   3.1937897  22.6260471  31.1646724  95.6847433  18.9185846  48.8185310
  94.7455506  18.8421166  48.9867592  95.9074370  19.8052931  49.1020584
  22.3634100  35.8214784  32.3525858  23.1053448  35.3643441  31.9566178
  22.5007176  36.7414665  32.1267533   8.0985719  13.8865757  78.4527063
   8.5567278  14.5225251  79.0021563   8.6663336  13.1159413  78.4539843
  16.5119147  21.9616556  73.1452417  16.0089648  22.7697587  73.2464600
  16.3156283  21.6671872  72.2558641  50.3859901  56.7186689  83.8510036
  49.6284819  57.2894907  83.9797306  50.0174522  55.8359718  83.8154984
  86.6981880  25.8036089  73.9531374  87.2966949  26.1133885  74.6328878
  86.4309160  26.5972400  73.4895134 105.9062291   2.8572416  44.4840956
 105.3977589   3.2848734  45.1731682 105.2500517   2.4383233  43.9271641
 103.4322996   7.3646075  63.5426569 102.4799947   7.4580747  63.5179377
 103.5902233   6.6974437  64.2106247  23.4562683  54.8520374  73.7398005
  23.2773614  55.7915735  73.7011051  24.4045830  54.7933817  73.8559484
   2.3676103  26.1483455  66.5750933   2.8686529  25.6510258  65.9286690
   1.9432807  26.8406439  66.0682440  26.9594669  18.9991117  57.5340557
  26.7668104  19.7707891  57.0014906  27.3628283  19.3505239  58.3278084
   8.6571991  21.4978719  78.6524630   8.6708331  20.9330606  79.4251442
   8.6949307  22.3869848  79.0050125  11.4379382  65.5433798  64.1582251
  11.0444796  66.3586187  63.8470840  11.6346443  65.0525713  63.3603239
 107.5361069  96.3850803  78.2133722 108.2415040  96.0416306  78.7617254
 107.8548535  96.2766571  77.3173428  44.0139723  39.6410918  76.5870380
  44.4871807  38.8604379  76.8749332  43.0921030  39.3844676  76.6100883
  89.7159807   8.2197053   0.0895578  90.0221281   8.1113631   0.9899789
  90.2816729   7.6453311  -0.4265040  87.2359808  93.4805835  56.1846828
  88.0128439  93.8070828  55.7306862  87.5358971  92.6909680  56.6350079
  13.9973283   6.7164469  57.2939253  13.6162829   6.0469884  56.7257166
  14.2314744   6.2463850  58.0942059  65.8338308  34.9022436  74.7437143
  65.7696867  34.6359611  73.8265419  66.3382149  35.7154894  74.7222948
  34.9412445  41.2321462   9.3291837  34.1543131  41.4855923   9.8116094
  34.9838592  40.2805485   9.4233972   2.8886563  34.3555522  67.5545835
   3.0561307  33.6505675  66.9291353   2.7405077  35.1286840  67.0100212
  67.5640329  18.7917031  28.2577592  66.9801339  18.1569852  27.8425199
  68.3842405  18.3149971  28.3851987 101.8970392   1.7870931  71.5750551
 101.8832098   2.7270743  71.7552662 102.3473720   1.7110969  70.7338333
   5.9615064  26.2829709  74.8235750   5.1568979  25.8675957  74.5132542
   5.8011633  27.2211909  74.7222614 105.4062791  24.9300790  74.0418291
 104.5958338  24.5703340  74.4023752 106.0955853  24.3662763  74.3928480
  62.9962262  71.8820347  18.1297380  63.8374670  72.3128475  18.2812101
  63.0467685  71.0724868  18.6379797  26.9334555  15.9209001  86.1011219
  26.8225646  16.8102920  86.4371586  26.5432072  15.3609204  86.7722130
  27.8094506  20.1346254  59.9590349  28.7601805  20.2175808  60.0329351
  27.4796462  20.3809428  60.8232069  38.3106470  76.1195946  42.0017672
  38.7080097  76.3988161  42.8266144  38.8840795  76.4802408  41.3254976
  35.1244075  85.4950894  10.3969556  34.3963023  85.8253206  10.9232980
  35.6416605  84.9691214  11.0068971  48.9078709  92.6617063   9.4300825
  48.4004291  92.0461096   8.9011461  48.4295734  93.4879412   9.3607885
  84.7770278  17.8264928  87.6072407  84.8937623  18.6435962  88.0919552
  85.6634108  17.4799228  87.5050163  19.1174042  31.6571164  61.7030954
  18.2748389  31.5341520  61.2658405  18.8892114  31.8563294  62.6111031
  85.6966678   3.4987128  74.9148607  86.3452594   3.7772465  74.2683506
  85.4590766   4.3023798  75.3773594 103.5865696  82.0449025  33.3483744
 104.4981082  81.7536385  33.3261275 103.3086785  82.0323045  32.4324870
  92.3329624 100.1990683  27.4586964  91.9166227  99.3657861  27.6789975
  92.4938114 100.1447804  26.5166712  23.2830548   1.4005779  63.3108044
  24.0915275   1.1220401  62.8806591  22.6371932   1.4384384  62.6053524
  91.2178997  19.7854018  26.7225695  90.9139673  19.3129289  27.4975705
  90.4850261  19.7354209  26.1088657  26.9154644   2.5550240  73.1426525
  26.9901872   2.1070510  73.9852524  27.0175314   3.4828246  73.3547878
  31.7849636   2.0871373  69.0378237  31.4338994   2.8810555  68.6344910
  31.8614292   2.3042014  69.9669456  74.5199784  24.9261512  19.2289239
  74.3545111  24.4471015  18.4169084  75.4017671  25.2826442  19.1212636
  21.9826603  16.4777339  77.5810862  21.7614317  15.5477154  77.5325632
  22.7862692  16.5059948  78.1003618  17.8588188  16.7790580  66.7024422
  17.8422523  16.5270126  65.7791710  18.4097052  16.1178148  67.1213818
  15.5325723  20.7807708  75.7357740  14.8075068  21.3139462  76.0617161
  15.6686902  21.0845184  74.8383141  31.1401558  23.3972597  79.1569042
  31.3761544  24.2924213  79.4002628  31.5338278  22.8521538  79.8381615
  86.0009225  84.6748967  68.8182402  86.4240285  85.4554278  68.4604931
  86.3122042  84.6267230  69.7221279 103.6301209  29.0521097  60.0686598
 104.1565020  29.0590882  59.2692184 102.7249615  29.0185881  59.7591496
  96.3317307  96.4944155  86.3072205  95.8938821  97.0660982  86.9378567
  96.3867267  95.6474073  86.7496967  19.3581152  17.1437120  25.1243067
  18.5532868  17.6586854  25.1816177  19.1501832  16.3237119  25.5721879
  26.5704966  53.2960749  50.3050995  26.3537765  54.2264843  50.2450752
  25.9505081  52.9465485  50.9451628 100.3801821  36.6185451  50.7350636
 100.3063349  37.4602413  51.1848688 101.2543825  36.3015604  50.9620571
  94.7786729  22.6400280  86.2570000  94.7850494  22.7551460  85.3067684
  93.8693969  22.7975297  86.5112495  88.9510910  17.4551260  48.7117720
  88.6659269  18.3658600  48.7857914  88.6909823  17.0545292  49.5412874
  71.9712099  79.6177305   0.1688367  72.1060141  78.7294949  -0.1614588
  72.7382668  79.7890867   0.7151777  14.8526994  99.2553959  67.5704384
  14.1769735  99.0767530  66.9164419  14.3936626  99.2055181  68.4089041
 102.4863561  87.4767680  67.9106379 102.5339254  86.7215950  67.3243904
 101.7953428  87.2528870  68.5340261  73.6821887  92.7761222  58.3268452
  73.6190135  93.6540461  58.7029982  74.0106093  92.2319610  59.0425682
  12.2583207  43.8128932   2.9710466  12.6756581  42.9605539   3.0958540
  11.5925392  43.6577649   2.3010427  47.3691221  72.7573742  19.8647577
  46.4500185  72.9536976  20.0462419  47.3434099  71.9647826  19.3286974
  25.9170222  17.7585089  52.3030138  26.0609722  18.3753574  51.5853739
  24.9694061  17.7649915  52.4379730  47.1930504  27.4929571  60.6362247
  46.5653849  27.0419836  61.2009287  47.2045231  26.9763875  59.8304605
  21.8172296  51.6037895   7.8561670  21.7823049  52.4116017   8.3684618
  20.9395655  51.5181419   7.4838716  81.7256739  96.2501425  54.1510534
  81.6832300  95.3030426  54.0190220  82.1022054  96.5885801  53.3387041
  97.2632973  13.5937726  72.9925585  96.8554584  12.8600168  72.5326633
  96.8263177  14.3694544  72.6409960 107.5950592   8.8423377  75.2370834
 108.2846525   9.4732523  75.4435778 107.5301984   8.8623488  74.2822933
  25.4909174 101.5766202  62.5630283  25.2659790 102.1260308  61.8121719
  25.6282274 100.7058316  62.1900606  44.7799828  85.1938571   6.7647153
  44.2399301  85.7622518   7.3138029  44.1588219  84.5821942   6.3694173
  31.5791512  54.6058512  57.7116394  31.1390638  55.3556681  58.1120586
  31.1182141  54.4718027  56.8835068  90.4958872  18.2703376  68.6879969
  90.7273511  19.1529393  68.9772558  89.5627503  18.3230305  68.4813309
  40.9271669  30.3517461  65.8877611  41.7748213  30.3297806  66.3318634
  40.9538507  29.6095514  65.2838850  53.5278626  73.6679322  76.2376308
  52.6918038  73.3124740  76.5391064  54.0423604  72.8977949  75.9959459
  25.1282740   2.9566962  71.2142134  25.6663775   2.4916683  71.8548584
  24.4370294   2.3352019  70.9858322 102.7185758  98.0920867  70.6851625
 103.3687433  97.3997060  70.5663109 102.2971137  98.1742869  69.8296833
  61.2753685  75.4462804  16.8214780  61.6932996  76.2504686  16.5135080
  61.5736111  75.3526701  17.7262002  19.6963179  31.1808491  39.6056247
  20.1826572  30.9841537  38.8049889  19.1350353  30.4169846  39.7386885
  60.9297784  84.8218192  24.8177892  59.9970706  84.8818864  25.0243742
  61.0043081  84.0388836  24.2721731  34.8646045  54.2410707  67.6344681
  34.7523761  55.1425505  67.3328447  34.1335440  53.7642574  67.2414875
  65.8118375  93.4298856  31.8109655  66.2029334  92.7664138  32.3793697
  66.3669260  94.2011715  31.9259787  71.0594970  88.0061967  49.5047283
  70.1350701  88.2410640  49.5853758  71.2145953  87.9645438  48.5610962
  96.4755611  19.2344975  55.5609941  96.5268461  20.0996971  55.1547527
  95.8650784  18.7463069  55.0085306  81.4099367 101.3386314  63.2612133
  82.2728856 100.9423624  63.1407070  81.4443662 101.7262065  64.1357613
  13.6334097  30.0925636  70.2604246  14.0085757  29.3296790  69.8205519
  12.7404428  29.8271203  70.4803848  20.6225681   1.2083412  47.1974182
  21.4133215   0.6960474  47.3662233  20.9428358   2.0217013  46.8074131
  96.1305579  67.1331555  51.4389706  95.9467085  67.8087480  52.0916605
  95.7032116  66.3476474  51.7804146  13.8644052   2.9218543  75.4802942
  13.2805610   2.8903562  76.2381649  13.7220240   3.7904823  75.1042032
 106.2353851  28.7601161  39.9842858 106.1643383  27.8059220  39.9578738
 106.7567597  28.9399052  40.7666397  35.8903771  97.2782768   2.2623903
  35.8328390  98.2120670   2.4647695  35.3983800  97.1790899   1.4473230
  47.0793828  53.0840792   9.6901971  47.8128417  53.4370704   9.1865427
  46.5268560  52.6526716   9.0384084  49.9449166  40.0115706  22.8179056
  50.4892572  39.3538870  22.3850328  50.4373535  40.2509786  23.6030370
  65.9826644  76.7376126   7.8263742  65.3622182  76.5275420   8.5243398
  65.4485854  76.7692269   7.0326597   0.6401263  44.8772144  59.9271345
   0.5873218  45.6016111  59.3036842   0.0218347  45.1113796  60.6193161
 107.2834986  35.1113534  65.4155588 107.6573390  35.3838181  64.5775604
 107.7691316  34.3200707  65.6485081   5.4401314  29.9689889  26.6757631
   4.6233261  30.3716254  26.9706273   5.2317291  29.0385628  26.5914464
  69.5775220  95.3722996  54.8840809  70.5330062  95.3663898  54.9410629
  69.3931525  95.6191290  53.9778185   3.4497592  32.0217037  65.7114363
   4.3403772  32.3721671  65.6970310   3.5502514  31.1020613  65.4657030
  85.1868387  90.8928091  80.5545235  84.9431558  90.8313400  79.6309042
  84.3522640  90.8881826  81.0232353  17.7067447  53.3705282  51.1712933
  17.9993796  53.2932949  50.2632046  17.9482138  54.2611122  51.4258289
  85.9180300  48.8590145  45.7271671  85.8845250  49.0726423  46.6596222
  86.0281507  49.7042322  45.2916145  54.1043337  62.1654703   3.2988149
  55.0560888  62.0951046   3.2250291  53.9356419  62.1539225   4.2409689
  65.1307972  85.1688034  64.5238686  65.9658374  84.7064251  64.4521332
  65.3480007  86.0842318  64.3476725  28.6539865   8.7472630  78.0269766
  29.2550588   8.5671973  77.3041201  28.8285327   8.0528671  78.6622524
  30.7272625  31.2448597  50.7680845  30.6262589  32.0785737  51.2273741
  30.9160924  30.6113672  51.4603710  98.4475128  19.1230905  72.0327711
  97.8616039  19.1980171  72.7859831  99.0772579  19.8347771  72.1474648
  36.3978195  30.5436945  66.7139244  36.3770175  29.8460460  67.3689699
  36.8383217  31.2713528  67.1529055  19.6388853  34.5304585  46.3832664
  19.9048042  33.6439204  46.6273308  20.3373599  35.0914025  46.7204714
  10.2464449  61.6422510  78.2656765   9.3437999  61.3366604  78.1758118
  10.5846381  61.1698389  79.0263891  32.0777440  36.2864327  16.7553830
  31.7177320  36.4527535  17.6265669  31.4856863  35.6399512  16.3709819
  19.1366100  55.4628611  84.2718887  19.8926663  55.7313156  84.7939396
  19.3055022  54.5447540  84.0602493  26.5604997  43.5481262  76.8878078
  27.2594905  42.9203653  77.0710087  26.1034465  43.6481190  77.7228737
   1.8033788  20.6259727  74.4171715   2.6084766  21.1434937  74.4022465
   2.0543621  19.7817123  74.0423918  29.2243624  50.3369856  75.3798819
  28.6239576  50.5440760  76.0960245  30.0928712  50.3583908  75.7817125
  44.9466181  18.6934197  30.0410056  45.5315113  18.6343539  29.2855954
  45.3989172  18.2101846  30.7324839  40.2272387  84.5229472   3.4413225
  41.0933985  84.8135652   3.7268716  40.1347890  84.8782124   2.5573141
  98.1408916  33.9554715  38.1178784  97.3199527  34.2137504  38.5369039
  98.2397996  34.5666051  37.3878360  23.8549161  44.3447495  35.1928043
  24.4691086  44.5950890  34.5026374  24.0811300  44.9100828  35.9313560
  32.0321321  17.8245354  48.7517452  31.7833781  18.6917865  49.0714788
  31.6633987  17.2177517  49.3936825  35.6721163  50.8068275  46.6893339
  35.2147055  50.5399036  47.4866819  35.0842476  51.4393139  46.2762976
  35.4352474   1.6364160  85.7681274  35.8722067   0.9382922  85.2803516
  35.9420466   1.7174980  86.5760994  15.3897727  43.7359905  71.0855675
  15.2030134  42.8536129  70.7649899  16.3454413  43.7873983  71.1024666
  15.0397038  59.8943758  87.7658939  15.8737302  59.4334269  87.8562260
  14.8160136  60.1617193  88.6573601  31.1905646  50.5511808  40.3920507
  30.3757548  51.0356283  40.5248260  31.7898560  50.9059286  41.0487366
  24.2458391  29.5126510  86.4998245  24.0091300  29.2955899  87.4015427
  23.7071228  28.9304805  85.9640217  11.8671775   9.8902953  35.5735588
  11.2904119  10.0854337  36.3121343  12.6763701   9.5771855  35.9777880
  11.6396260  88.7902451  63.1316376  11.5447903  88.2497406  63.9159203
  11.0781419  88.3688068  62.4809790  11.5724170  26.5627456  59.6534634
  11.9617176  27.3960090  59.9186945  11.9247365  25.9253049  60.2745724
  27.5476599  51.6054487  77.2223425  28.0465174  52.3963070  77.0176172
  26.6617084  51.7943430  76.9130802  57.4084981  59.2459829   4.6576005
  58.2261451  59.0707357   4.1917974  57.1859582  58.4126581   5.0726682
  45.4569387  18.2925940  55.1664352  46.2970304  18.0088639  54.8059177
  45.4360437  17.9191792  56.0475445  34.6525288  36.7615461  62.3008776
  34.4750953  35.8545947  62.0514965  35.5098104  36.9514036  61.9197559
  20.7025337  80.8604813  65.5795383  20.4391551  80.4697800  64.7463417
  20.7814002  81.7956638  65.3912354  63.6838293   2.8899267  84.3054199
  64.1670322   3.1395671  83.5177422  63.5032415   3.7189856  84.7484493
  42.8721523  13.7141430  80.5252361  42.7718782  14.6315169  80.2710724
  42.1629286  13.2605171  80.0697613  70.8299923  91.4227581  51.8383646
  71.5306187  90.7925129  52.0061302  70.3989887  91.5329933  52.6858997
  42.8705788  36.0877967  59.0761137  42.6637363  35.5184245  59.8172379
  43.0888319  36.9301796  59.4748497  24.4873548  39.7917104  78.0342579
  25.2516127  40.0676918  77.5283146  23.8201857  39.6002126  77.3751307
  33.3832574   1.9155504  82.8084755  32.8620172   2.6709777  82.5366879
  34.2864561   2.1648353  82.6127148  26.7483521  53.5229063  47.5280046
  26.4679599  54.4228029  47.3612738  26.5402174  53.3741903  48.4503889
  26.2574601  31.2544084  85.9493637  25.4544663  30.7363439  86.0045242
  26.6959953  31.1064291  86.7872334  21.5796828  55.6419849  85.5962372
  22.3341131  55.3129387  85.1075649  21.7593050  55.4009342  86.5050125
  44.8321629  24.4112539  44.5266342  45.2150822  23.7130356  45.0577593
  44.0948772  23.9953518  44.0797901  40.4646063  71.2974644  61.9551611
  40.7010269  71.9284487  61.2753105  40.9222984  70.4944706  61.7062712
   0.6928516  19.7443366  36.9344926   0.2643582  20.1409221  37.6930070
   0.4349201  20.2976513  36.1972380  22.8890729  36.5187263  72.3500776
  23.5332870  35.9027219  72.6990128  22.1393275  36.4410138  72.9400539
  80.1789222   7.4667079  29.4565851  80.1975284   6.5588242  29.7593004
  80.0531719   7.9822690  30.2532178  16.7763329  54.0795612  71.7877913
  16.8592262  53.1275749  71.8433189  15.8706689  54.2563677  72.0422411
  55.0680494  45.0668526  79.9434996  55.5489969  44.5433331  79.3025255
  54.4911718  45.6198883  79.4166279  28.0721402  57.9464102  71.7176199
  28.6345220  57.3356199  72.1939564  27.2206283  57.5105810  71.6828060
  49.0188595  44.3390937   6.9294054  48.5933336  44.0466846   7.7354223
  49.3826564  43.5404278   6.5472871   1.5825436  52.6827383  71.8057156
   0.9144706  52.0080042  71.9267416   1.4979763  53.2444429  72.5761461
  98.3507828  28.0656409  70.9714890  98.0497174  27.4908900  71.6752291
  98.2183621  28.9504814  71.3117218  52.2730446  34.8442912  75.7512474
  53.1459951  34.8450613  76.1439180  51.6775656  34.7270560  76.4914465
  92.3425778  71.9838060   2.0327074  92.4837550  71.2263073   2.6006013
  91.9503888  72.6428117   2.6055414  15.1887167  33.0793428  55.1875210
  15.6326377  33.7944436  54.7316742  14.4175339  32.8955436  54.6511173
 102.8441690  72.9135656  79.7732353 102.6403789  72.3344040  80.5075836
 103.2043580  72.3328209  79.1029835  69.0334400  91.4181770   0.4584676
  68.3489521  92.0722641   0.3174860  69.3842324  91.2464060  -0.4154128
  49.5035744  54.3002462  83.1590462  50.4319334  54.1520166  82.9790306
  49.0663338  54.1188145  82.3270988  55.6375837  37.9855156  78.4677553
  55.0008869  38.4714723  78.9918661  56.3515520  37.7934957  79.0757084
  41.5033913  25.1031637  73.5026264  42.3437214  24.6557665  73.6021757
  41.4960194  25.3992248  72.5923920  45.8571100  36.3213754  52.3697662
  45.5096054  36.9524121  53.0000544  46.5456390  35.8594680  52.8480959
  38.2835579  32.0646524  68.0661535  39.0885234  31.8130374  68.5188723
  38.1359768  32.9736233  68.3273554  65.4953845  98.2848371  33.4146101
  64.7241481  98.6807312  33.0087835  65.1839860  97.9683794  34.2626173
   6.7020464  59.2346525  35.6619644   7.0190161  59.1304445  36.5591288
   6.6399068  58.3410406  35.3245854  15.8576596  25.1751423  68.8461018
  15.1473546  24.6177459  69.1639233  15.9169734  24.9778676  67.9113293
   9.4255286  44.5554161  68.1218147   8.6148888  45.0574732  68.0379629
   9.7689235  44.7968960  68.9820433  38.4869885  40.9484196  51.6060114
  39.3101096  41.2464762  51.2188911  38.3957124  41.4683676  52.4044800
  16.8110025  10.4745317  30.2257562  17.5633228   9.8947543  30.3445196
  17.1283770  11.3367701  30.4941797 105.8245827  14.4147134  69.8746204
 105.4390777  13.5488331  69.7409439 105.1329545  15.0263858  69.6221542
  57.5965389  78.8845433  18.9350301  57.9131826  78.3491649  19.6625883
  58.2543620  78.7698306  18.2492143  42.1889687  42.2820854  73.6837244
  42.6803017  42.1304703  72.8763628  42.7705526  41.9751358  74.3792629
  33.7533760  44.9444103  73.1864309  33.2626629  44.9105644  72.3652840
  33.7245107  44.0476179  73.5198402   8.9282089  67.8689146  66.8728256
   9.2415702  68.1145144  67.7432966   9.2311287  66.9686651  66.7544031
  47.2553921  78.3594036  51.0520029  46.7452097  78.7571573  51.7575073
  46.7487764  77.5889921  50.7950306  40.0817442  44.5976925  82.7313805
  39.3644905  44.7789526  82.1239853  39.9152327  43.7069130  83.0396271
  40.7545614  36.9742775  57.5469780  41.5252256  36.5410852  57.9139328
  40.0547552  36.3260961  57.6267385  19.6475542   1.1902543  30.9506369
  19.7917736   0.7217777  31.7728066  18.7311721   1.0179319  30.7343435
  34.1540480  35.4906559  58.6880636  34.7623444  35.5930138  59.4199991
  33.5958362  36.2670946  58.7301731 104.1053327  85.6465048  15.0599921
 103.3403691  85.0738043  15.1154661 104.7427090  85.2532048  15.6560624
  99.1053573  59.4726133  66.3443375  98.1736575  59.2731667  66.4359331
  99.2623309  59.4552469  65.4002571 104.5206960  75.9889252  54.2662334
 104.3918355  76.7107660  54.8815155 105.4592689  75.9988243  54.0785789
  48.7721928  91.6522755   0.7105524  48.9011415  92.0429577   1.5748292
  48.2148071  90.8911432   0.8725053   5.9462970  52.6174212  55.2762270
   5.9292370  51.7991304  54.7798967   6.4591283  53.2161856  54.7333431
  13.1260502  14.4880164  72.5674057  14.0348804  14.5024908  72.8674936
  13.0912340  15.1500368  71.8769360  63.4217056  86.9523515   5.6542951
  64.0160140  86.2050404   5.5867845  62.6047357  86.6449083   5.2615339
   0.7034876  35.8030009  51.6061306   1.3066034  35.0771022  51.4462757
   1.1405673  36.5654874  51.2269068  19.1967523  25.6082869  78.4056282
  19.6165514  24.8148847  78.7380600  18.9907444  26.1168647  79.1899395
   1.8136387  42.8960848  68.7740135   1.5639159  43.8026428  68.5950851
   2.6437116  42.9649401  69.2456818  23.8198996  66.2744093  86.0964870
  22.9506874  65.8735323  86.0951900  24.4251919  65.5339909  86.0560417
  53.0003595   8.9303607  73.3738232  53.5750389   8.2766229  72.9755735
  52.8640747   8.6166340  74.2678213  38.5307717  70.9689426  42.5986958
  37.9780698  70.5871534  43.2805967  38.1138754  71.8056917  42.3930693
  23.3407736  30.3101802  56.2279034  22.5654626  29.7581410  56.3297606
  23.0933547  31.1459565  56.6234970   8.1736970   3.4449422  65.8786106
   8.9093089   3.9949813  66.1479855   7.6927328   3.9804021  65.2475882
  73.0091588  11.2291288  84.3860435  73.8995210  11.5726745  84.3121243
  72.4461476  11.9868922  84.2277813  29.3068600  50.9494543  61.8803835
  28.9658546  51.0444450  60.9910440  29.8240829  50.1444626  61.8538666
  69.7666057  90.1354970  15.5711729  70.1913532  90.9070505  15.1963026
  68.8517340  90.2101268  15.2997476  14.2952156  83.6954784  61.2997723
  15.2314472  83.5935307  61.1285686  14.0045166  84.3467617  60.6613731
  65.2759632  76.4225091   5.2069646  65.2855571  75.6817378   4.6008283
  64.6074065  77.0106806   4.8558027  58.1146296  78.7854446   3.0372221
  57.8067072  79.4059147   3.6978513  57.3667344  78.2080664   2.8838617
  17.0490873  44.2297888  44.5500898  17.7354956  44.8182917  44.2358637
  17.5138617  43.4306526  44.7982883  51.9703722  37.1002412  43.1361485
  51.1464119  36.7445016  42.8033352  52.6231289  36.8413615  42.4856663
  49.9830627   6.8022496  54.5028925  49.2853498   6.2144578  54.2131901
  49.9212790   6.7948532  55.4580688  90.8816842  54.6274614  70.1550436
  90.2037315  54.8120594  70.8050680  90.9644262  53.6738539  70.1594591
  25.0609136  31.2873149  37.0956659  24.8256612  30.4481578  36.6998100
  25.9626889  31.1672807  37.3933649  34.8406974  64.1279866   4.0126401
  34.8304904  63.5552122   4.7794897  34.9456964  65.0085987   4.3728143
   9.9302977  35.5052733  51.5241098  10.1978946  36.2321091  50.9616756
   9.1328484  35.8154583  51.9531679 103.6620740  54.0412998  79.6227169
 103.5605405  54.9493647  79.9079275 103.5459418  54.0740919  78.6731529
   3.4993264  17.6015127  50.8678150   3.3688018  18.3011436  50.2277279
   3.5398835  18.0527973  51.7109823   2.3396228  28.3894205  80.9853458
   2.6307467  27.8839278  80.2264214   1.3882419  28.4365535  80.8910847
   9.0691566  51.4970303  67.5060606   9.4951153  52.2922850  67.1861267
   9.7272122  51.0800123  68.0622005   4.7200814  40.1423168  47.1001005
   4.2988199  39.8381710  47.9040098   4.0103507  40.1852989  46.4592695
  15.7318997  49.7983885  79.8172617  15.2669907  49.4916010  79.0388155
  16.3782132  50.4192734  79.4810820  66.8377908  63.0594362  14.8041708
  66.4840206  62.4425544  14.1634351  66.5975030  62.6874663  15.6527788
 101.0850893  75.4649878  44.3820000 101.1976121  76.3676643  44.6799040
 101.7416440  75.3562164  43.6940050  44.2905188  22.0245075  84.7638512
  44.8694897  21.2861609  84.5744610  43.5478163  21.9044185  84.1720676
  48.0510569  26.6646409  64.4356251  48.1736469  25.7159829  64.4710636
  47.5385475  26.8692970  65.2177238   7.1078783  32.8764963  80.7049370
   7.4316078  33.5623312  81.2889385   6.1560637  32.9763055  80.7227707
  83.2354323  19.3790305  32.4860978  82.7786366  18.6808312  32.9552317
  83.3752982  19.0256023  31.6075993  31.1637187  18.1167102  73.1992197
  32.0332646  18.2655191  73.5706711  30.6778646  17.6756120  73.8960791
  37.2504568  27.3145604  79.0990448  36.7233276  28.0902648  78.9076090
  37.9645371  27.3471570  78.4624434  95.1379780  63.6221600  51.0888481
  94.8808877  64.0770102  51.8908787  94.8406534  64.1956186  50.3824711
  32.6905513  68.9666224  60.2921247  33.5743833  69.3097401  60.1604176
  32.6418829  68.7840128  61.2304831  48.3455133  35.5447340  87.9803181
  47.9686117  35.9914923  87.2223091  49.2900848  35.6671071  87.8852367
  11.3906264  14.9594486  77.7538967  10.7766759  14.6178734  77.1038008
  12.0744836  15.3853035  77.2369671  56.9284344  52.1445084  57.2848034
  56.5557146  52.2863960  56.4146423  56.1875439  52.2463894  57.8822374
  22.4526477  34.7629285  55.8465195  22.2189903  33.9669013  55.3690481
  22.4595761  35.4491520  55.1792240  26.2148406  81.3151254  21.6076643
  26.6762229  80.6911553  22.1680337  25.2953239  81.0558881  21.6669637
  15.4272270  88.9682865  45.3794432  15.2857053  88.0890751  45.7304287
  16.3700318  89.1107845  45.4633760  32.3249960   7.6930380  45.6743670
  32.5174904   8.5389274  46.0789013  32.7571893   7.7316892  44.8211670
  91.5355126  26.2587905  87.4168301  91.5670554  26.7389369  88.2442856
  91.8225495  25.3739119  87.6422787 102.4444149  18.8084507  64.2578793
 102.4089829  19.3814015  63.4919167 102.0780871  17.9782820  63.9531565
  26.0343575   8.4984583  27.5588536  26.4084363   8.6297047  26.6876054
  25.8041906   9.3788457  27.8557920 100.5273732 102.0097631  86.5610218
 101.1875995 101.4829447  86.1106873 100.4185947 101.5824015  87.4105835
   5.9463447  32.0968533  77.7648640   5.2913660  32.1834159  78.4574938
   6.6914845  31.6736746  78.1913805  24.8458743  47.6651192  54.6872091
  24.5601368  47.9128647  55.5665350  24.7452712  46.7135572  54.6618938
  83.3522995  83.4098114   9.1067297  83.3559521  83.1879701   8.1756002
  84.0882023  82.9191793   9.4727308  80.5201356  67.3975515  50.8444881
  80.8679692  67.8870487  50.0990772  79.8782770  66.8003225  50.4603481
  17.9771233  36.5805006  33.2210445  17.2902751  36.2803292  33.8163328
  18.6846125  35.9453726  33.3319640  20.9889674  13.9282429  75.2153301
  21.1996150  13.7379646  76.1294699  20.0776911  14.2204928  75.2353525
  44.9159527  13.4061575  49.9469614  44.4810629  12.5923061  50.2014112
  44.4892216  14.0809608  50.4749537  11.1625063  47.6725483  60.8496046
  10.4763055  47.0202684  60.9906387  11.2115943  47.7666998  59.8983145
  11.9207978  13.2842064  39.6188283  12.3457766  12.4852860  39.9308395
  12.5819635  13.7096417  39.0728450  16.1620367  38.5698795  60.7639170
  16.1419427  37.8922820  60.0881290  17.0730090  38.8631964  60.7819796
  96.0700719  30.1884985  82.3856735  95.4252343  30.8871508  82.2747707
  95.9881417  29.9304795  83.3037949  35.6111407  10.9104168  51.3738251
  34.7639585  11.2800503  51.6225910  35.5070686  10.6715250  50.4527760
   7.2895616  60.1402426  69.4979239   6.8633598  59.6429014  68.7998962
   6.6763753  60.8478975  69.6965647  21.1228681  45.9718752  73.3258438
  20.2262640  46.2306833  73.1128740  21.0758495  45.0236702  73.4480095
  25.4363298  60.0333118  51.7445707  25.5715036  60.0335979  52.6921749
  24.8241210  59.3138695  51.5901804  35.4679254  88.3926643  25.3348238
  35.7694472  87.6975931  25.9197980  35.9451243  88.2426824  24.5187265
  40.0838947  32.5392389  61.8222141  40.0403023  31.8636560  62.4989080
  40.4451895  32.0899343  61.0581303  34.5453668  77.5533199  60.6338501
  34.4567060  78.5030746  60.5542469  33.7691045  77.2804594  61.1229229
  41.9056559  29.1494298  58.5870266  41.2667370  28.4629202  58.7786579
  42.7031183  28.8660216  59.0341997  34.1245532  48.4982014  70.2436781
  34.3472600  47.9876947  71.0221434  34.5021367  49.3623257  70.4078341
  38.5146332   2.4437454  48.5226679  39.3924832   2.6641700  48.2111788
  37.9258132   2.8493342  47.8862572  35.3807950  25.3503370  77.6328945
  35.1019812  26.0458183  78.2285452  35.6329751  25.8084416  76.8311644
  15.6079090  14.1405642  56.2921906  15.9887934  14.0849507  57.1685839
  14.9254823  13.4693956  56.2845898  97.3844032  16.6209364  48.4988308
  96.9259314  17.4070132  48.7956715  96.8331532  15.8962607  48.7941265
  42.1662331  40.5801535  61.4989090  41.4342022  40.4061460  60.9072304
  41.8124962  40.4144239  62.3727703  25.5208477  58.0274911  20.7039339
  25.6612452  57.3994501  21.4125139  24.7347208  57.7130414  20.2574426
  35.2301884  12.3034573  11.9172132  35.1558399  12.1289527  12.8554296
  35.0886917  11.4520621  11.5032852  11.4438999  29.5017791  46.8779993
  10.6907666  30.0866842  46.7948866  12.1586120  29.9685597  46.4449453
  35.4348755  31.5269589   9.6455151  34.6022058  31.9952416   9.5854747
  35.4962611  31.0410857   8.8230848  28.3639264  40.1507616  68.6921120
  28.4911275  40.3634739  69.6166658  29.1922927  39.7549391  68.4212446
  16.5001965  15.0796282  49.3485546  16.0507703  14.5437527  50.0020742
  16.4069915  15.9766877  49.6692276  28.8648224  13.8623106  51.0082102
  29.3785524  13.2834423  50.4449797  28.8566923  13.4234846  51.8588543
  47.6060009  10.4007816  74.3371344  47.0035315  10.1368856  73.6417055
  48.3312798   9.7792870  74.2743111  11.8333113  20.0783014  47.0535564
  11.3761604  19.8943126  47.8741646  11.6360617  19.3259597  46.4956093
  34.2969966  61.6135311  61.4441347  33.8832235  61.2514353  62.2276592
  35.1115084  62.0032740  61.7617893  63.2179101  49.5741095  20.6124860
  62.3947795  49.3233199  21.0317594  63.1225666  50.5105481  20.4386312
  36.5939164  22.1030974  59.3458509  36.5081143  21.5659785  58.5582113
  37.5322151  22.1024799  59.5351315  32.8773308  49.2099667  55.4819345
  32.1867967  49.0319872  56.1204624  32.5527382  48.8294411  54.6657991
  14.8985187  82.1240128   8.1864721  14.4009296  82.4237026   7.4256593
  15.8102886  82.1335710   7.8952486  28.5657024  27.5850105  54.3750668
  27.6256132  27.4095893  54.4161797  28.8937092  27.3366904  55.2393436
  44.0588798  69.8638226   2.6589853  43.8119408  70.3461446   3.4480459
  44.4919576  70.5143787   2.1063024  16.8021822  47.3399496  53.7794065
  17.2695518  47.4069691  54.6120596  16.7316544  48.2433367  53.4709454
   3.6852247  16.5352368  59.7831392   3.4747010  17.3590565  59.3435621
   3.0531710  15.9080267  59.4319296   1.4859079  19.5916462  46.2253189
   0.7769787  19.2072201  45.7096958   1.0408653  20.1196265  46.8881941
  90.9266957  97.9120193  72.3995924  91.2423297  97.0093865  72.4427414
  90.4561873  97.9617048  71.5674925  74.4541391  92.7078499   1.7609579
  74.2086085  93.3496298   2.4273378  73.7158307  92.0993866   1.7308790
  37.0040393  42.4347925  58.5698795  36.1300468  42.0507765  58.6398792
  37.5151753  41.9919777  59.2472887 106.5608181  39.7057247  58.6606789
 106.0510695  38.9356804  58.9125156 107.0069341  39.4446516  57.8550386
  20.2136683  21.1144280  41.7681122  19.5740652  20.7633162  42.3876762
  20.9998775  20.5874920  41.9110918  41.9519329  25.9316540  49.3831205
  41.0235119  26.1009336  49.5431376  42.3143291  26.7861342  49.1491032
  30.7115793  47.8246021  72.8977633  30.7334447  47.9480076  71.9488001
  31.2143636  48.5606146  73.2466507  53.0636692  28.6499166  75.4517460
  52.1623087  28.7866950  75.1600695  53.0096149  28.6554837  76.4074039
  32.1357799  12.8697395  47.0564604  32.7043438  13.4356773  46.5342712
  32.1356535  12.0340681  46.5896797  21.3816762  17.5406516  47.5573874
  20.8567047  17.5248063  48.3576298  22.1863294  17.9946148  47.8077507
  11.7174065  19.0564716  63.6708784  12.0887530  18.4540939  63.0263090
  12.3040330  19.8127306  63.6577702   6.6221648  14.6210539  64.2358112
   5.7343102  14.8567867  63.9667797   6.9621658  15.4102635  64.6574450
 104.3279166  78.8017511  42.8566647 103.8645188  79.5998716  42.6026964
 104.3737591  78.8450432  43.8117838  18.7139797  34.3072104  55.9846735
  18.0409527  34.3519282  55.3055048  19.3892765  33.7380314  55.6155682
  43.9400005  40.6866455  19.3498731  43.9307404  40.5459929  20.2966380
  44.5764971  40.0525141  19.0197408  32.7724695   5.8917475  48.1057262
  31.9321871   5.4417801  48.1933832  32.6472807   6.4918226  47.3705626
  42.8113794  54.5088053  83.4620285  42.0616531  54.0525818  83.8441277
  43.3474588  54.7602415  84.2141151  50.0963259  21.8779945  82.5060368
  50.0652409  21.2793112  83.2522583  50.9722090  21.7580485  82.1390629
 103.7488068  34.4094801  54.4419575 103.6555017  33.5304523  54.8091602
 103.7942783  34.9845481  55.2058029  59.1744490  92.7378262  67.2929001
  60.1138206  92.9005099  67.2071743  58.7652751  93.5741336  67.0706415
  75.0280749  97.7834434  86.3141632  74.3518511  97.9659689  85.6617546
  74.5420935  97.5196726  87.0954990   9.6923769  22.2224045  84.0071583
   9.3419302  21.8372798  83.2039738  10.3729403  22.8247809  83.7068176
  26.6114736  23.7044239  55.4124689  26.4104199  22.9788351  56.0035086
  25.7594800  23.9828897  55.0766134  45.9954500  11.7673194  62.5328207
  46.5077305  11.8847823  61.7328167  45.0853682  11.8552816  62.2495461
  15.3453577  13.6399424  51.2987709  15.7632828  13.4784770  52.1446419
  14.5920002  14.1930544  51.5055323  30.9447527  63.0931282  55.5556393
  31.2076426  62.1739054  55.6020546  30.5176497  63.2627869  56.3953018
  92.9682096  96.6188217  38.3856583  92.5414713  96.7502678  37.5389910
  92.4559339  97.1482349  38.9968276  34.8781276   7.5219488  60.7946634
  34.2401743   7.0545173  61.3338804  35.0092077   6.9559628  60.0339365
  30.2165699  58.2825375  50.4370213  29.4251800  58.8203812  50.4113626
  30.9238815  58.8861990  50.2099943  14.0495086  60.5936909  59.4867277
  14.5393491  59.9331284  59.9765682  14.6552753  60.8844328  58.8049984
  40.6916475  37.4983335  86.3825703  41.5256834  37.0336628  86.4511204
  40.2082825  37.0243025  85.7058907  57.1670580  22.5828433  68.7678146
  56.7856550  22.0031333  69.4271326  57.2555017  23.4258604  69.2124844
  50.8223104  60.1661968  55.3696489  50.6198025  61.1005211  55.4171419
  51.0369492  60.0141191  54.4493055  16.4808393   4.3916529  40.7349491
  15.9597266   4.8754773  40.0941801  15.8767581   4.2256385  41.4586592
  44.4003439  27.1683264  56.9485855  44.7818661  27.7319145  57.6216698
  44.7246599  26.2923384  57.1576309  42.7838182  26.9211245  54.9338770
  43.4197950  27.0174170  55.6427431  42.4131203  26.0479188  55.0616550
  70.8160922  98.2316134  80.2665710  70.2158809  98.6822493  80.8606243
  71.4216467  98.9133216  79.9753475  95.1490085  14.4197995  27.1545106
  95.6016271  13.8330371  26.5486414  95.0979082  15.2536160  26.6872198
 101.0594495  86.6829307  17.3800468 101.2037381  87.1427364  18.2070839
 101.4154037  85.8067579  17.5278616  29.3846703  55.3152800  51.7862177
  29.2282915  56.2200737  51.5158033  28.5937786  55.0684738  52.2656012
  21.5788913  87.5623703  58.4253550  20.7023501  87.1791172  58.3933830
  21.4859080  88.3256721  58.9954042  34.9608183  29.6596050  11.7637599
  35.5165553  28.8880301  11.8735600  35.2334976  30.0339270  10.9260488
  23.1981754  26.1097813  32.7329278  23.2576370  25.1547480  32.7082372
  22.2733855  26.2878346  32.9040790   8.1262565  63.3442307  61.6785955
   8.1086355  63.0525780  62.5901127   9.0544665  63.4804964  61.4886236
  68.4562422  12.4483687  18.1015665  68.8586809  12.8815038  17.3487932
  68.5832803  11.5141112  17.9364759  14.0624487   9.1125917  45.9052801
  14.8243439   9.4262046  46.3925076  14.3829322   8.9915830  45.0114775
  14.2780423  90.7151890  65.8576250  13.5303140  90.9308720  65.3002977
  14.3556213  91.4604282  66.4533043   7.6441866  46.5266371  86.9933605
   6.8775678  46.3253069  87.5300121   8.2351768  46.9922733  87.5850868
  23.4195852  59.7289562  54.7904158  22.8773832  59.6706009  54.0037537
  23.8288569  60.5925131  54.7357082  18.0822718  83.5146809  47.2137737
  18.2037520  83.5760403  46.2662983  17.7017081  84.3573093  47.4615192
  82.9547934  15.6208426   1.3239748  83.3560853  16.3395936   1.8124372
  82.0164363  15.8080203   1.3500959  26.6678572  45.5671644  39.4567299
  27.1958971  45.0743198  38.8286304  25.8210826  45.1208544  39.4600582
   4.9351010  32.0363951  32.3005390   4.8558447  32.9888701  32.2481918
   4.4826329  31.7151785  31.5205860  54.0608263  51.2326765  62.6671696
  54.4521236  51.2969494  63.5383701  53.7842083  50.3191137  62.5956535
  45.2308846  43.4487295  58.2948446  45.8452797  43.4279442  59.0285444
  44.4587517  42.9828358  58.6157513  11.1405635  40.3451252  62.9616261
  10.7640564  41.2101173  63.1236792  11.6816187  40.4618931  62.1806908
  51.9389296  47.0741749  69.5398474  51.3111162  46.7314672  70.1759529
  52.6071215  47.5063848  70.0717735  17.5201166  23.2354975  19.5931792
  18.2542694  22.8758240  20.0910616  17.7335238  23.0442643  18.6798787
  57.5732183  17.7168870  26.5320396  58.3397293  18.0924177  26.0988331
  57.4747467  18.2314897  27.3331141  14.2815244  51.3175535  35.8371210
  15.0253987  51.8266058  35.5150223  14.6614611  50.4801464  36.1028790
  25.3327370  29.0685248  52.3057938  24.7065330  29.7599602  52.5203133
  26.1802292  29.5126963  52.2793436  41.5748739  44.7633934  48.4854746
  42.2301674  44.8684835  47.7957058  42.0591354  44.3875599  49.2206430
  86.4258282  65.1944160  69.3557501  86.4875094  64.7398806  68.5156155
  85.5402796  65.5576038  69.3671274  27.3474145  13.9848530  66.8789482
  26.4076543  14.1661537  66.8644381  27.5099397  13.6328077  67.7540970
  48.6463976  47.8927851  62.2873545  48.0658054  48.0866861  63.0232525
  48.2039309  48.2704735  61.5272141  42.0044231  42.4269390  69.6401215
  42.7109623  41.8044710  69.4681644  42.4219418  43.2860947  69.5788097
  57.5808144  41.7292404  80.0263596  58.2483530  41.1387348  79.6771812
  56.9410276  41.8123627  79.3192625  50.5346823  13.2897627  70.0629091
  49.5801258  13.2196546  70.0745583  50.8145571  12.8857398  70.8842945
  31.1202383  53.1203747  44.5226002  30.2637386  53.0417156  44.1025352
  31.0274673  52.6428318  45.3469610  55.2017593  31.5449119  64.2999029
  54.7680616  31.3495159  63.4692669  55.9284258  30.9233356  64.3427134
  45.6494284  54.1017342  73.2449579  45.6841850  54.7928667  72.5836229
  46.2979650  54.3629694  73.8987064  48.4638786  32.0673370  57.7690458
  47.9048014  32.7838159  57.4685144  48.7411594  31.6267776  56.9657660
  52.2800597  83.8452782  20.0146085  51.8869229  83.5119308  20.8211786
  53.1843217  83.5325517  20.0418741  37.5181651  66.2437963  40.9331846
  37.1579504  66.1296606  41.8126440  37.9433250  67.1010351  40.9578943
  48.5509976  58.8581397  15.0017435  49.2532845  58.7630005  14.3583375
  48.5106929  59.7986652  15.1750070  22.2860217  61.9138956  49.3316936
  21.9472885  61.1909151  49.8597002  23.0381584  62.2396564  49.8260641
  21.8861771  54.9703503  76.6472578  20.9547806  54.8610687  76.8390656
  21.9633579  55.8741951  76.3417530  37.4648309  25.1956391  40.5680943
  37.2220755  25.0586271  39.6523809  37.4103880  24.3254399  40.9630919
 106.6729204  39.8017032  10.0843603 106.2416307  39.4721610  10.8727819
 107.1698658  39.0538031   9.7528154  18.8110244  63.9643431  77.0064831
  18.4597850  63.4706974  77.7475452  19.7547174  63.8076496  77.0400190
 101.3331310  56.7849541  38.3609200 101.4409379  56.9756222  39.2927217
 100.8780931  57.5508499  38.0108070  15.0675786  75.3635168  78.5465193
  14.6844101  76.1871147  78.8483429  15.5724573  75.0457191  79.2950726
  41.9910479  54.2979145  58.7012815  41.8420076  53.7333393  57.9428101
  41.9676256  53.7031221  59.4508839  36.0005760  52.1361017  74.1169453
  36.5130901  51.4256859  74.5027876  35.5154967  51.7213964  73.4035397
  21.9825792  18.5341322  31.5803027  21.2521291  17.9529893  31.7923117
  22.7564621  18.0749929  31.9066906  50.0238276  44.0938997  67.1306467
  49.5745516  44.6095324  66.4609432  49.3205547  43.6415291  67.5964785
  48.2171774  49.9054813  74.1754246  47.3712969  50.0282717  74.6062803
  48.7012768  49.3222046  74.7599554  27.8003550  19.1763687  54.2666578
  28.1107330  18.3962417  53.8069820  26.9502521  19.3659532  53.8696527
 106.6563616  49.0222120  64.7540569 107.2142377  49.7920990  64.6432304
 105.8248655  49.2686319  64.3489361  24.2498541  69.6898270  39.9074030
  24.6827769  70.4231739  39.4703460  23.4094000  70.0454617  40.1961803
  53.1193781  46.7659140  64.3487453  52.8073931  46.8401670  65.2506256
  53.7571144  46.0525513  64.3738842  37.5413489  46.5846682  75.1646709
  37.0151901  47.3218012  75.4745531  37.7702117  46.1028814  75.9594917
  45.8122063  26.5200734  39.6060896  45.0606251  26.0389972  39.9523950
  45.5665064  26.7322826  38.7056279  10.1137114  49.3233633  76.1420822
  10.8478785  49.8739147  76.4143467   9.3374181  49.8547506  76.3188076
   2.2123469  59.9864578  32.6751924   2.1476784  60.9220171  32.4834061
   1.7732988  59.8841572  33.5195875  80.1981930   8.4716708   6.7174894
  80.1453857   9.0740592   5.9754831  81.0497151   8.6547620   7.1145040
  73.5682561 101.1439155  66.3947582  73.8761326 100.8032676  67.2346401
  73.3380284 100.3639817  65.8898497  24.5333123  51.5820312  61.4207792
  25.1825523  52.2841263  61.4629841  25.0483608  50.7764912  61.4661169
  20.5237246  62.8529215  41.8605614  20.2900481  63.7532616  42.0864248
  21.1247230  62.9398870  41.1206484  43.7634325  54.4612455  86.1386013
  43.4855556  55.1971912  86.6839504  44.6393490  54.7032738  85.8378983
  57.5148106  22.5205731  50.6300163  57.9879522  23.3503604  50.6918335
  56.7508888  22.7201843  50.0888968  37.3209167  23.6130023  48.9052105
  36.9602990  22.7379990  48.7618446  36.7368579  24.0098357  49.5514584
  90.2342328  90.4635323   2.9084760  89.3476256  90.3803529   3.2595235
  90.1191052  90.4379238   1.9585687  29.1377974  48.2609415  16.5276337
  28.4239388  48.7264156  16.0917771  29.8209906  48.9218140  16.6404569
  23.0975103  51.0882759  69.3909979  23.9091253  51.5395546  69.6230793
  23.3796716  50.3516102  68.8488388  32.2056770  69.6286392  87.6429653
  32.8489947  70.2639532  87.9572105  31.3761425  70.1062346  87.6460552
  32.5672698  61.3521481  65.2926874  32.5623584  60.8411217  66.1020470
  31.7189622  61.1692190  64.8887777  55.1161337  44.6423340  64.1629314
  55.5901766  44.5135117  64.9844694  54.7820568  43.7733746  63.9403772
  31.6357565  29.7649097  52.8675699  32.5799370  29.6667838  52.7445698
  31.5492272  30.2160478  53.7073469  32.0622921  39.0358305  26.7860460
  32.0741653  39.1633606  25.8374524  32.0283961  39.9219441  27.1464372
   4.5113513  60.0086355  55.0192213   4.8261151  60.8900595  55.2198458
   4.9866170  59.4407558  55.6257439  42.4207115  58.0428505  45.7538843
  41.9245672  58.8505745  45.8867359  42.3429060  57.5745153  46.5850544
  15.7852530  56.7683506  58.9195681  16.7299461  56.6270304  58.9813280
  15.5386698  57.1166897  59.7763586  65.5276966  72.0062447  60.3690434
  64.8247814  72.4606752  59.9046707  66.1945391  72.6781368  60.5108547
  50.9976292  11.9488800  85.3875256  51.0154438  11.9263196  84.4307518
  51.1148787  12.8730440  85.6075382  77.5686932  90.3465080  43.2710266
  77.2640038  90.0761700  44.1372299  78.0686283  91.1467552  43.4319639
  12.1410227   4.8741252   2.1143133  11.3119507   5.3471572   2.1858579
  12.1474648   4.2864758   2.8698617  23.4247828  81.5621662  41.5502501
  23.8513231  80.7448006  41.2929440  22.5250816  81.4720154  41.2361765
  21.3479233  38.7004471  84.4626522  20.5746484  39.2636037  84.4290352
  21.4207721  38.4483266  85.3831673  23.0503750  30.7593012  50.6294203
  23.0819535  31.6634297  50.3167152  23.3888841  30.8032036  51.5236902
  43.5351040  72.9784168  18.0302507  43.3563902  73.6953248  17.4217016
  43.9301088  73.4033550  18.7915880  35.6364441  43.7478352  75.7488012
  35.9909463  43.4094620  74.9265671  35.5902886  44.6949291  75.6179714
  75.6474980  78.1457724   0.1567155  76.3722905  78.2727446   0.7689077
  75.2155050  77.3470034   0.4593450  23.3739424  73.0740213  47.7746296
  23.6273217  72.8195047  48.6618996  24.0482450  73.6963844  47.5022078
  17.5477183  60.4653215  77.6648235  18.1241572  60.5176687  78.4271955
  16.7522776  60.9247208  77.9339981  20.7634211  58.7100124  58.7961769
  21.6041398  59.1600466  58.7131500  20.9611297  57.9256630  59.3079805
  35.1499653  44.8607302  64.4115353  35.2151537  43.9343262  64.1796780
  34.2091799  45.0350428  64.4393492  27.7803826  58.9491844  47.9189205
  27.9162717  59.0842342  48.8567543  27.7307248  59.8328638  47.5544024
  31.1050200  28.2267976  72.1826792  30.8636212  27.3848581  71.7965460
  31.5927434  27.9965830  72.9734755  33.5632420  25.3988218  43.6116219
  34.2967272  25.8686662  43.2147837  33.1901002  26.0208797  44.2361546
  16.6336763  76.3750648  34.3000698  16.4658189  75.7792950  35.0302148
  15.7996619  76.4220715  33.8326931  40.5866385  38.8464141  33.5004973
  39.6694922  39.1110086  33.5716367  40.9614897  39.0488124  34.3576741
  96.3114683  71.2891722  20.9100437  96.8643300  70.5605888  21.1924338
  96.9037549  71.8665743  20.4283476  48.3937836  43.4274530  86.7249489
  48.4002781  44.0470886  85.9953976  47.4850988  43.4211302  87.0257473
  30.1499200  49.7947311  51.7361736  29.6970367  49.2811203  51.0673428
  29.8986793  50.7001781  51.5537643  44.3033981  45.8488417  57.8441334
  44.7562599  45.0231123  58.0153704  44.8906708  46.3272047  57.2588873
  31.2753296  51.8434858  72.8363943  31.7569613  51.0211372  72.7469206
  31.1845469  51.9662905  73.7813282  13.6394179  50.4367828  40.4736233
  13.5359383  50.6642723  41.3976192  13.3010745  51.1969614  40.0004578
   7.4324518  48.5899353  80.4409313   6.8183213  49.2274237  80.8051872
   7.8048557  48.1518078  81.2061691  22.0937300  48.9397573  30.0641513
  21.3627982  49.5266533  30.2578616  21.7139983  48.0621338  30.1067519
  43.0669212  87.9837799  68.5084486  43.4795046  87.9346466  67.6461267
  43.7240744  88.4017849  69.0649128  25.9346366  36.1487079  78.1606817
  25.1128578  36.5241480  78.4768438  26.1963749  36.7194080  77.4381685
  76.1304296  34.0007884  21.1217672  76.8921201  34.5240504  20.8722478
  76.4319448  33.0944068  21.0602361  88.4442572  57.6370621  69.8344517
  88.6020474  58.4539652  70.3077459  89.1879992  57.5589180  69.2369795
  16.8532503  43.3315229  83.0969620  17.5413764  42.6675844  83.0533695
  16.6455054  43.5215855  82.1821117  92.7112874  80.8052815   1.5836603
  92.4088772  80.5441965   0.7138235  92.1933421  81.5822495   1.7940885
  89.0657822  28.1009483  53.3835506  89.9217967  28.5117817  53.5047340
  89.0942327  27.3204088  53.9368820  51.0384226  40.2265167  45.5874252
  50.9555531  40.2804375  46.5395021  50.1363611  40.1788950  45.2708054
  59.3867548 100.4240097   2.1163541  59.8357781 101.2536682   1.9542486
  59.9448069  99.9688591   2.7469427  20.3786588  40.1583242  87.8830338
  19.5963252  40.5489731  87.4937057  20.7742858  40.8680344  88.3890247
   9.0273388  57.9042132  10.9882337   8.8408741  56.9655610  11.0081083
   9.4169196  58.0891611  11.8427831  25.1874781  57.4936152  72.0788383
  25.4263878  56.8446827  71.4169931  24.6647644  58.1393480  71.6034126
 102.0929823  38.6279511  57.7525854 102.9759653  38.7683725  57.4107456
 101.5172241  38.8044453  57.0085526  11.3327444  28.1492758  79.6941662
  12.0827806  27.7628994  79.2420721  10.5902410  27.6029801  79.4363260
  33.2510090  10.4179525  58.6423779  32.8988624   9.5664579  58.3831882
  33.2683802  10.3888273  59.5989799  22.4455476  78.5850430  65.2304840
  22.0349598  77.7906990  65.5720472  22.0146275  79.2986679  65.7008886
  44.5081520  28.3226466  51.2285042  43.9437056  28.5957789  50.5052948
  43.9300156  28.3081460  51.9912529  46.6260576  25.4244828  54.5632839
  45.9330082  25.1531363  53.9613819  47.1909475  25.9913874  54.0381718
  50.1294470  28.0450583  76.6288519  49.2832804  27.5984955  76.6003132
  50.1654673  28.5424113  75.8118010  17.5264871  47.3831129  28.4673500
  17.9964805  47.1451759  29.2665505  18.0360281  48.1028652  28.0951214
  33.5684037  39.9088287  48.0296850  34.5150304  39.8683667  47.8937101
  33.3069897  40.7461977  47.6466513  28.5419846  26.8504858  57.2079372
  29.2355633  27.1464658  57.7974939  28.6459422  25.8995461  57.1741724
  35.0140190  58.2518435  51.6615391  35.3537941  59.1332245  51.5067720
  34.0928960  58.3859968  51.8846273  63.3922969  14.3297107   0.3376657
  63.9670537  14.3749864  -0.4264277  63.9756106  14.4647605   1.0844881
  27.3499370  67.2393227  49.0969467  27.0947671  67.7971125  49.8317862
  28.0078983  66.6478920  49.4623661  68.0024656  75.0166549  10.1195032
  67.1296533  74.8309649   9.7731573  67.8446897  75.3353990  11.0081750
  22.7352667  36.7284966  45.7689810  23.0577159  37.5616884  46.1125660
  22.1884847  36.9728613  45.0222874  64.9525033   4.4308001  13.7326509
  64.8252634   4.7559888  14.6238786  65.9000067   4.4601781  13.5999567
  54.2658710  51.8891811  65.4357529  54.9078417  52.3447752  65.9803057
  54.0713501  51.0849142  65.9169483  46.5860891  26.6598463  67.0131969
  46.2867451  27.3158669  67.6426888  47.3754930  26.2906504  67.4091387
   3.9387092  43.4283590  77.9629612   3.9560989  43.1496620  77.0473957
   4.8539269  43.6119509  78.1748629  38.3625388  60.8491564  72.5123262
  38.9179349  61.5673304  72.2090197  38.1452942  61.0794401  73.4156561
  60.2657287  16.1021811   7.0227796  60.2164034  15.7925708   6.1183721
  60.3623931  15.3051001   7.5438768 102.8793148  52.6850176  38.5064507
 102.1533565  53.2445478  38.2305145 103.5061250  53.2866430  38.9081812
  14.7939396  32.7788854  62.4534798  15.0917482  33.2649899  63.2224035
  14.9596691  31.8615890  62.6710367   5.1772273  45.8272266  70.0832939
   4.6861643  45.0946236  69.7113037   4.5080316  46.3937140  70.4673529
  43.6839008  82.6999474  47.6864767  44.1690111  82.7554989  48.5097742
  43.9753342  83.4613419  47.1849108  13.1778991  50.2186966  66.7849112
  13.9214575  50.2531767  67.3867130  12.5327492  50.8137083  67.1669769
  42.2511101  57.1183586  34.9475527  41.5898323  57.7882147  35.1214409
  43.0832958  57.5905323  34.9749088  20.4763865  26.9151926  71.9463682
  20.5175209  27.2385192  71.0463715  19.5424294  26.9082093  72.1559095
  15.9078860  53.0119610  65.4751492  15.0467777  53.0479574  65.0587034
  16.4513206  53.6020994  64.9529934  17.9436016  31.0072684  71.1436892
  17.7048016  30.1316428  71.4478111  18.7521935  30.8765483  70.6483889
  25.1365948  78.1893253  79.1870356  24.2635608  77.8536606  78.9836311
  24.9758720  78.9630842  79.7271252  24.7743845  67.5490618  71.3625431
  25.4236889  66.8670559  71.1907864  25.2266073  68.1726599  71.9307423
  14.8967624  58.2947779  61.1601639  14.0512228  57.9009390  61.3750744
  15.2023757  58.6711454  61.9854975  32.9716873  84.4695950  87.5624847
  32.1122956  84.0717030  87.7016258  33.3098412  84.6238899  88.4445667
  23.4633064  81.5467930  50.7048321  23.7786818  82.2380161  50.1226139
  24.1629052  81.4385796  51.3491011  13.5171282  78.3935356  65.4822350
  14.4280052  78.2628727  65.7457924  13.4181428  79.3439198  65.4256344
  45.1848841  45.3784561  50.4727936  45.0769281  46.0703850  49.8202467
  45.7172060  44.7154903  50.0330877  29.2804527  63.7357426  64.2094898
  29.2398286  64.6608734  64.4517994  29.6067452  63.2965374  64.9948978
   4.5606613  10.3949077   2.0440370   4.2910290   9.5076568   2.2813493
   3.8096786  10.9426553   2.2725660   4.2172650  33.0373931  37.9667997
   3.9845812  32.3005533  37.4018574   4.3344107  32.6473737  38.8330531
  20.6575346  52.3496008  27.7638531  21.4049935  52.2153568  27.1811724
  19.8993647  52.0753145  27.2479272  36.0494637  54.7972155  61.6181374
  35.6753182  55.3848028  62.2746372  36.3024282  54.0169191  62.1114779
  51.1490345   2.2929418  35.7708073  51.8435526   2.0490763  36.3826966
  50.5738783   1.5282729  35.7441974  39.3566513   3.4842069   6.2401563
  39.4487715   4.1399152   5.5489332  38.5330343   3.0393893   6.0401041
  58.0536207  90.9135069  24.1901380  58.5075077  90.1867880  24.6168691
  57.4078902  91.2039198  24.8342878  34.1838193  30.3986788  52.4178410
  34.3562722  29.9891686  51.5700245  33.6350656  31.1552501  52.2111940
  13.2769597  45.2965212  71.3386583  13.2195663  45.2599764  70.3838825
  13.9636385  44.6680164  71.5615606  14.8965836  65.8152342  52.0107889
  15.3088725  66.0584354  51.1818695  14.1013360  65.3480530  51.7547560
  46.8190432  49.1305113  79.7113085  47.7248859  48.8998413  79.5052195
  46.5008974  49.5763779  78.9263105   0.7147050  20.6018836  11.4271337
   1.1488819  20.1508529  12.1512205   1.4253116  21.0350758  10.9542543
  12.4716914  60.8206367  82.3996544  13.2527566  61.3647223  82.5003529
  12.8084290  59.9264574  82.3424053  21.3677526  67.8468943  64.1559076
  20.8839560  68.2472849  64.8783064  22.2779512  68.1018400  64.3068075
  95.4459147  65.2455521  84.1995811  95.2584080  66.0979462  83.8065243
  95.7191531  65.4491711  85.0940704  44.2094994  59.0022373  58.7310505
  44.8727083  58.3459902  58.5172081  43.3759356  58.5690546  58.5473013
   8.7843460  54.3122816  64.7527838   7.9604983  53.8250065  64.7444773
   8.9830267  54.4310236  65.6815767  34.8337746  70.5013084  63.5194588
  35.1059198  71.1078453  64.2081451  35.4327321  69.7593832  63.6033010
  32.0172572  62.7847815  59.8605442  32.9076409  62.4412155  59.9340963
  31.8212843  63.1306124  60.7313061  22.4874544  52.0994759  84.0613842
  22.3333287  51.1553049  84.0932846  23.4402084  52.1856642  84.0287876
  29.4905224 100.0568499   0.2859766  29.6197643 100.0433983   1.2343103
  29.7280689 100.9464659   0.0244695  38.6896443  57.8717470  45.7393932
  37.8068161  58.2025385  45.9049892  39.2677951  58.5808945  46.0206079
  36.4220977  76.1618757  75.0558281  35.6310940  76.1903906  75.5940962
  36.0983777  76.1417055  74.1552544   2.1799465  14.4916940  32.4555230
   1.9205987  15.3202581  32.0524693   1.4057106  13.9343798  32.3768377
  22.8068066  79.9129677  25.3211975  22.2100592  80.5246067  25.7524991
  22.3413491  79.6420050  24.5298934  30.1379657  69.8087502  81.7420769
  29.8335314  68.9421463  82.0114231  30.3291512  69.7160530  80.8087540
  41.0475874  34.6005845  87.1753120  41.6704226  35.0211978  86.5825176
  40.3829241  34.2255139  86.5975761  34.2851043  51.2981081  55.7520962
  33.8598871  50.4504681  55.8821964  33.5694528  51.9328499  55.7864189
  34.5678449  73.2725763  52.8165722  35.4835796  73.4349298  52.5900602
  34.5675683  73.1928539  53.7704468  24.2403674  81.6105938  65.1839733
  23.3866572  81.5556622  65.6133842  24.0951943  81.2389278  64.3139076
  46.5101910  54.5959473  60.7692003  45.5762434  54.7999907  60.8175421
  46.5680695  53.8897371  60.1256561  44.7514820  74.3472147  72.2181368
  44.2370653  74.7086191  71.4963388  45.3516769  73.7304020  71.7991686
  17.2045600  25.0055909  71.3232231  18.0505729  24.5652151  71.2421942
  16.8435442  24.9957442  70.4367638  19.8928380  98.9589119  72.6376867
  20.1892543  99.2436886  71.7732382  20.6652546  98.5571289  73.0353975
  45.0670958  47.8610802  61.7117882  45.7935715  48.4685802  61.5724802
  44.9281263  47.8670502  62.6588297  19.2342043  59.8914528  68.0912495
  19.2488563  60.8477926  68.0533648  19.8744416  59.6159267  67.4351931
  54.1595602  73.6136293  72.8363419  54.2729473  73.5088873  73.7810135
  54.5722008  72.8372002  72.4580383  25.5623746  56.7020369  36.7522860
  26.3035989  57.1005726  37.2083426  25.9508634  55.9971619  36.2341523
  44.3380499  42.1090603  48.3909941  44.3092108  42.3130178  47.4562216
  44.8194933  42.8388691  48.7806416  70.3520298  87.9118633  65.4120302
  71.1167717  87.6834679  65.9404612  69.6498871  88.0402184  66.0497999
  47.5649118  48.7820148  64.8966599  47.8269577  49.6985388  64.8097897
  46.9274998  48.7818050  65.6107616  24.5388532  66.8024969  40.5911779
  24.2139816  67.6970291  40.4887009  25.3803492  66.7995548  40.1349878
  45.6543016  54.9354887  57.4369621  45.5438995  54.0334558  57.7376032
  45.3347492  54.9280453  56.5347099  40.0650644  50.6005859  56.1927891
  39.6925092  51.1819553  56.8556929  39.3674946  49.9723339  56.0058880
  67.6287746  69.6908951  52.4221325  67.1380615  68.8824892  52.5701714
  67.7481318  70.0621223  53.2963037  27.5391340  82.1592712  60.8614683
  27.6096559  81.7322254  60.0077152  26.6872025  81.8818951  61.1983728
  39.0691495  73.9241076  51.1930180  39.6975160  73.9429379  51.9148445
  38.7554812  73.0200052  51.1720467  14.5275736  62.5041723  83.0049515
  14.9484861  63.3109617  82.7080441  15.2545917  61.9191504  83.2180786
  51.9041157  46.3769341  66.8379879  52.1376371  46.8771887  67.6199341
  51.6532040  45.5153036  67.1709585  75.9610844  67.3045492  79.9198341
  76.4902115  67.8096867  80.5371571  76.5034008  67.2436619  79.1334391
  19.5852757  32.0062757  47.2265911  19.4689739  31.5970588  46.3691235
  20.4390597  31.6946483  47.5268793  30.1104641  43.1139898  65.8164263
  30.1923776  42.8421545  66.7305565  29.6510696  43.9527988  65.8562326
  20.2102280  77.8682566  15.7853067  20.0019813  78.2739401  14.9437094
  19.8409045  76.9872761  15.7244360  54.6012020  88.1145096  61.9868231
  54.3005133  87.5183964  61.3009214  55.4330158  88.4565163  61.6591835
  47.8126192  61.2781668  63.7124681  47.6129150  60.3490782  63.5978127
  48.2427073  61.3271236  64.5661974  35.3889728  67.7857780  46.9680262
  34.5190406  68.1500816  46.8045187  35.5049562  67.8586245  47.9153776
  63.0378246  82.2050762  62.2034550  63.8798475  82.6432133  62.0798779
  63.1585169  81.6713810  62.9888391  31.2689686  44.4938421  36.2983894
  31.7108893  43.7222481  35.9440136  31.9072843  44.8815870  36.8970871
  34.1316772  63.0020475  52.9570436  34.2849112  63.8162899  52.4777126
  33.7888932  63.2842016  53.8050508  32.9786777  66.4054728  56.7953014
  32.5775838  66.6806078  57.6197147  33.4069657  65.5749512  57.0027590
  33.7401247  55.1209211  52.9033995  33.1393242  55.8073854  52.6135111
  34.4939709  55.1998615  52.3188353  40.6399822  75.3938293  68.5737944
  40.6196117  76.2981844  68.2608080  41.1037493  74.9134111  67.8879738
  63.8937330  93.8249588  72.3505211  63.8263845  93.7518501  71.3984966
  64.7944498  94.1092682  72.5057793   3.9357007  18.6666977  64.0225124
   4.1147158  18.4927392  63.0984354   3.0027381  18.8789749  64.0499163
  29.6808171  88.8434315  58.7829018  30.0432396  89.5199013  59.3549871
  28.8098979  89.1664982  58.5518932  73.6419678  60.3520870  75.2654076
  73.3632517  59.4391298  75.1943016  74.5531654  60.3478575  74.9722624
  30.2565455  38.1749010  51.0222244  30.6261301  38.9480376  50.5957317
  30.9391594  37.8862095  51.6279697  53.8853168  95.1645279  55.2388859
  53.8464260  94.8277664  56.1340427  54.6415186  95.7513714  55.2364016
  23.9346552  64.5460129  56.6789150  23.5062361  64.6676064  57.5262070
  24.1275358  65.4341125  56.3784075  28.3321023  74.8268414  57.5221252
  27.4582195  74.7565174  57.9063320  28.5527158  73.9320612  57.2634172
  53.3669567  48.7185383  62.3635769  53.4826946  48.1391335  63.1166506
  52.4328899  48.6648798  62.1614122  57.6911068  48.4299660  64.3538284
  57.4558783  49.3549681  64.2812347  58.3717918  48.4080076  65.0264502
  38.6189294  47.8243542  43.7607861  38.9206696  48.4706926  44.3990850
  38.4896803  48.3253050  42.9554462  11.6829050  92.2752762  72.0868778
  10.8514142  92.0316505  71.6800594  11.8165362  93.1878471  71.8307972
  14.9948084  45.9415960  45.2377701  14.3772328  45.5062580  45.8254051
  15.6171620  45.2563810  44.9940634  42.8637695  63.0113554  64.9790192
  43.7860966  62.8997469  64.7486115  42.6591301  62.2509480  65.5232000
  20.1079893  48.3541870  52.7323866  19.3278205  48.9083576  52.7109957
  20.2899337  48.2325983  53.6642361  96.9056014  60.0183105  88.1794167
  97.6824884  60.4660320  88.5144138  96.5892247  60.5829048  87.4741745
 108.1134793  41.9292259  45.5388451 107.7567258  42.7844763  45.7786417
 107.8956878  41.3627672  46.2790632  42.9217672  68.4107256  58.9894819
  42.3731041  68.7498474  58.2822371  42.3344564  67.8566551  59.5035887
  41.9491005  86.1347485  72.4255323  42.5861120  85.5102921  72.0783949
  42.4128056  86.9721127  72.4305630  25.1083541  91.4058685  80.0520897
  24.9311614  92.3379421  80.1788998  26.0280704  91.3705063  79.7892094
  51.2275410  54.9614334  58.2303095  50.6398106  55.2267504  58.9377117
  52.0320034  55.4551506  58.3894205  58.8136816  70.0141716  55.8082294
  59.1882801  70.3726578  56.6128397  58.0982399  69.4526052  56.1065865
  35.4703093  69.0845108  59.8074055  35.6592536  68.2125616  59.4606590
  36.2792921  69.3484402  60.2457237  31.6956830  76.8564606  54.6582270
  31.4666295  76.8853617  53.7292862  31.2390709  77.6056480  55.0409222
  44.9176788  70.5724382  63.7142611  43.9955807  70.6615877  63.9551497
  45.0067949  71.0881615  62.9128122  36.8543506  47.1160269  50.3900099
  37.7481580  47.2733068  50.0857067  36.3134718  47.2166109  49.6067047
  89.7205790   0.5963176  55.1061583  88.9128598   0.0830214  55.1248360
  90.1361998   0.4196494  55.9501266  53.5671377  95.2218246  58.4502602
  53.0270290  96.0103703  58.5022831  53.3429193  94.7255802  59.2374659
 103.7929655  58.5723591  67.2936106 104.3961458  58.6121368  66.5514374
 104.2941649  58.9253187  68.0287647  21.5224218  57.8876734  55.8925819
  21.9564724  58.7394094  55.8438253  22.0205927  57.4022770  56.5501881
  23.5693264  33.3182532   5.2892477  23.1752062  33.4660727   4.4295675
  23.3299017  32.4183947   5.5109769  50.9715271  48.1315851  60.3358269
  50.1685381  48.3072519  60.8263159  50.6680250  47.8247833  59.4814301
  96.9569938  45.9700203  69.3395472  96.9984690  46.4797878  70.1486492
  97.6702968  46.3148260  68.8023901  12.4602592  52.2499323  74.4189453
  12.6986563  53.1208563  74.1013145  11.6319227  52.0537853  73.9812088
  28.4458423  81.2933731  57.9521894  28.0647564  80.4506397  58.1987572
  29.0361977  81.5096378  58.6739540  49.0108347  55.8415604  59.5975161
  48.4428167  55.1180649  59.8623562  48.7312031  56.5773487  60.1421833
  39.4920254  50.2965069  51.4857435  39.2456079  50.5042839  52.3870420
  38.7309146  50.5518150  50.9644365  56.1279058  69.5841503  66.8110323
  56.2998533  69.3634319  65.8956337  55.9918928  68.7391710  67.2396708
  40.9318781  58.6145258  58.7580109  40.7060242  57.7063322  58.5570049
  41.2232876  58.5927582  59.6695137  23.5003853  65.2138662  49.1027260
  24.1098142  64.7124004  49.6443605  23.8314366  66.1113071  49.1378450
  10.2439082  70.9717274  50.9338665   9.5428938  71.2728262  51.5119219
   9.8108929  70.8121729  50.0952530  38.4050965  79.3339205  56.4485693
  37.5377131  79.0906811  56.1249733  38.9370513  79.4303751  55.6586599
  27.4520469  46.7289114  12.3570836  26.9096398  46.6139507  13.1373453
  28.2230663  46.1853170  12.5191486  34.3843889  77.2763014  67.5779009
  35.1708484  77.0981455  68.0936289  34.1024995  78.1453466  67.8634310
  28.7447190  77.4326849  68.4452152  28.8447118  76.5304184  68.7487745
  29.4862914  77.8988314  68.8312292  38.7021446  51.5586233  58.3108568
  38.5163045  51.9136715  59.1801310  38.8902330  50.6329012  58.4654331
  76.1546000  11.2059634  53.6203241  75.6736310  11.9013637  54.0690088
  75.9739765  10.4193252  54.1349220  78.4807356   1.3247722  57.0241404
  79.1503676   1.4957278  57.6864147  78.7822302   1.8006652  56.2502813
  52.2955608  80.4513168  58.1565857  53.0685806  80.2489090  58.6835670
  51.8477726  81.1428070  58.6439848  20.2861691  37.1711738  19.2089731
  20.4099178  37.4979026  20.1001340  20.9729052  36.5137774  19.0973741
  56.8515539  99.9356365  85.1203537  55.9473705 100.0999641  84.8526096
  56.9151402  98.9822197  85.1767349  79.1733265  77.4531555  69.8902464
  79.0854263  76.5010786  69.8449707  78.5522223  77.7190590  70.5682993
  47.4059153  52.5106287  84.2278671  48.3053398  52.8254890  84.1377163
  47.1071339  52.3783731  83.3281612  76.2720919  68.5548592  85.6726170
  76.7617559  68.1385756  86.3819599  76.2930918  67.9160786  84.9600506
  77.3401356  68.7247419  66.6038561  78.1638908  68.4572124  66.1963224
  77.1544170  69.5846128  66.2265444  67.0885944  77.3321295  25.8704591
  67.5009680  76.9591475  26.6496038  66.2172604  77.5977182  26.1645198
  22.6610970  82.1933365  37.5020146  23.2802057  81.6903973  38.0311537
  22.6968122  83.0774021  37.8672409  27.4697542  27.1112019   1.8922788
  28.0628491  27.5656421   2.4905759  26.8787623  27.7944953   1.5759450
  61.2528849  64.4919443  57.6935434  61.2350321  63.6199045  58.0878258
  61.0426521  64.3423843  56.7717695  95.1614436   9.9068683  32.0469189
  95.1360520   8.9754146  32.2659564  94.9570950  10.3519671  32.8693318
  59.8862934  80.3371620  38.9236426  59.4024467  80.9631538  39.4624043
  59.2112827  79.7701120  38.5507584  83.2052898  62.4768877  39.4733238
  83.2653713  62.4755096  40.4286337  83.8189602  63.1570196  39.1957259
  67.9762697  86.0083961  88.0146122  67.5460625  85.8196831  87.1806240
  68.7018061  86.5885925  87.7839565  63.8561773  89.3446350  62.2235012
  63.0978775  89.4064045  61.6426420  63.9270353  90.2138233  62.6181221
  47.5469780  73.6431170  67.0017529  47.5272369  74.3242502  66.3295174
  46.7310047  73.1587601  66.8759871  68.4205341  99.0408802  57.4835205
  69.2099571  99.3251228  57.9442263  68.4267712  98.0870628  57.5636864
  26.8500606   1.5119403  53.5233927  25.9842006   1.1777728  53.7576008
  27.1939365   0.8709472  52.9012156  78.1122208  64.0812349  67.0078325
  77.6256752  64.0316010  67.8306580  77.7205324  64.8201323  66.5421677
  93.9818478  85.9169292  73.0753183  94.4736195  85.3683090  73.6863899
  93.0662632  85.6819344  73.2259989  43.1574202  99.0535164  60.9491491
  43.1184340  98.6184120  60.0974464  42.4691486  99.7176075  60.9105778
  60.0642061  87.0025730  49.3773174  60.5197048  87.0000362  50.2191877
  60.5897570  86.4296818  48.8189125  54.9334192  58.4206009  81.8354607
  54.6817875  58.7185335  82.7096176  55.3477097  57.5702810  81.9822598
  65.4906511  86.4326191  83.1232738  64.8364973  86.2913990  83.8076496
  64.9777699  86.5950966  82.3315716  65.2217054  79.3628550  60.4879427
  65.7242918  80.1478004  60.2700090  65.8154297  78.6371613  60.2953339
  53.2338047  42.8440482  24.0401346  53.1386566  43.7882811  23.9152032
  53.0670643  42.4699695  23.1749803  79.4762135  81.5131569  71.0078859
  80.3961754  81.4974689  70.7439709  79.4783211  81.9536018  71.8577290
  54.5095253  71.9174814  59.0483046  54.8958397  71.9805956  59.9218082
  53.6434555  72.3146200  59.1401720  63.1251907  77.7910185  45.9027004
  62.4526310  77.5528288  46.5407944  62.6952887  78.4225941  45.3260517
   9.0981484  20.1274211  11.2081796   9.5002699  20.9672410  11.4300710
   8.1737471  20.3336484  11.0696680  90.5469608  64.7236443  87.5578308
  89.6509743  64.7932482  87.2282887  90.9276867  65.5877304  87.4008751
  77.8378582  64.6118355  76.4390850  77.3820019  64.5639801  75.5987644
  77.8854799  63.7036800  76.7377901  41.0198212  90.0059223  76.1798906
  40.3142643  90.4443073  76.6555405  40.6338787  89.1807842  75.8858967
   8.9314824  81.4407635  85.6529045   8.3571541  80.8011246  85.2319145
   9.6503544  81.5619850  85.0326157  60.4039669  87.9448891  45.3957891
  59.9182320  87.1201611  45.4062605  59.8502731  88.5551643  45.8828497
  54.5492506  80.3820038  59.9767733  55.4948282  80.4569721  59.8483801
  54.3520498  81.0065937  60.6747866  54.3743849  72.7444267  64.3613243
  54.7008991  73.3711386  65.0069666  53.4314489  72.9053926  64.3268490
  30.2234364  38.0284507   7.3234827  29.7322560  37.2489936   7.0638258
  30.3488255  38.5149772   6.5087396 105.5343096  46.3196284   9.3179399
 106.4724795  46.4774043   9.4236452 105.1417343  47.1925265   9.3303949
  56.9896412  83.3878613  76.9500113  56.6168737  84.1118717  77.4530888
  57.8551149  83.2494640  77.3347616  36.5595269  94.0023899  75.1868773
  36.8837619  94.3978214  74.3777180  35.6146765  93.9257526  75.0541496
  60.0950718  78.0373192  34.1527724  60.7158375  78.7361383  33.9465427
  59.6694183  77.8410625  33.3181858  45.6402493  26.1141831   8.4523946
  45.7376099  25.1647145   8.3798105  44.7355461  26.2829883   8.1892473
   9.2833416  22.2299140  63.9354038   8.7541954  22.9838508  63.6750317
  10.0101654  22.2208636  63.3126020  57.7783060  77.0140219  57.0818806
  58.3303547  77.0850658  57.8606176  58.3651543  76.6838026  56.4015913
  96.4098263  81.3162708  62.7301788  96.0846138  81.2948418  63.6301851
  97.2178650  80.8037376  62.7552176  50.7386923  92.1063519  81.6803646
  49.8939276  92.5409603  81.5632153  51.0709238  91.9848633  80.7909298
  55.3456688  62.6230192  81.7816639  55.2812433  61.6837215  81.6090298
  55.0832891  62.7167845  82.6974106  30.3478789  70.3146648  75.9873867
  30.8392525  69.8198605  75.3316784  29.4579625  69.9663544  75.9329796
  42.1540213 100.3922653  73.4211111  42.7135944 101.0288620  72.9763079
  41.4710093 100.1865292  72.7828312  59.1785431  69.1352892  83.1108475
  60.1072073  69.2827511  83.2899475  58.8329935  70.0043488  82.9069805
  45.6289196  63.1111574  54.7438097  46.2036896  63.1484270  53.9792919
  46.2232447  63.1570768  55.4927397  19.2877853  79.3503714  54.0829706
  18.7954307  78.5567522  54.2927027  19.7307777  79.5802784  54.8997498
   8.4902366  60.2878714  57.5107813   8.0344089  60.7898617  58.1864023
   7.7894004  59.8926735  56.9922447  53.0170250  67.3209953  58.2817459
  53.1370258  66.4103174  58.0124903  53.8986778  67.6934052  58.2665920
  59.9933481  75.8670807  81.8866253  59.3831444  76.6042328  81.8645191
  60.3572226  75.8838320  82.7718067  27.9727984  21.7534072  10.8961565
  28.1834078  22.5693375  10.4421312  27.4933672  21.2360913  10.2490312
  48.1707668  71.5696764  59.9839115  48.3874607  71.3981628  60.9003496
  48.0322123  72.5159359  59.9435997  60.9954405  66.3345766  53.2058954
  60.2776670  66.6204643  53.7709618  61.1536646  65.4256678  53.4610081
  40.5771399  91.3464928  60.4492188  40.0079823  92.0008850  60.8542585
  40.3786707  91.4021015  59.5144701  98.5775908   5.9967082  68.4625626
  99.4184264   6.2407153  68.8494635  98.6289366   6.3113254  67.5600052
  45.2031088  90.1218891  69.7340345  45.5353737  90.1757908  70.6300926
  45.2866077  91.0126114  69.3936300  41.4579487  74.1303682  66.2237453
  41.0177469  74.5673370  65.4946995  41.8677902  73.3605051  65.8293152
  60.9678745  75.4498482  31.1421943  60.1830244  75.9389544  31.3892150
  61.3955736  75.9991980  30.4852939  20.6529427  12.4789292  26.7308885
  20.5957079  12.1388585  25.8379728  21.5335941  12.2418076  27.0215112
  57.3740911  83.1621838  71.8190718  57.4633408  84.0222263  72.2296667
  56.4391470  82.9651928  71.8765545  57.8494072  64.9976635  63.4751272
  58.1339264  65.8823919  63.2459307  56.8935394  65.0476789  63.4818888
  49.5916939  77.2606468  50.6260633  48.8992882  77.6914883  51.1272478
  50.4038811  77.6276636  50.9751844  43.5757685  79.9820852  45.8167219
  44.2646646  80.3107834  46.3943148  42.7629423  80.3056431  46.2051153
  57.4838924  64.4657183  53.4935760  57.3111916  63.5563803  53.7375212
  57.6956129  64.4274139  52.5608730  62.0976877  63.3777952  52.4110603
  63.0071688  63.0926228  52.4991035  61.8068361  63.5316610  53.3099318
  67.5099754  49.2488575  83.2881546  68.2963085  49.6576309  82.9264736
  67.8310728  48.7102079  84.0113354  36.4646411  58.9951992  58.9224052
  36.8128443  58.6444426  59.7421312  36.8554616  58.4468746  58.2420874
  34.4759655  87.0493984  64.7867727  35.3967905  87.0301723  64.5261097
  34.4834948  87.4305534  65.6647778   2.0815603   3.4837287  40.2448273
   2.1966926   4.3117946  40.7109594   2.8395454   2.9578250  40.5000210
 105.9448536 101.0119499   4.4848901 105.2460249 100.3610720   4.5499403
 105.5448063 101.8246235   4.7943288  78.9523458  78.8815641  83.8539410
  78.4089422  78.8658571  83.0660915  78.5460472  78.2411766  84.4379330
  71.8832254  96.4184666  82.0169353  71.5017700  96.7599678  81.2081718
  72.7253389  96.8671703  82.0926952  59.7870350  81.7781448  63.8560629
  60.3107738  81.9791603  64.6316385  59.4132042  82.6196957  63.5947895
  51.6302824  75.2408791  63.7359619  51.6249514  74.2874289  63.8204432
  52.0146990  75.4028463  62.8744411  20.1165001   0.2573150  78.6570787
  19.5163624   0.5442374  79.3453693  20.9397213   0.0844043  79.1138554
  66.9254875  61.6003227  55.8350515  67.1717024  60.7635498  55.4408264
  67.7583981  62.0441866  55.9946632  26.6087103  84.5342159  60.1274347
  27.3673964  84.1544056  60.5705738  25.8641768  84.0258026  60.4490232
  19.3811504  17.4494403  64.2088842  19.9730293  17.1668380  63.5117149
  19.7358123  18.2901805  64.4980288  43.5305738  97.6107216  83.5076141
  43.8092804  98.3930779  83.9835072  44.2150974  97.4719715  82.8530884
  22.9440451  57.3916823  15.6723863  23.8654232  57.1354300  15.6320268
  22.4863386  56.5972907  15.9474737  59.8580980  62.6540279  78.6117411
  60.2792025  62.2469091  77.8546667  60.0855732  62.0850229  79.3470764
  56.8208504  71.0506439  69.9965715  56.4749193  71.4136696  70.8119059
  56.0513210  70.9399128  69.4381857  30.7166719  53.8852596  40.6322432
  30.3128004  54.6506643  40.2232552  31.6363716  54.1281033  40.7390785
  67.7826262  58.3145475  79.3993568  68.2882881  59.0611267  79.0781736
  66.9078684  58.6687422  79.5592690  33.0787039  48.3729124  47.2852468
  32.7199841  48.0020523  46.4790106  32.3847818  48.2529068  47.9335546
  91.4424523  25.1624721  40.8879042  91.9862755  25.8950465  41.1774349
  90.6310471  25.2545016  41.3872862  45.7312727  95.5757904  85.5241394
  45.8709002  96.1186886  84.7482491  46.1978912  96.0331917  86.2236309
  68.6355257  78.5915947  58.2967281  69.3174696  77.9201603  58.3156586
  68.9213181  79.2042065  57.6190424  81.8766785  66.8784380  82.1644020
  82.3159695  66.5446758  82.9466152  81.5036964  67.7163458  82.4383068
  15.8861208  31.2361247   8.6854154  15.6329060  31.7882258   7.9456216
  16.7346859  31.5815360   8.9626485   7.7250377   2.0622867  35.9009600
   6.9806472   1.5977614  35.5184340   8.4570877   1.8634932  35.3171611
  64.0404137   8.7630122  87.3919106  63.5941180   9.4660991  87.8638363
  64.7259363   9.2070907  86.8928146  92.2304877   2.0422214  44.0904284
  93.1116446   2.2616046  44.3932009  91.7882260   1.7008536  44.8676682
  58.3081675  97.4629116  73.2389975  58.2137394  97.2647572  74.1706896
  59.1617489  97.8906155  73.1704044  51.4935827  69.1883564  53.4465122
  52.1031904  69.5505428  54.0894938  50.6748486  69.6596670  53.6007023
  71.5574837  80.4430199  43.6952686  71.0236263  79.6644592  43.5369253
  71.7792988  80.3962517  44.6252394  92.4317225   3.1342166  74.1192961
  91.9355973   2.7231925  73.4113741  92.1002825   2.7198928  74.9159861
  65.9094048  70.2708912  58.3379698  65.9171915  70.9694242  58.9923525
  66.2873125  69.5159292  58.7890244  61.3496494  72.1248913  73.6857605
  61.4320421  73.0540419  73.9005089  60.5654001  71.8393707  74.1544437
  34.4234944   6.2849576   3.4759122  35.1096821   6.7775113   3.9262086
  34.8287344   6.0054309   2.6550085  70.2889156  13.6467130  11.3665372
  70.6580639  12.9751212  10.7930261  70.5288983  14.4749076  10.9509355
  93.1683826  90.6304359   2.5821185  92.8268433  91.3120365   3.1609115
  92.4765491  89.9694347   2.5561690  96.0107144  66.9756044  11.8236333
  96.0675391  66.7192317  12.7441103  95.9076937  67.9269840  11.8459112
  70.9111500  57.5104713  73.5682297  71.2186909  57.6155138  74.4685745
  71.6050959  57.8938103  73.0318308   3.6140672  91.8832649  10.3130800
   3.7111894  92.1734632  11.2200433   2.6688854  91.7964186  10.1893121
 100.3558978  19.7783988  44.0169382 101.0347565  20.1304286  44.5926619
 100.7982357  19.0928786  43.5163069  54.8022699  71.3025713  71.7273808
  53.9609909  71.1411238  71.3002729  54.9334192  70.5418587  72.2933769
  62.9946899  88.0197144  34.2789006  63.0978775  87.7841663  33.3568907
  63.6272478  87.4681854  34.7392464  29.4782376  89.3235302  69.4400549
  28.6096048  89.5973110  69.7345877  29.9001408  88.9783001  70.2268505
  62.7743816  87.5988674  69.1569805  62.9292870  88.3113670  69.7771215
  61.8551111  87.3650837  69.2855120  40.3970432  82.8429985  82.1875858
  40.7822466  83.6085415  82.6139545  39.6112514  83.1790161  81.7564774
  88.0844935   7.1267264  53.0718517  87.5428780   7.8909533  52.8747797
  87.9781254   6.5552466  52.3113728 102.6228674  16.8911593   5.4087710
 103.3432778  17.1672957   4.8422164 102.2100314  17.7087253   5.6869638
  35.1521397  80.2607250  53.2963562  34.2014551  80.1522636  53.2705498
  35.4451513  80.0149250  52.4188805   9.7164536  11.0820777   2.4285585
   9.5385409  10.9076411   1.5043527   9.5418835  12.0173318   2.5337106
  55.9072638  62.2479486  54.8785782  55.4963827  63.0272293  55.2529192
  55.4775620  61.5152264  55.3198242  29.7091413  71.8372965  68.2541704
  29.0014744  72.4803209  68.2099342  30.0336814  71.7761183  67.3557472
  69.8612881 100.2264500  67.3916864  69.9420929 100.3280926  66.4433384
  68.9703751 100.5158520  67.5885439  84.9455643  67.9610968  31.2659955
  84.7787476  68.5776234  30.5530477  84.9587536  68.5041761  32.0541096
  31.2075281  96.8668461  73.4854460  30.9512162  95.9451103  73.4550428
  31.7574191  96.9369316  74.2657900  56.7713976  71.1284351  78.4193897
  57.6573563  70.8744049  78.1609774  56.8618393  71.4252043  79.3249178
  61.6474771  67.2847939  63.2315493  60.9748650  67.1573353  63.9005661
  62.0795202  68.1023169  63.4789848  75.4935837  70.3870440  71.7375422
  75.5298424  70.4806662  72.6894617  75.1208448  71.2131786  71.4296484
  61.3169003  90.0939655  60.7983732  60.4723072  89.6438789  60.8162355
  61.2047768  90.8372593  61.3909626   2.1535770   5.7168143  51.3993406
   1.6181413   5.1430839  50.8512735   2.6838390   5.1185935  51.9258308
  52.4584961  82.2846889  42.6592350  52.7184868  82.2390842  43.5793209
  53.0587196  82.9218960  42.2720385  27.0716095  19.2859418  27.6200086
  27.4951887  20.1334960  27.4841291  27.7623749  18.7273604  27.9764635
  53.3374262  69.8974657  55.4281807  54.0862465  69.3383026  55.2212000
  53.7132835  70.6302261  55.9160519  62.6038218  91.0435486  86.3844872
  62.9296112  91.9282246  86.5501308  61.9151592  90.9158421  87.0369244
  23.8000727  68.2115173  64.7001743  24.6410179  68.3987474  65.1172924
  23.5874128  67.3208809  64.9790621  60.1498938  89.4858456  64.8939323
  60.1590490  89.3290520  65.8381605  60.4543352  90.3882599  64.7980356
  54.8014259  96.6736794  51.6865349  55.3904581  96.8166924  50.9457111
  55.3275537  96.8905544  52.4561977  83.9175471  37.7972262  65.9455395
  84.5710047  38.4399074  65.6695080  83.4589203  38.2189410  66.6722107
  46.6448021  86.3826561  74.8379374  47.2211885  86.1352634  74.1148806
  46.2670994  87.2196007  74.5675611  40.4369354  85.0619602  75.2341223
  39.9366355  84.2833900  74.9896717  41.1570120  85.0915051  74.6041632
  65.3016043  62.4003887  78.7073183  65.8693171  63.0529070  79.1173887
  64.4212246  62.7688551  78.7807560  17.1484375  22.1344621   6.5788251
  17.7001715  21.3953931   6.8349439  17.4058867  22.3242099   5.6766302
  79.8079777  79.5809031  55.9305859  79.2688894  79.2895365  56.6659260
  79.6026611  78.9673328  55.2251720  38.9066863  77.1328592  72.4272680
  37.9887342  76.9716835  72.6454878  38.8898063  77.9257536  71.8912888
  69.2201471  86.3147354  60.9727621  69.9143267  85.9141254  60.4494476
  69.6837997  86.8582535  61.6098213  67.7632125  23.5057395  77.9316759
  67.1357664  23.8538688  77.2981548  68.3656486  22.9783576  77.4071026
  86.0702038  67.4562979  37.6122093  86.4160728  68.2824183  37.9500318
  85.1327705  67.6159716  37.5028682  67.0161438  97.4620342  79.5465374
  67.7079201  97.1179676  80.1115990  66.7580843  96.7173672  79.0033102
  59.0100908  73.9430714  56.5377092  58.9176512  74.1473961  57.4682665
  58.1657028  74.1815138  56.1551046  75.7509422  56.5145922  41.3376188
  75.5765629  57.4531889  41.4073420  76.4219427  56.3458586  41.9990730
  53.0311298  74.6592331  87.7630043  52.8882027  75.2496576  88.5027313
  53.5133266  73.9210033  88.1354713  68.3212185  64.1803122  71.1897659
  68.7884712  64.8905134  70.7498503  68.9477015  63.8414288  71.8292236
  63.9635754  69.5496893  75.8788204  63.1966066  69.0846634  76.2130976
  64.6478415  68.8818598  75.8339214  83.5651406   6.3102477  60.6686115
  84.3660315   6.4748900  60.1709175  82.8772744   6.7479747  60.1671410
  60.0081682  73.1077194  47.1953583  60.4410839  73.8360310  47.6407576
  59.7097635  72.5371647  47.9036331  42.3705292  30.5442721  13.3996469
  43.1163883  30.2928931  12.8549177  42.1681595  29.7578151  13.9063627
  50.0462151  11.6057069  16.1815340  49.2676926  11.8477828  16.6830713
  50.2457524  12.3825938  15.6591684  75.7703209  63.2573128  17.7016830
  76.5141010  62.6548100  17.7041602  75.5359840  63.3523369  18.6248791
  77.7796268  84.2254448  37.3843455  76.9076681  84.5530415  37.1638989
  78.3238792  84.4707489  36.6361141  87.6504517  78.8968229  43.6414814
  88.2503033  78.7716341  44.3768311  86.8619919  78.4147549  43.8908195
  34.2215514  83.0690289  21.0504293  34.8660922  82.5148964  21.4905810
  33.5065126  82.4733162  20.8266544  15.5776310  36.3340575  24.7557813
  15.3956986  37.1900947  24.3680269  15.1326466  35.7113082  24.1809732
  38.4403014  70.9735250  66.8341970  37.6597619  70.4461288  66.6643763
  38.4488511  71.6222048  66.1303711  55.2869797  70.1960802  49.3933725
  55.8410740  69.8351717  50.0854397  55.7926559  70.0685215  48.5907173
  23.1281662  23.3366258  36.0315496  22.7207947  24.1989190  36.1135656
  22.7330923  22.8174788  36.7320043  75.4759789  79.3669844  34.8184538
  75.5199480  78.5162687  34.3818903  74.9767208  79.2003822  35.6179667
  82.5726032  63.0708838  33.7088108  82.0571995  63.0451775  34.5149970
  82.4983788  63.9758301  33.4058404  38.6374283  61.1382484  41.6030216
  38.7519240  60.3244543  41.1122417  38.6250043  61.8220758  40.9333515
  53.4965849  82.1503639  61.9415236  53.1676245  83.0489635  61.9648123
  54.2712450  82.1642590  62.5036097  52.4004650  83.4622574  48.1512022
  53.0672121  84.0766811  48.4580708  51.5697670  83.8615131  48.4096003
  39.7401547  97.8894520  55.2154779  39.0516663  97.2246742  55.2325392
  39.3401551  98.6371994  54.7715139  32.6507044  70.4311991  66.3575745
  32.6344824  70.6910610  65.4364681  32.0255923  69.7084761  66.4135885
  44.0059948  68.7322092  25.5665660  44.9628210  68.7527418  25.5835605
  43.7847900  67.8047514  25.6509352  48.6588240  59.4247961  56.7593670
  49.4359446  59.6125555  56.2330008  48.5537291  58.4751749  56.7010069
  16.6327095  19.2886359  28.3272440  16.2160444  18.9150102  27.5506956
  16.7252445  20.2196175  28.1248933  73.9912605  66.4189005  59.0873861
  74.3559742  67.2794104  59.2941046  73.0447721  66.5595627  59.0626860
  77.1709593  17.1687072  47.8286695  76.7224320  17.3782962  47.0094490
  77.7125653  17.9371589  48.0085945  63.3169127  65.4108667  64.5660067
  62.5500631  65.6763363  64.0583658  63.8889503  66.1782503  64.5547962
  66.5849686  94.1372395  26.8927670  66.9216728  93.4498596  26.3179898
  67.3630428  94.6227837  27.1667743  67.3877382  56.8658304  82.5808716
  66.9109726  56.1453009  82.1688461  66.9710875  57.6561546  82.2373295
  37.4148393  68.0197430  68.3249521  37.5859118  68.8383675  68.7905836
  36.4893746  68.0692434  68.0855751  54.2831659  98.1394196  57.3057938
  54.0069389  98.3098602  58.2062817  54.6445370  97.2533703  57.3297644
  49.2986059  80.3953838  54.8054457  49.6192408  81.2795639  54.9833488
  49.8175669  79.8323345  55.3798008  89.4062424  73.2191658  59.0035725
  89.9864292  72.9167128  59.7022390  88.5807228  73.4161377  59.4462299
  58.5633278  91.2781429  54.4188023  57.6827002  91.2543488  54.7931862
  58.8929367  92.1498775  54.6371317  54.1900253  99.2085171  84.8024464
  54.2186022  98.2518291  84.8148918  54.1038895  99.4575596  85.7226562
  45.1399517  80.8129501  60.8528137  46.0930729  80.7419109  60.8003902
  44.9066019  81.4246941  60.1545715  19.1092408  98.7287331  31.4634085
  18.8252032  98.8626385  32.3676348  20.0406313  98.9494228  31.4697528
  29.9841786  21.4029033   8.1962377  30.7263661  21.8954665   8.5466272
  30.3292036  20.9750516   7.4125749  24.1478491   9.8601968   2.6055891
  23.7137699   9.2947585   1.9667703  23.5798931  10.6279189   2.6708585
  50.6691074  88.4741592  73.6987829  50.1492548  88.2532024  74.4715500
  51.5364170  88.1131649  73.8823462  54.6824440   3.1644195  42.9167604
  54.9211570   2.2537463  43.0897188  53.9037403   3.3138888  43.4529638
  57.9294538  60.8999777  63.2791185  57.1344709  60.5307913  62.8944921
  58.5377026  60.9770012  62.5440454  75.9695292  90.0846863  69.6797657
  75.9366369  90.6670475  68.9208221  76.3730812  89.2823410  69.3486881
 102.6739319   9.2347377  52.5858498 103.2586583   8.7117331  53.1342888
 102.9902180   9.0913432  51.6938639  44.2320299  96.3602352  55.4057169
  43.7023067  97.1126842  55.6692505  43.6687613  95.6030083  55.5656290
  66.3473654  68.6798573  85.7822037  66.9421053  67.9336500  85.7067204
  65.4726934  68.2912493  85.7694721   7.4102537   6.3179725  45.7279968
   8.1485264   5.7543319  45.9592772   7.5544206   7.1197741  46.2305498
  85.4019316  12.7426379  78.1376457  85.5482872  13.2688563  77.3515749
  84.4504364  12.7253192  78.2405519   2.1981231  14.7454684  68.0810118
   2.4987117  15.6525462  68.1366777   2.9631130  14.2579692  67.7754450
  97.8772259  90.0930309  80.1525497  97.2675800  90.5204105  80.7541275
  98.3052254  90.8149815  79.6922922  48.8101912  66.2863350  84.1440582
  49.5640326  65.7126379  84.0068531  49.0254784  66.7795181  84.9356747
  35.4429102 101.6228390  21.8048716  35.6836867 101.3537502  20.9183884
  34.6233749 102.1049404  21.6945577  58.4081697  95.8077526  82.1161747
  57.7298641  96.0602951  82.7425575  59.2310095  96.0316658  82.5509453
  80.5304917   5.0553744  52.2916079  80.3340014   5.5905860  53.0604792
  80.9756239   4.2845958  52.6437330  76.7436266  37.2079492   8.6898667
  76.3105917  37.7616906   8.0401850  77.4097204  36.7324138   8.1934643
  37.6860452  87.5201416  77.1781206  36.8160152  87.1432018  77.0469999
  37.6879406  87.8062344  78.0915642  97.8416642  31.6055530  61.3411474
  97.5175627  30.7350963  61.1098671  98.7220915  31.4502471  61.6831493
  65.0832701  84.2562485  61.9167852  64.7098064  84.3709946  62.7906227
  66.0196495  84.1312218  62.0710325  56.3379765  84.9532127  61.6897964
  55.8491993  85.6881046  61.3193130  57.1067953  85.3560448  62.0933771
  36.0599947  84.2879486  84.4650650  36.4155579  84.2995167  85.3536987
  35.2341938  83.8103485  84.5437145  62.4010468  55.4415131  81.8103123
  62.9116249  55.9505701  82.4399185  61.5119362  55.7875872  81.8873882
  25.6272173  22.6061541   2.8254015  25.4656124  23.5401732   2.9585344
  25.7316160  22.5137526   1.8784029  14.3263912  49.1965300   5.6165201
  14.1843462  48.4715564   5.0078661  13.9867067  48.8774020   6.4525873
  59.8487234  81.6763401  71.0005856  59.8487377  80.9537220  71.6283274
  59.0113211  82.1175194  71.1432457  78.1117543   4.2280715   6.7223662
  78.2816561   3.2942813   6.8464857  77.1595009   4.2904132   6.6477847
  75.8516693  79.0259981  18.2123756  76.5463066  79.2839527  17.6064312
  75.1514244  79.6600533  18.0579126  82.5339794  79.6162462  56.8290949
  81.7958355  79.5990372  56.2199402  82.2377110  80.1735497  57.5487280
  54.5188951  91.7492676  52.9095888  54.0025806  91.4709759  53.6660290
  54.1782665  92.6172733  52.6933384  35.1854706  92.0589066  81.6120338
  35.1778054  91.3942146  80.9232998  35.6063581  91.6280842  82.3560047
  61.2112570  97.3545265  54.5035172  61.4170265  96.4197063  54.5045137
  60.7664013  97.5009537  53.6687183  87.8244647  23.7493842  77.4827671
  87.5462111  23.4085124  76.6326952  88.4882172  24.4060271  77.2718859
  60.7990074  65.1409531  72.4757385  60.7426882  64.9955177  71.5313292
  60.4746819  66.0328484  72.6004887  69.5073700  73.9218092  69.2428684
  69.6448851  73.4704876  70.0757122  69.0141582  74.7085238  69.4753504
  58.4144640  63.5601425  61.1688423  58.0852413  63.9066362  61.9981670
  57.8202200  63.9156151  60.5079794  45.4999542  92.7554417  57.7331066
  46.1723280  92.1008778  57.5441885  45.3012800  92.6336575  58.6615086
  30.3199506  83.3982468  69.6605921  30.5494118  82.5493145  69.2825747
  30.0790620  83.9383411  68.9079332  18.5199738  52.1736247  19.0148431
  19.4743633  52.1476371  19.0833265  18.3348990  52.9940326  18.5577852
  16.7591906  74.4161708  19.9455148  17.4825955  74.1107184  19.3981439
  16.6236878  75.3251845  19.6779996  18.2873297  56.6441161  10.6615907
  19.1719961  56.9017035  10.4022581  17.7279186  56.9618041   9.9528104
  70.4977417  84.9547768  75.3809738  70.5147314  84.9231625  74.4244432
  70.0992823  85.8007050  75.5856133   5.8971397   0.9072542   4.8573667
   4.9751846   0.6807375   4.9795515   5.9126942   1.8642092   4.8725492
  20.0093548   0.6638282  53.7069321  19.2695800   0.3492873  53.1872940
  20.0958339   0.0231498  54.4128227  86.8990803 100.7912636  67.6388502
  87.8158855 101.0108757  67.8045845  86.4269352 101.6118717  67.7800035
  25.5686879  87.4512577  80.1138878  26.1130667  87.8234863  80.8076668
  25.9487391  87.7901840  79.3033838 102.5341805   5.1483005  65.0587893
 102.9683121   4.4871562  65.5979061 101.9916733   5.6409686  65.6745768
  30.1746170   4.1811698  72.9360247  30.5133144   5.0520366  73.1436443
  30.9466640   3.6805003  72.6723957  23.4173870  29.9155146   9.0851862
  22.7752686  29.3092162   8.7159616  24.0258074  30.0870044   8.3664018
  10.3032160  56.6703326  19.6413499  10.5521059  56.6759402  18.7170869
   9.4214296  56.2980277  19.6496851  76.1707497  97.7774906  51.4939642
  75.9083605  96.9597340  51.9166470  76.7667723  98.1898022  52.1192551
   1.3115827   2.7644389  76.5807867   0.7240478   2.3473018  75.9506798
   1.3759796   2.1364539  77.3003101  43.3452988  29.0612752   6.5953714
  42.6460219  29.7128779   6.6470224  43.1140137  28.4088284   7.2564680
  34.2497301   2.4843890   6.4750463  33.4110069   2.3732812   6.9227487
  34.0236569   2.5076968   5.5452234  76.7998314  99.7222328  86.0306168
  76.3146114 100.4225540  86.4668941  76.2345171  98.9538670  86.1097813
  60.6306704  13.5529654  44.9168634  60.0758108  13.0007213  45.4676723
  60.8921321  14.2751544  45.4881001  39.7591162  57.7997786  25.5114633
  38.9722538  57.2800357  25.6756193  40.4427433  57.3676116  26.0234338
  39.4767761  95.6177902  42.4903011  38.7054276  95.5272007  41.9307947
  39.8162293  96.4902592  42.2908211  74.6583033  78.8430023  79.6046114
  74.8430681  77.9068232  79.6798325  75.4905701  79.2686844  79.8104095
  61.6943312  77.3362255  71.0579443  62.4469995  77.4072790  71.6450357
  61.9326305  77.8667974  70.2977228  81.8649006  59.9529982  55.4777145
  82.4472237  60.3933859  56.0967445  82.1102238  59.0294600  55.5336142
  57.8039932  95.8487988  53.2695818  58.2945538  96.6440773  53.0619287
  57.7004623  95.4046440  52.4280119  70.1323509  71.5921688  79.5181942
  69.3698263  72.0735121  79.1971064  70.8618975  71.9214010  78.9932203
  55.4612637  68.6463022  73.3345032  55.5106211  67.8628635  72.7867603
  56.3692713  68.8252878  73.5788727 101.6859349   5.7057517  59.6295404
 102.5067338   5.3155463  59.3290854 101.1915358   4.9720233  59.9948406
  96.5284824  75.0875473  57.6733637  97.0174599  75.8798552  57.8955793
  95.9058380  74.9807692  58.3924866  65.8268642  90.4589939  49.1364622
  64.9775219  90.1712418  49.4711924  66.4527845  90.1907253  49.8091364
  40.0423527  43.1073005   8.0611784  40.6405306  42.8696353   7.3527128
  39.5710468  42.2978503   8.2583982  76.5108347  66.2027168  65.8607197
  75.6096077  65.8845615  65.9136057  76.4588022  67.1170092  66.1392736
  21.5188074  60.9682090   4.0423757  20.7962561  61.4497573   3.6395628
  21.2944079  60.9332377   4.9722463  60.1529026  90.2817440  43.5085440
  59.8329496  90.1318550  44.3981504  60.9441566  89.7468185  43.4452915
  76.7753983  80.5303478  66.8203211  77.5580168  80.1148224  67.1823740
  76.9952393  81.4610958  66.7800951  85.6534481  69.3103552  55.4844952
  86.3127136  69.0810394  54.8295021  84.8618126  68.8555336  55.1969528
  96.9115734  91.0370064  34.3563628  96.2537575  90.3777790  34.5775938
  97.7117062  90.5346966  34.2024279  88.1613731  98.5690594  37.5157809
  87.4217892  98.7759018  38.0871511  88.0300236  97.6515675  37.2766471
  83.9619827  76.0301828  68.0703354  83.7644863  75.1509953  68.3932114
  83.3759403  76.1480427  67.3227406  50.5974674  16.8282945  10.8044511
  50.1800060  15.9935052  10.5921346  50.7041931  17.2645480   9.9591619
  14.7620869  58.4256560   2.6934797  13.9447689  58.6756141   3.1244546
  15.1490784  57.7712066   3.2750017  33.7900734  15.0735719   9.5490057
  33.5515452  15.9832007   9.3703538  32.9974032  14.5748193   9.3511564
  70.7629585  98.5791874  55.8616877  69.9104404  98.9765453  56.0393095
  70.6375742  97.6490879  56.0499144  97.3634720  92.3366737  68.5691166
  97.1873856  93.0274963  69.2078638  98.1954575  92.5878239  68.1679249
   0.5101283 101.7713165  32.0634484  -0.4432217 101.7355061  32.1413684
   0.8277305 101.6708851  32.9608202  64.7997093  89.9985790  81.3108730
  65.5907536  90.0649929  81.8457317  64.1316080  90.4659367  81.8123150
  87.7420712  86.5105343  53.1579971  88.2690620  86.3095856  53.9313984
  87.5121880  85.6548119  52.7958775  94.8224640  81.6841221  59.2359161
  95.1164722  80.8485222  58.8732052  94.3491459  81.4459229  60.0330782
  49.2068577  76.7775202  63.5699987  49.9060440  76.2174606  63.2328129
  48.5293007  76.1665964  63.8596916  68.6736107  89.6841908  60.2313519
  69.5521832  89.3280411  60.3636408  68.7799072  90.6295395  60.3374481
  44.4317150  25.4981143   0.1997263  45.0718022  24.8211867  -0.0200289
  44.8141003  25.9551818   0.9487897  88.7103081  59.5233583  71.8149757
  89.3944263  59.1627169  72.3790359  88.5058022  60.3750181  72.2010946
   8.6972229  25.5648654  85.2663231   8.3460132  24.7242682  85.5600548
   7.9456608  26.0180991  84.8842716 103.9895352  11.7972415  73.1336927
 103.2690962  11.8237536  72.5040102 103.8662919  12.5792640  73.6717224
  52.0415545  84.3656731  62.0237780  51.9755220  84.7848701  62.8817654
  51.3564110  84.7816849  61.5005732  40.0562620  32.7307517  27.0481187
  39.6769715  32.4175174  26.2269956  40.5677700  33.5000617  26.7975790
  69.7352982  62.4382210  41.8694210  68.8225651  62.7246714  41.9025373
  69.7841358  61.7204809  42.5008440  52.5711203  88.0780792  49.6715212
  52.2435141  88.9453793  49.4334364  53.0774069  88.2243347  50.4705954
  67.4708033  72.0538425  79.0289450  66.6832876  72.3525286  79.4837332
  67.1411467  71.5739536  78.2691669   1.6538477  30.4987056   5.0501043
   1.5820217  29.7989470   4.4009477   0.7748175  30.8749015   5.0950128
  73.9932251  39.4450766  10.3048307  73.1009293  39.7894008  10.2663499
  74.5462513  40.2217872  10.3891927  19.8300409  49.9512679  13.3236486
  18.9256478  49.6584136  13.4356386  20.3049708  49.1647536  13.0551797
  93.1576069   7.1792357  29.7395873  93.6653193   7.6532500  30.3982019
  93.1225737   6.2799876  30.0657034  55.0337315  87.5862598  57.6892138
  55.1108217  87.8356266  56.7682838  55.9112501  87.7193546  58.0476522
   2.4017660   6.6449302  61.2508869   2.9380314   7.0378154  61.9395781
   1.5440838   6.5200370  61.6570997  66.0144758  88.7425423  59.6550655
  66.2579250  87.8552341  59.9189854  66.6174030  89.3094158  60.1360750
 101.7943859  65.0903749  21.2174678 101.0689068  64.4821596  21.0760784
 102.0319080  65.3881407  20.3393173  39.3539405  79.2688322  70.7156944
  38.6038399  79.8041916  70.4569101  39.8192620  79.8035240  71.3589811
  75.4814672  71.6068935  61.3838625  75.5591536  71.0915947  62.1867704
  74.5570278  71.5399122  61.1447811  49.2278048   6.5229743  57.1126652
  48.5775431   6.9823878  57.6440144  50.0691660   6.7736190  57.4941349
  76.1750468   8.0578940  70.8665848  76.4214619   8.3103698  69.9767733
  75.8418187   8.8640349  71.2606955  65.1406670  99.6653557  59.4555998
  65.1281452  98.9992046  58.7683439  65.7571650  99.3276405  60.1052999
  45.5312061  67.4841220  13.3819753  45.1148319  66.6318995  13.5107500
  46.0170555  67.3919112  12.5624162  28.6910868  94.1340351  72.1803570
  29.5247197  93.9317989  72.6050758  28.2448244  94.7173405  72.7942276
  58.6857033  22.2591550  13.6167604  58.1513024  21.4913613  13.4139329
  58.7169743  22.7525193  12.7970964  12.7047825  48.4026152  10.7554800
  13.1288624  47.9035575  11.4535696  11.7697907  48.3409602  10.9509832
  51.9997974   5.9976047  69.0025902  52.0557161   5.4850905  68.1960964
  51.4513918   6.7475551  68.7722540  56.5457010  92.3591518  80.9409237
  56.9296980  93.1354427  80.5333042  55.7306004  92.2146702  80.4603291
  18.8866949  13.2849461  16.2800581  19.1258526  13.2657439  15.3534109
  18.2997847  12.5370414  16.3914854  22.6254535  98.4201336  62.6439095
  22.0380020  99.0737629  62.2645569  22.4449921  98.4524441  63.5833883
  47.9666710  45.0614268   4.2932493  48.0037689  44.8446280   5.2248365
  47.6175213  44.2730433   3.8775808  78.6211920  97.5899315  59.4257355
  78.0136824  98.2426834  59.7736883  79.4863129  97.9031277  59.6897459
  65.8268404  80.5047607  85.2867126  66.2867546  80.2788067  86.0951996
  66.0990095  79.8336840  84.6607685   5.2025453   7.0020431  87.5370216
   4.9696962   6.1177867  87.8200531   6.0189668   6.8904250  87.0499611
  63.5126305  75.9395313  73.4373617  63.7762785  75.3070354  74.1056967
  63.6129665  76.7918253  73.8613415  57.0657539  89.3350792  61.7660093
  57.8563309  88.9236259  61.4168215  57.1579933  90.2607822  61.5406418
  10.2418510  13.6334269  70.5913210  10.7530491  13.5787623  71.3987398
  10.5831043  14.4076674  70.1437426  64.9233198 101.2200069  88.2489300
  64.9072123 100.2910042  88.0188560  64.1596508 101.5897560  87.8058529
  52.9537582  88.4535503  55.9804344  52.1557093  87.9253006  55.9977722
  53.3800936  88.2709408  56.8177652  93.3942699  50.1975107  77.4159670
  94.0824890  50.8464479  77.2694635  93.1499672  50.3106880  78.3345175
  59.8941755  89.6803761  49.4145679  59.9567652  88.7253189  49.4009733
  59.5279789  89.8841763  50.2751446 107.6599400  26.0830314  14.2021543
 107.8333632  26.6221244  13.4304506 107.3727433  25.2418143  13.8470537
  73.9797171   2.5098079  20.7783937  74.5962771   3.1564277  20.4349232
  73.2896050   3.0311339  21.1885142  43.8281250  97.4480247  42.7156496
  44.0781212  97.4469185  41.7916727  43.1303215  96.7955875  42.7757597
  28.5151569   5.0743335  81.7903996  28.0370990   4.4359439  81.2611198
  28.6657421   5.8113997  81.1985397  86.5172672  53.9396620  51.1875677
  86.7927456  54.7106457  50.6916571  85.9344196  53.4678841  50.5926371
  75.3180122  85.9954929  36.7452645  74.4789600  86.2503624  37.1290207
  75.0827026  85.5284023  35.9435892  84.8254871  81.8316364  60.3237963
  84.8805714  81.0581398  59.7626209  85.5443954  81.7270279  60.9470654
  62.0717525  86.2829304  20.2138138  61.6618061  86.9757843  19.6960056
  62.1352482  86.6489124  21.0960031  89.9965867   4.0775531  46.4669180
  89.7866209   4.4914287  45.6297493  89.2687233   3.4766715  46.6262627
  59.9971819  92.5031853  86.8366528  59.7083759  92.8527355  85.9936619
  60.5388975  93.1978607  87.2110844  92.8188419  56.8192482  36.7602277
  93.0612373  57.6306772  36.3140726  93.1827164  56.1255455  36.2101316
  50.7953119  92.6879311  56.2707376  50.4243898  92.6832104  57.1531391
  50.4260874  93.4696770  55.8598995  88.7899303  77.3405123  51.0672235
  88.0286121  77.1478558  51.6144943  88.4369373  77.8464890  50.3353643
 101.9710501  23.7528365  26.6902041 102.8285559  23.7664931  26.2650776
 101.3938244  23.3340400  26.0517335  87.1465206  74.8212337  64.8759747
  86.8008804  75.3935575  65.5609608  87.5157452  74.0761805  65.3501034
  97.0886517  92.9526997  75.1462221  97.2596455  92.3956585  75.9056282
  96.6678619  93.7315273  75.5103636 101.2835312  92.6968479  40.9878159
 100.5608082  92.1366119  40.7048941 101.4767361  92.4066353  41.8792677
  90.1906013  71.9107485  45.8172131  89.2588043  71.7046976  45.8916140
  90.2156353  72.7341795  45.3298092  90.8053780  88.4150028  71.1722136
  90.1481915  87.7949429  71.4882278  91.1603451  88.8135052  71.9668341
  85.1254940  82.2795582  63.3514738  84.2523861  81.9201183  63.5086870
  85.0256252  83.2211876  63.4914207  66.5214157  57.3729181  12.4722409
  66.8677092  58.0849695  11.9343770  67.1468544  57.2905874  13.1921601
 100.0239984   5.2396304   1.6957552  99.8690478   4.8779971   2.5683576
 100.5922715   4.5988185   1.2683660  62.7279568  72.7315426  78.2633209
  62.8272247  72.4525833  77.3530674  62.2021055  72.0422840  78.6690712
  20.1626253  35.4742915  27.4377805  19.7860956  36.0129363  28.1337148
  20.6703854  36.0885817  26.9076234  72.7269030  62.6569271  76.7874146
  73.5127640  63.1995058  76.8527317  73.0114651  61.8802261  76.3057566
  52.1911669  93.4155178  62.3511744  52.9019928  93.2530689  61.7310333
  51.7907095  92.5567532  62.4867964  22.9158870   7.6335376  78.3176136
  23.2201091   7.5687354  79.2228651  21.9695846   7.7573340  78.3912420
  30.4940454  64.7728191  88.1007987  30.9342376  65.4706131  87.6154620
  29.5971576  65.0879227  88.2127505  71.8666458  65.2158880  53.2251120
  72.4815798  65.1668215  52.4932098  71.7927074  66.1514473  53.4135103
  71.2472296  69.4155741  83.1134224  70.9295034  69.8968840  83.8773727
  72.1922016  69.5680285  83.1102848  71.7382574  90.2204514  59.7303057
  72.2327042  90.9137058  60.1675129  72.2363186  89.4225502  59.9078417
  41.8564034  47.4657828   6.1578924  41.0652876  47.5320632   6.6926557
  42.4446297  46.9093234   6.6683561 104.6203764   1.0528796  80.3235435
 104.9332293   1.6104453  81.0359192 104.7244080   0.1606982  80.6543350
  48.2463264  95.2506351  71.9625473  47.4303389  95.6442547  72.2715235
  48.7501097  95.9861279  71.6140127  60.8639097  93.9052200  31.0006475
  61.0431671  93.6835003  31.9143963  61.7014408  93.7788296  30.5547714
  59.4264746  68.1878614  47.6961851  60.0990725  68.6305714  47.1786404
  59.8751163  67.4324274  48.0760098  52.9360533  92.5390625  35.2597976
  53.6730909  92.4916553  34.6508980  52.5254726  93.3834457  35.0735998
  76.2632179  85.8485413  87.0861626  75.8039379  85.1687622  87.5793171
  76.8263340  85.3661728  86.4808083  45.9743405   6.3094622  18.3168012
  46.6148377   6.1239488  19.0035230  45.6287193   7.1740205  18.5388738
  72.7576685  79.8618221  82.7983189  73.5787630  80.3120995  82.6000977
  72.5421858  79.3911791  81.9931507   5.4707233   5.9882491  76.1822605
   5.3711788   5.1744121  75.6883049   6.2209074   5.8303111  76.7554235
  28.3079147  66.0343558   1.9632513  27.5043297  66.5371520   1.8302995
  28.0253220  65.1201541   1.9383699  80.4983234  87.8849125  74.6071386
  80.3335953  88.5823059  73.9725208  79.7188091  87.3312187  74.5622778
  55.0213289  79.2179537  82.0360565  54.9848223  79.6234179  81.1697483
  54.8070288  79.9274540  82.6417923  89.8367135  45.7267768   6.3271982
  90.3163902  46.4791972   6.6736108  90.1656215  44.9811942   6.8293554
   2.7595639  41.1130530   3.6290819   3.4113097  40.4176146   3.5406095
   1.9937253  40.7849414   3.1578428  31.2718153  92.9544353  70.0914431
  31.6169453  92.0631981  70.1444817  30.3220916  92.8415775  70.0524569
  71.1825514  72.8698969  40.4142094  72.1233130  72.7260208  40.5166960
  70.8323193  72.0093250  40.1840305  83.7725067 100.7487488  62.1347094
  84.2646408  99.9962616  61.8063831  84.4172478 101.2631512  62.6204395
  73.8417371  24.3307155  53.0918503  74.0170392  23.4953444  52.6586628
  74.3608173  24.9682849  52.6016474  77.3654517  14.7297423  57.6568794
  76.6868027  15.0098174  58.2710648  78.1698378  15.1261275  57.9916573
  48.6795187  91.8754768  61.7707872  48.6921978  92.7764797  62.0936918
  49.5006609  91.4969158  62.0848656 105.2025565  -0.1788766  47.2147465
 105.6387146   0.6139033  47.5269890 104.3888434   0.1349681  46.8202877
  82.9475975  80.8382416  41.4459419  83.5853195  80.6655788  42.1385765
  83.4681511  81.1882210  40.7229090   8.8684074  11.1187499  23.5161614
   8.8308899  11.7579501  22.8046465   8.1920997  10.4774898  23.2979536
  87.4178028  80.8125877   8.1233358  87.8043747  81.6261292   8.4472817
  87.7834606  80.1320076   8.6884415  11.2663833  13.3187716  62.5767565
  11.3495056  13.9305537  63.3082199  11.5057842  13.8332122  61.8058634
  20.9243584  52.6696879   1.3967687  21.6289091  52.0913703   1.1045534
  20.1450110  52.3442847   0.9462530  56.5871382  95.5408573  46.6201115
  56.4127636  94.5997429  46.6087818  57.1565485  95.6698227  47.3786449
  38.1865311  40.8601577  19.7598154  38.0906582  40.3757674  20.5798131
  39.1317415  40.8995635  19.6140176  86.3163193   9.1134780  52.0016098
  86.4628609   9.9476092  52.4476671  86.8709477   9.1576999  51.2227201
  48.7614202  96.5060520  79.1201878  48.8951683  97.1867943  78.4606981
  47.9932737  96.7965603  79.6119070  63.0240774  96.9180584  49.5068693
  63.4684706  97.6981640  49.8388100  62.8214169  97.1275711  48.5951328
  95.5829819   3.5335963  17.2404778  95.6422337   4.4888919  17.2291636
  95.1019057   3.3329528  18.0433095  65.4180288  99.5049858  79.1638184
  66.1365080 100.0699234  78.8794518  65.8173418  98.6405659  79.2616320
  57.3837328  83.3485794  46.1530018  57.2448111  83.0583286  45.2515125
  56.5237522  83.6543465  46.4413977  51.0312319  93.2639790  22.4350810
  50.7493401  92.7543831  21.6754222  50.5054903  94.0629101  22.3960233
   7.0149748  12.4897998  66.9285727   7.0590536  13.4430545  67.0033979
   7.2760765  12.3080867  66.0257769  90.1984596  75.4289055  63.0408144
  90.5220127  74.8474503  63.7288952  90.9755516  75.9002876  62.7405500
  65.0999594  78.7861729  21.7431211  64.4602060  78.9634991  21.0535550
  65.9401417  78.7474442  21.2861443  59.7371578  97.2613907  79.9074411
  59.1477537  97.7546978  79.3369293  59.1545677  96.7788410  80.4939270
  17.7291775  13.1031711  10.3296072  17.5597239  12.1681601  10.4448205
  16.9920492  13.5351331  10.7612115  19.1019106 100.9291458  83.8877583
  18.9862049 101.8767357  83.8175964  18.2324231 100.5976486  84.1121101
  58.5434580 100.4061508  63.7334728  59.1314983 100.4998207  62.9840279
  58.4200954  99.4613075  63.8244915  73.2763720  75.9738302  62.5161982
  73.8262558  75.1910257  62.5490284  72.4066305  75.6461477  62.2872639
   4.6525566   3.5858767  55.4364729   3.7663976   3.4595912  55.7756090
   5.0324384   4.2573111  56.0031271   3.3355753   1.5312140  70.8261871
   2.8336040   0.7257216  70.7019234   3.6217252   1.7733901  69.9454451
  17.1466343  12.9126399  75.3859854  16.6434948  12.6508944  74.6149015
  16.6083900  12.6371615  76.1280346  85.0131711   4.6392863  56.6359138
  84.3416270   5.3213065  56.6253901  85.7839688   5.0561469  56.2507820
  55.8749866  75.2934980  57.8783655  55.9286451  75.3832102  58.8298416
  56.5876484  75.8391476  57.5457764  44.3900394  76.8508339  52.6393509
  44.2019033  77.7119255  52.2660446  44.6186876  76.3075781  51.8851471
  43.2611656  34.3771273   1.0340578  43.2557583  33.8249785   0.2521783
  43.1665993  35.2685458   0.6984121   0.3578551  86.4479923  50.8767509
   0.9771999  87.0405674  50.4507160   0.5172427  85.5986214  50.4651833
  81.5367126  76.8247652  71.7991257  81.6252613  75.9923220  71.3349724
  81.0790539  77.3956156  71.1819506  82.2935208  21.1688083  22.3592257
  82.1397837  20.9854835  21.4324069  82.3460206  20.3051990  22.7686954
  93.6181450  72.4892330  56.8612814  94.3158817  72.7229023  56.2490845
  92.8220081  72.8404045  56.4624310  39.3519211  68.5528183   7.9997277
  38.5140157  68.8024712   7.6100916  39.9431658  69.2720366   7.7774966
  54.5286608  72.2788763  52.4176836  55.2770090  71.7829370  52.7497196
  54.6336031  73.1522274  52.7951479  49.3601227  81.8760109  75.5978537
  48.5054111  81.7556000  76.0116243  49.6406078  82.7476406  75.8768320
  83.3693886  87.1953487  60.0092983  83.7382412  86.3475323  59.7615290
  82.6144218  87.3061943  59.4314003  78.6325932  60.6249523  78.7951660
  79.0523911  61.4847279  78.7671041  79.3265915  60.0286150  79.0762043
  82.8900909  97.5576782  72.0687246  83.3066463  96.7886066  72.4576283
  82.1885300  97.7844715  72.6791382  81.2991333  98.3697414  86.0537720
  81.4670563  99.0409660  86.7152023  81.7373753  98.6938858  85.2669430
  18.8177482  14.0285056  79.1461849  18.1561367  13.9453166  78.4594631
  18.4558670  14.6769755  79.7501326  85.2246284 101.1931801  79.4195700
  85.2827835 101.4645100  78.5034752  85.0194740 100.2590561  79.3801403
  36.6968910   4.5960658  76.6495085  36.6541664   4.3195956  77.5649118
  36.4337436   5.5162566  76.6646957  19.3183661  94.9625022  18.4057790
  19.0610933  95.8301169  18.7176878  20.1888132  95.0917632  18.0291540
 100.6696709  20.5353682  81.2594128 100.7471426  19.7196811  81.7542744
 100.6061181  21.2165492  81.9288731 102.9422530  20.7106250  40.6252575
 102.9957493  20.4606002  41.5476799 102.8855189  19.8790591  40.1546097
   9.0217829  43.5839278   9.4898302   8.2311917  44.0168006   9.8120290
   8.8517523  43.4362323   8.5595018  17.5402919  20.8607715  77.3972607
  17.0348064  20.7293742  76.5951109  17.2083275  20.1963752  78.0010939
  81.6460427  26.8742984  49.2084837  81.4324530  26.4285415  48.3887815
  82.5685271  26.6684478  49.3597460   0.2864305   6.3387340  44.7462130
  -0.1468523   5.5225699  44.4964790  -0.0454100   6.5271991  45.6240511
  81.9748076   4.4505446  81.3782024  82.3037203   3.8555377  80.7043934
  82.0158156   5.3169578  80.9733677   0.8779709   8.2273047  66.4072561
   1.6149131   8.5639518  65.8975458   0.3752987   9.0064567  66.6448927
  39.3765918  32.7526610  71.4635611  38.6622135  32.9940932  72.0531416
  39.3852894  33.4443801  70.8019829  12.1796600  16.2675136  75.3458357
  12.4506275  16.9264358  74.7065973  11.5228931  15.7441085  74.8865509
  80.3538990  97.0848465  75.1542377  80.4956818  97.9686451  74.8150921
  81.0273361  96.5541267  74.7287464  10.2547733   4.6369689  49.9378157
   9.4124405   5.0768321  49.8228025  10.0839321   3.7260478  49.6985197
  22.3728458  15.3878062  33.4497523  21.4564792  15.1140635  33.4894276
  22.5007240  15.9118503  34.2404842  75.2948332  98.9887810  55.0256586
  74.4142532  99.1812801  54.7035503  75.4377604  99.6246719  55.7266951
  83.9391001  18.5596412  71.5143442  84.4812783  19.3383925  71.3886261
  84.4222125  18.0314868  72.1498680  46.4896107  76.4770269  65.3410912
  46.2881184  77.3333931  64.9639130  46.4322472  75.8706093  64.6027184
  56.1487627  93.4442997  84.2398071  55.2455473  93.6690140  84.4632721
  56.0738373  92.9075050  83.4508324  36.0444442  24.2405551  74.6658611
  36.8418113  24.0914767  75.1740122  35.8119957  25.1513331  74.8466396
  59.0628529  80.7170970  16.0832674  58.1786156  81.0612494  16.2094385
  59.6326447  81.3603217  16.5049631  42.8200626 100.0249672  67.7011919
  42.1105051 100.2963066  67.1188354  43.6144114 100.3534126  67.2800446
  79.1506585   2.1644443  54.0105343  79.4590720   1.3285296  54.3603373
  79.7612151   2.8116649  54.3634558  33.0112171  34.4192798   6.4670927
  32.1873379  34.1763503   6.8895132  32.9046726  35.3452021   6.2490350
  10.7712928  10.5854361  66.4854956  10.5969040  11.3728469  67.0010519
  11.5299503  10.8139556  65.9484196  39.9065391   2.2375148  40.3403044
  40.3250400   2.1665137  39.4823694  40.6250374   2.1437591  40.9657669
   1.2987129  13.3048861  81.3751507   1.2510482  13.9113944  80.6361580
   0.6251136  13.6127799  81.9815350  81.5678024  84.1096115  53.3074236
  81.1700439  84.9752045  53.2137966  80.8392620  83.4982681  53.1991816
 100.6998690  17.0468848  73.8076019 101.3723668  16.4834922  73.4247494
 100.1385840  16.4486449  74.3008518  40.6279755  43.0173880  11.9736368
  39.9786663  43.5989482  12.3691350  40.1178694  42.2770507  11.6451246
  92.8889187  34.2144530  39.2547536  92.1843298  34.1159766  38.6143732
  92.4508389  34.5255702  40.0469208  17.9050819  40.9954684  76.2758875
  17.7872745  41.4537375  77.1079588  17.8563682  41.6849559  75.6137228
  20.1242153  19.6904986  38.6006284  19.5054523  19.6997588  39.3308926
  19.5805065  19.8244613  37.8243065  80.7104166  40.2813189  74.4027996
  80.8488759  39.6709102  73.6786032  80.9208067  41.1399882  74.0358448
  23.5061065   0.5992549  71.0985565  23.7026970   0.6159728  72.0351982
  23.4843532  -0.3312070  70.8749580  12.2869770  14.3734210  60.1764393
  12.0873348  14.3463366  59.2406845  12.3426620  15.3065055  60.3825521
   8.4628669  25.1897185  64.6750689   9.1360084  25.4693740  64.0546656
   8.7619297  25.5250590  65.5202532  93.6969479   9.3067973  61.1394930
  94.0316065  10.1136916  60.7481480  93.8719901   8.6319678  60.4835987
  81.9239807  85.4853344  71.0574961  82.4532604  84.9800873  71.6745996
  82.2455406  86.3826656  71.1448622  47.4048471  98.5612106  63.8150740
  46.8857288  99.2204475  63.3544731  47.2986555  98.7771320  64.7415352
  86.7943382  97.7239990  65.3518724  86.5492916  96.8030834  65.4419374
  86.2074375  98.1875420  65.9492874 107.1758842  94.4998169  68.8626623
 107.0027065  93.9073086  68.1311035 107.7002525  95.2040863  68.4815168
  31.9279480  70.6553370   9.6841699  32.5969458  70.0177962   9.4347459
  31.1836338  70.1236064   9.9660951  16.8683235   6.9852870  57.7143002
  15.9645549   7.0450538  57.4046993  16.8356506   7.3122638  58.6133242
  46.9045925  82.9643059  68.5434628  46.5034246  83.8050747  68.7634611
  47.4904823  83.1623459  67.8128815  52.8950596  50.1624495  31.0471899
  53.5769653  49.4937808  31.1114198  53.3382225  50.9792907  31.2765485
  25.6714869  42.7185447  13.9736063  25.9184742  42.9987056  13.0922777
  26.2197924  41.9526584  14.1439420 102.3852730  71.0757208  54.7470236
 102.8685856  71.2701750  55.5500317 102.8876781  71.5057516  54.0549994
  25.3663627   4.6768039  76.4947748  24.6049015   4.1926711  76.8141890
  25.0038807   5.4926436  76.1494493   9.6344272  28.1986945  68.6384344
   8.9988033  27.5742190  68.9880562   9.7958271  28.8058608  69.3606091
 102.1539792  15.1248115  79.3219805 101.5036543  14.4354957  79.4566965
 102.5128325  14.9488681  78.4522104  44.9536602  24.6969932  83.7743187
  44.1178600  25.1501315  83.6632347  44.7133438  23.8235896  84.0835667
   5.7756996  66.3600642   2.0846445   4.8304415  66.4867026   2.0029050
   6.1579657  67.0707042   1.5697748  63.2304335  91.9531727  37.5668311
  62.6582956  91.2476349  37.8686666  62.9079533  92.7329445  38.0187082
   4.9728338   8.0092948  69.9382067   5.7473747   8.5693973  69.9892282
   4.2739765   8.5932296  69.6435118   3.9800541   8.4245437  76.9210768
   4.4609729   7.5979846  76.8793058   4.2527572   8.8187068  77.7496290
   7.8696052   4.8437255  62.0209551   8.0779545   4.6405833  61.1090565
   8.6820118   5.2024501  62.3780727  32.6314823  43.0716842  56.5415287
  32.4920074  42.3602527  57.1665335  31.9690124  42.9297774  55.8653402
  98.5064229   4.8160975  58.8034201  98.4318646   5.7393973  58.5621834
  98.8643654   4.8286288  59.6910858  71.9844198  97.1025753  52.0219469
  72.6044750  96.3853931  51.8900013  72.0733690  97.6435089  51.2372732
  96.5940571  85.0257683  78.3135319  97.2985268  84.6652317  77.7750397
  96.7933464  85.9600067  78.3745003  95.9258040  13.1778853  50.8206272
  95.6156548  12.2730582  50.7841492  96.4374026  13.2882159  50.0191784
   3.0001060  31.3238852  74.4067574   2.5226823  31.3547461  73.5776901
   3.9211647  31.2740653  74.1510344  99.7010907  10.3574603  57.2048998
  98.8693865  10.2967303  57.6748085  99.6485480  11.1876243  56.7313051
  65.8917427  99.0927315  75.1498699  65.1261139  98.5717297  74.9077988
  65.8165359  99.8881912  74.6227741  17.1349041   9.7775691  74.4436836
  17.0685379   8.8880961  74.0962982  17.4320118  10.3032248  73.7009525
  94.6205616  99.0824127  87.9265404  94.6148586  98.1781292  88.2403278
  94.0667629  99.0685654  87.1459293  87.8719616  81.8370056  84.3690968
  87.0631409  81.3385487  84.4856453  87.6941109  82.6820850  84.7819328
  83.9863205  88.8305759  73.8777447  84.5463943  88.5650730  73.1483269
  83.4622669  89.5509243  73.5274553   7.2915975   6.5235751  78.4138775
   7.4374382   7.1628707  77.7165508   8.1593887   6.1608165  78.5915709
  40.6043387  64.7035033   8.7455923  39.7964049  64.5176513   8.2671148
  41.2807703  64.2216403   8.2696992  90.9912022  13.5880893  72.6304436
  91.6554602  14.1478579  73.0325031  91.4698275  13.0822509  71.9737339
  51.4969635  84.9181849   1.7503912  52.0044232  84.9796874   0.9411127
  50.5872345  85.0211436   1.4710504  68.3981284  20.9540217  53.4035587
  69.1687759  20.9768527  53.9708424  67.9472645  21.7800277  53.5786629
   1.7139284  36.7842906  24.2209816   2.2703115  36.0625785  23.9280534
   1.3886348  36.5039580  25.0764537  95.7455254  92.7546120  54.5523548
  95.0135708  93.1677532  54.0943146  95.7104778  91.8372250  54.2814207
  64.7870016  94.7704983  67.7180910  64.1606951  95.3834534  67.3330450
  65.6254959  95.2308083  67.6823902  26.8591491   3.6167853  80.0275993
  26.5212909   4.4968741  79.8617172  26.8508331   3.1914752  79.1701221
  47.2427893  78.6859274  76.6455841  47.2997952  78.9504957  75.7274437
  48.0801868  78.9533997  77.0243502  11.0782615  29.4445842  71.1842155
  10.6231968  30.2714484  71.3437223  10.7391445  28.8513701  71.8545341
  57.3378372 101.4558125  79.8342991  57.6779413 101.9720745  80.5650711
  56.4158249 101.7055988  79.7732162  73.1031656  80.1369286  71.4677191
  72.6080656  79.7045040  72.1635056  72.4394941  80.5897331  70.9473848
   3.7481300  25.0840323  64.4835854   3.0547373  25.1069873  63.8241100
   4.4544117  24.5866244  64.0713024 107.0223053   3.9126819  61.8595791
 107.6127251   4.6440070  61.6784525 107.5895842   3.2298892  62.2176504
  14.8039293  75.6726367   1.5441305  14.9347735  75.4312045   2.4610883
  14.2333079  76.4404208   1.5776712  27.1976423  40.8093936  11.5132123
  26.6766167  41.5535743  11.2116128  27.1698666  40.1872641  10.7862932
  17.4485397  24.5490605   8.3599073  17.3932505  25.3193099   7.7943212
  17.4042750  23.8061911   7.7579004  35.4557792  25.5086081  84.9165440
  36.3568012  25.7467692  84.6982098  35.2105800  24.8645823  84.2522049
  81.8599328  19.0639823  53.2466221  82.2143515  19.2025989  54.1249180
  82.1143063  18.1683867  53.0242968  11.9475357   2.6551764  55.3995371
  12.6772682   2.6577704  54.7800970  11.9583599   3.5307925  55.7860661
  96.7615946   1.5763610  78.8431501  96.4858111   2.1247333  79.5776320
  97.1329077   0.7953685  79.2535353  24.5574856  40.0208957   9.9119836
  25.1863289  39.3017108   9.9716646  24.5377636  40.2452285   8.9816457
  86.6395100  31.6030639  51.9238424  87.2109278  32.3690646  51.9781971
  86.7768916  31.1425441  52.7516603  73.5205460  90.5657196  79.7611380
  74.3943977  90.9543705  79.7214746  73.0187464  91.0361576  79.0954685
  90.8064175  81.8495941  76.7467070  90.4825211  80.9509850  76.8085098
  91.7281342  81.7897797  76.9978952   2.2005224  43.4239108   2.1096307
   2.5537801  42.8380877   2.7791482   1.2732983  43.5095317   2.3313409
  14.0654461   9.1241687  63.7889433  14.7129528   8.4246867  63.7012196
  14.1704170   9.6486514  62.9951334  85.0732954   4.4233077  85.7160187
  84.3092736   4.9231666  86.0034847  84.9459990   4.3119090  84.7738838
  25.1892273   7.9581778  80.4487324  25.4492847   8.1355517  79.5447779
  25.0611393   7.0100825  80.4794598   8.7702068  83.8988590  69.5945883
   8.9470466  82.9835987  69.8119640   9.5237239  84.3771076  69.9405813
  13.7811557   8.3928912  72.6880884  13.6998741   7.4905341  72.9969120
  13.0852882   8.4870284  72.0376015  46.8712664  69.7644424  67.6849604
  47.5475979  70.0961208  68.2755518  46.4003563  69.1114807  68.2027531
  85.1687813 100.2214909  43.5245228  84.3566990  99.8296070  43.8457441
  85.2698612 101.0207653  44.0414095  13.5596840   5.8908027  73.3859539
  12.7660839   5.3570693  73.3464670  14.0426914   5.6609099  72.5921774
  86.2451172  95.4640102  62.2833920  86.3687038  94.5160961  62.3324156
  85.3076553  95.5911827  62.4290943  55.6657839 100.6770897  60.4948521
  55.1744223  99.9033833  60.7708549  56.5648985 100.3654766  60.3913355
  14.3165676  10.5896514  59.7337246  13.5380642  10.8757823  60.2115107
  15.0287906  10.6659930  60.3686619  11.3420192  22.2397273  70.4758692
  11.4071075  21.4858859  71.0621500  11.6161148  22.9841273  71.0115623
  86.9094563  96.5458584  78.3447218  87.3336315  95.8226871  78.8065958
  87.0855999  97.3135757  78.8886166  80.1442345  24.2465251  80.2448559
  80.3049000  23.8017695  79.4126225  80.7867487  24.9557345  80.2653599
  99.8693140  15.2356856  77.5461674  99.0830048  14.8386996  77.9207993
 100.0391873  14.7279494  76.7527103  66.6342735  90.2227402  46.6528463
  65.9083700  89.6660709  46.3710308  66.4226103  90.4525375  47.5576258
  61.6863728  89.0262992  12.9506952  62.5866509  89.3096072  12.7910692
  61.5738011  88.2588107  12.3898775  52.3405600  81.1649609  84.0696239
  51.6425419  80.6971550  83.6111927  51.8849707  81.8335342  84.5811653
   3.5896675  24.8348563  56.4085340   3.4705202  24.0666621  55.8500385
   2.7119819  25.0312465  56.7361450 103.6146164  76.1028910  87.6006699
 104.4058228  75.6044102  87.3963737 102.8956223  75.5031729  87.4016285
  18.1832171  60.7388598   5.8143693  17.9514361  59.8111636   5.7707769
  18.9516020  60.7672126   6.3844759  49.9675751  80.5344582  82.9790020
  49.4783211  81.3434982  83.1284142  49.4447327  80.0533581  82.3375893
   8.0625908  50.2430003  57.6012230   8.9122001  50.1445907  57.1714449
   7.9523555  49.4346374  58.1018448  85.7739504   6.6750377  54.8718739
  86.2631091   6.5405696  54.0601635  86.4464005   6.8464797  55.5311489
  78.4636593  98.6985493  65.4252958  78.0882978  98.5913944  64.5513058
  78.1719065  99.5657158  65.7065964  45.5099726  96.9594574  49.5887423
  45.6026888  96.5995312  50.4708338  44.5679426  96.9403744  49.4200611
  81.3747414   7.8157275  59.2432642  81.3252457   7.3299926  58.4199572
  81.6796216   8.6868518  58.9894485  28.0465174  20.5906779  15.6057436
  28.7662268  19.9932534  15.4024202  28.4117413  21.4635856  15.4612428
  92.4636944  18.5853427  29.9606395  92.1569165  19.4292396  30.2922440
  92.7566441  18.1137698  30.7404017  96.4911040   8.5907023  46.0465193
  96.8363722   8.8892119  46.8878937  96.6916617   7.6550334  46.0236979
  23.8155699  87.7650547  64.9455070  23.5671854  87.2998619  65.7443333
  24.6114588  88.2408333  65.1830530  80.0961685  90.9072113  74.3571091
  79.8013401  91.8158150  74.2958641  79.7398329  90.5953312  75.1889658
  79.0151119  98.0230999  25.3950262  78.5051060  97.2803783  25.0717664
  79.9118376  97.6926136  25.4488134  58.8919210  85.6804276  62.2647905
  59.5879602  85.3145599  61.7189884  59.1330910  85.4338455  63.1576872
  13.6141864   5.7334178  61.0563469  14.0590564   5.7804816  61.9025755
  12.8913395   6.3564628  61.1307812  33.3158779  65.0838000  10.3880006
  33.1136131  64.1749579  10.6101209  32.5960064  65.5887133  10.7662469
  33.4077549  70.4267699  22.2252637  33.6437893  70.3351504  21.3021547
  33.9221144  69.7543151  22.6718790  75.5339988  24.2120593  85.4111958
  74.8553999  24.5996802  84.8584843  75.8577879  24.9413436  85.9399033
  36.6727877  82.4093730   4.4536478  36.9429255  83.3053023   4.6550638
  37.3915529  82.0543486   3.9306051  13.2122898  60.9695346   8.4216100
  13.5151863  60.4951198   7.6473886  12.8874016  60.2870185   9.0088445
  72.6893377  83.6921310  67.7371597  72.7547073  83.2265186  66.9033909
  73.5873556  83.7192535  68.0673885  62.3207378  96.5518665  59.3656349
  61.9678068  95.9590626  58.7021160  63.0407381  96.0633564  59.7646284
 104.4188746   5.7009452  59.2874384 104.4216689   5.0087111  59.9485302
 104.4558199   6.5137713  59.7916031 107.7745207  20.8035987  88.2706738
 107.1942671  20.5529731  87.5518322 108.3259352  20.0341933  88.4127522
   0.6876079   6.4378398  71.3094616   0.1166908   6.7552607  70.6097984
   1.2455503   5.7855075  70.8859158  32.7484504  28.0064052  74.7606182
  32.8183834  27.0572322  74.8626900  32.2862140  28.2983821  75.5463171
  35.1673690  37.0807403  83.3121014  35.6487648  37.7110141  82.7761364
  35.4353325  37.2759097  84.2100620   8.1404201  19.4778293  35.3149390
   8.0010454  20.1673167  35.9641004   7.2909967  19.3783706  34.8850369
  49.4023132  97.5040627  57.7811766  48.9302158  97.5582695  58.6120844
  48.8348484  96.9786549  57.2171164  83.5125637  83.0261326  54.7986317
  83.0759048  83.1517982  55.6411123  82.8398228  83.2266903  54.1479111
  55.4286003  77.7008349   3.0916006  54.8862457  77.5888068   3.8723165
  54.8036480  77.7223689   2.3668844  52.5172138  77.2820956   7.6147539
  51.6020203  77.5311190   7.4857790  52.5357247  76.8790252   8.4827501
  96.7961939  12.2784751  55.0365114  96.5306958  12.7659743  54.2567110
  97.7130230  12.0537703  54.8778820  55.7355213  79.5436866  16.1731798
  56.1868096  78.7117297  16.3160593  55.4894543  79.8364837  17.0506460
   9.6340458  22.3387664  68.3936548  10.1769153  22.5896399  67.6462698
  10.2614872  22.1119636  69.0800285  56.2375148  12.2673266  75.9467173
  57.0259961  12.7934306  75.8135128  56.0704835  11.8659728  75.0939274
 104.9272641  11.4940017  70.0996590 104.6974238  11.8983024  69.2630339
 104.0959795  11.4263480  70.5693674  50.6978035  37.2902686  16.4084894
  50.5152035  38.2298858  16.4121610  51.6529370  37.2317988  16.4316827
  54.0377903  73.2500076  35.6436777  54.2141438  72.3200512  35.5011296
  54.2802143  73.4025049  36.5570259  10.5411903  26.8710273  45.6556511
  10.7085601  27.5966399  46.2570620  11.4107505  26.5930312  45.3678656
  25.0414538 100.3819084  47.1186066  24.6908402 101.2693214  47.1948004
  24.7523665  99.9407578  47.9173851  78.6701926  27.7400153  83.9553356
  79.5231350  28.1729167  83.9915943  78.3405407  27.9334395  83.0777550
  82.4782753  88.1292725  71.3434076  82.4281883  88.4358215  70.4380083
  82.1283436  88.8541508  71.8614101   1.4443819   0.1840823  61.9253302
   1.4920847   0.7800143  62.6728773   2.1352474  -0.4584653  62.0867825
  30.0168514   7.1560771  12.3041231  30.9164906   7.4820096  12.2785265
  30.1073647   6.2031752  12.3082429   9.5044033  27.6282351  66.1560202
   9.2661850  27.7419990  67.0760965  10.3834430  28.0009788  66.0883522
  79.7526797  10.7982200  70.4932308  79.4590529  10.1329654  71.1156750
  80.6924685  10.8799308  70.6555700   3.7656490   2.9598086  43.3335829
   3.5873501   2.0195239  43.3510065   2.9002229   3.3681529  43.3563805
  13.3109180  35.2264827  47.7189207  13.6213390  35.5180304  46.8616772
  14.1099064  35.0588458  48.2186747 102.3396778  80.0985718  71.1220551
 102.5337791  79.2309952  71.4768362 101.4408016  80.2752304  71.3996363
  26.8941927  67.2864539   4.7837144  27.1034765  67.7621276   5.5875665
  27.7409506  66.9793898   4.4597608  79.9747761   1.8518775  59.0957880
  79.9629076   1.2350028  59.8275995  80.5529078   2.5572246  59.3864536
  64.6011448 101.5984154  56.8425179  63.8104582 102.0175838  57.1821499
  64.8177958 100.9318924  57.4944735  75.8061846   8.6455577  74.9255896
  76.2053355   9.4879191  74.7080469  75.9201821   8.5639041  75.8724642
  73.5063171 101.2403488  52.5821829  72.8278065 101.8892097  52.7688408
  73.1273127 100.4087830  52.8669405  10.5577747   9.4439071  44.0221643
   9.7201244   9.2225593  43.6152363  10.9849636  10.0231498  43.3911228
  22.0835010  13.9179748  40.5362129  23.0136196  13.6930030  40.5136108
  21.8389789  13.8334887  41.4577913  39.4690848  53.4223563  13.4464056
  38.8966036  53.4841449  14.2110521  40.2565766  53.9052874  13.6971456
 102.3469075   1.1179297  54.5729971 101.3918694   1.1821788  54.5699549
 102.5261458   0.2283042  54.8774099  61.4115095  99.1066933  44.5354271
  60.5014086  99.2767334  44.7783899  61.3774586  98.2915878  44.0347528
  76.7827137  11.4988177  46.3714886  77.1277436  11.1110919  45.5672169
  77.5564154  11.6558783  46.9127417 101.4205456  97.0035458  46.1457968
 101.1596298  96.7295361  45.2665520 100.6737041  96.7753029  46.6992998
  47.1135330  76.5845496  14.6091825  46.8242932  76.1084277  13.8308031
  47.0810986  75.9360415  15.3124601   7.0214264  25.1028674  62.4444914
   6.6140739  25.9246104  62.1705866   7.3945610  25.2955478  63.3046484
  14.3781082  22.6174777  58.3991814  13.9443866  23.1538051  57.7355003
  15.0649826  22.1533244  57.9206514   5.7285960  79.8907423  56.1073065
   6.0979446  79.0473461  55.8455801   5.5773910  79.8042727  57.0485210
  30.9534121  37.2354514  11.1637479  31.3197231  37.4663646  12.0174009
  31.4158011  37.7997977  10.5441171  38.1602756  36.7904227  47.1992588
  38.5464183  37.3915809  46.5622902  38.7102691  36.8803637  47.9774952
  96.5944767  98.8807201  70.6699753  97.2213745  99.2970085  71.2615299
  95.7389641  99.0724373  71.0541248   2.1152536  95.0696886  79.1190958
   2.3675362  94.7372962  78.2576418   2.7458254  95.7664735  79.3010378
  43.3331823  21.6105080  44.4521713  43.9990616  21.1080670  44.9216318
  42.8666353  20.9591436  43.9284468 104.6411802   6.5138376  80.1194477
 105.2381719   6.1915284  79.4442034 105.1667212   7.1303034  80.6293583
   0.5835787 101.0412435  68.0060291   1.4861480 101.1592454  68.3021355
   0.5086175 100.1025542  67.8343487  80.8053343  16.6897285  72.6040316
  80.5689589  17.6037502  72.7618980  81.1063568  16.6736627  71.6955376
  88.8889102  28.0484772  58.3702564  88.2504300  28.2321286  59.0593481
  89.0792624  28.9041924  57.9858685  24.0432644  40.6548023  74.2990351
  24.1969824  41.1492538  73.4939766  24.8692870  40.7155704  74.7788572
   1.9974729   8.3049810  49.8907995   2.2072627   7.3985767  50.1158571
   2.3791863   8.8223410  50.5999279  68.3208815   7.3794979  68.5282087
  68.8822762   7.8215313  69.1651344  68.6878292   6.4983529  68.4563494
 104.7390397 101.7005873  49.8071289 105.1999839 101.4266436  50.6000471
 103.8302143 101.4397246  49.9561930  24.0440273   0.7069842  39.3908215
  23.2146978   1.1689941  39.5132637  23.9851427  -0.0495640  39.9742579
  28.1749105  22.7468085  63.7337494  28.3802414  23.6599994  63.5333681
  28.7828732  22.5129533  64.4351244   8.8548511  17.0955443  27.0234632
   9.6853071  16.8202829  27.4117994   8.5610241  16.3348389  26.5222406
  93.7262623  13.7541986  33.8871074  92.7943150  13.9693332  33.8493943
  94.1666655  14.5392787  33.5616446  91.9992121  89.1631646  54.9469519
  91.6214856  88.4683723  54.4076729  91.9466921  88.8271982  55.8417130
  47.8001976  30.4842401  66.1014938  46.8928766  30.2080560  65.9721518
  48.2603598  30.1664209  65.3246593   5.9674597   4.9951342  57.4578953
   6.0479265   5.9204364  57.6893520   6.8707579   4.6900353  57.3730516
  86.3185803   9.9205297  45.9307528  86.0063736   9.7505915  46.8195057
  85.5566851   9.7590399  45.3742695   7.9439437  18.8361335  52.5829029
   7.4836600  18.1588829  52.0872164   8.4548914  19.3084788  51.9255924
  98.5330210   8.6539125  41.0322571  98.6811821   9.5170492  41.4186192
  99.3369643   8.4673387  40.5473900  18.2043028  11.3673925  80.5368137
  18.0754423  11.0273719  79.6513700  18.2410944  12.3173940  80.4255772
  54.2039402  38.1339718   1.7850191  54.8451384  37.6228584   2.2788412
  53.9900609  37.5851954   1.0304719  16.4849734  15.6140530  19.5770597
  16.5577984  14.6651256  19.6793604  16.3787091  15.9436989  20.4694009
  43.6069345  11.6066658  84.1703606  43.6672163  12.4585378  83.7380219
  44.0929794  11.7178321  84.9874496  77.3616072  93.9462108  64.3198586
  77.0477756  94.4680233  63.5813093  76.9493635  93.0905611  64.2009020
  38.1051683   6.7300218  83.1603146  38.2552075   5.8461875  83.4958076
  38.9715528   7.1369672  83.1615639  20.8663106  30.8159757  53.6808109
  20.6218815  31.7289281  53.5291481  20.5628657  30.6312704  54.5696545
   7.8696561   9.5428163  77.1254539   8.1729776  10.3649473  76.7403221
   7.6295584   9.7730023  78.0230093   3.1683069  18.2256007  73.3913898
   4.0514520  18.0560935  73.7193441   3.3009034  18.5358977  72.4956417
  22.7260470  33.0178022  36.5650225  23.3351922  32.3360777  36.8486142
  22.2973967  33.3062768  37.3707962  77.4413713 101.4648574  50.1044035
  77.8586634 102.0300600  49.4542933  76.9544645 100.8234859  49.5869112
  55.0379658  28.5296464  83.3445740  55.2154589  28.1667018  82.4768162
  55.7651329  28.2224989  83.8859749  42.0028543  42.2727394  65.4570341
  42.0264626  41.4146900  65.0334454  42.6784563  42.7804232  65.0075340
  22.5442028  15.3143406  23.0193996  21.8263602  15.4487193  22.4006295
  23.3117390  15.6788266  22.5786376  27.3440266  19.3365312  46.6253042
  27.4036789  18.3812511  46.6146421  28.2515574  19.6324003  46.6965818
 107.8619389  37.4582195  61.9775867 107.1713022  37.8117371  62.5381947
 108.2371976  36.7384219  62.4848366  76.8689646  72.0032794  67.0182085
  76.9954159  71.6367490  66.1430550  77.3825075  72.8110535  67.0160675
  34.5642090  45.6131458  86.2149811  34.5791602  45.9508085  87.1105194
  33.6347294  45.4955626  86.0188293   3.8861597  34.4560599  17.4213660
   4.7664028  34.7971749  17.2631109   3.3349106  34.9111104  16.7847455
  34.8977590  18.8295352  33.2403684  35.5456901  19.0065479  32.5584006
  34.3789101  19.6322596  33.2919478  22.7285933   9.9117357  23.9829707
  22.6615810  10.8332288  23.7327862  22.9375577   9.9316925  24.9168706
  17.4697105  85.4383225  62.0743179  17.1538583  85.0622363  61.2527180
  18.2937805  84.9823458  62.2452784  22.1413136   8.7833554  59.7279978
  22.5295997   8.7303799  60.6013012  21.8033576   7.9032540  59.5623493
  40.4377651   4.1778144  23.7263775  40.3799820   4.5803005  22.8598332
  40.8593416   4.8422125  24.2714286  14.7069255  96.4170028  69.3811607
  14.3290702  97.2936840  69.3112469  15.5923645  96.5636576  69.7139120
 104.1786737  44.6640682  40.1644659 104.5552681  45.4293871  39.7300720
 104.3208922  44.8240662  41.0974216  44.4661427  24.8495030  35.5503511
  44.6784782  25.5892539  36.1194897  45.1954508  24.2406011  35.6668806
 101.8023561   8.4794027  71.6029263 101.7480580   7.6488811  72.0757055
 102.7162932   8.5370976  71.3243198  82.0223208  90.2558441  34.0623045
  82.7865537  89.6968693  34.2027545  81.4066442  89.9964709  34.7477984
  44.0277338  12.1830964  73.3827782  44.8952055  12.3163927  73.0007267
  44.0089846  11.2550557  73.6164904   4.9322876  52.2075272  71.3661480
   4.4589776  53.0006361  71.6175175   5.7778245  52.5238943  71.0480070
  91.7855640  96.9704325  80.9843445  91.2001832  97.7159468  80.8510494
  91.6907461  96.7543269  81.9120026  36.0463023  26.8181562  71.3265181
  35.6188774  27.1978951  70.5588388  35.8947253  27.4552059  72.0246744
  94.7315816  22.1535063  70.2866316  95.6438522  22.2469163  70.0122786
  94.7706000  22.1259212  71.2426376  93.1907066  79.6141274  55.1749802
  93.3030351  78.9217932  55.8263540  94.0150364  79.6213157  54.6885014
  12.7158666  23.8145709  56.5221977  11.9767451  23.5977364  55.9539413
  12.9950452  24.6827006  56.2312603  64.8162593  87.2028369  40.2597427
  64.3640031  88.0343194  40.1171494  65.6448885  87.2972519  39.7899675
  42.2685814  14.4352388  59.4444323  42.1281719  15.1300335  58.8011789
  41.4206409  14.3343067  59.8769140  80.0348369  20.0202918  60.5243397
  80.9100954  19.9501956  60.9054422  79.6447293  19.1567659  60.6598806
  27.4645352  42.7340698  59.7074270  27.0409250  43.0762482  60.4946375
  26.7835712  42.2204447  59.2730188  72.0575308  86.0047907  69.9273396
  72.9999117  85.8370883  69.9324226  71.8410675  86.1274631  69.0030432
   9.9869005  80.4159314  34.3317461   9.5481912  80.8467276  33.5981393
  10.0537387  79.4988615  34.0657568  16.8380205  91.8683750  57.0368528
  16.1757509  91.9685669  57.7206612  16.4081899  92.1785922  56.2398338
  13.7041700   0.9402657   5.5569947  12.8717804   0.4996018   5.7278001
  14.3506980   0.2345155   5.5447197  18.5792780   4.8430967  21.2622070
  18.9754593   4.1454795  20.7400942  18.9014900   5.6521153  20.8648396
   7.7777243  31.6641831  43.6839437   7.3530364  32.4193311  43.2769775
   8.5132515  32.0364213  44.1704321  50.7492256   8.7712032  44.2998362
  50.4109478   9.6550059  44.1559887  50.4602575   8.2764041  43.5330868
   4.9556390  95.0644482  33.3453560   4.1397277  94.9791706  32.8521538
   5.6027786  94.5924968  32.8212333   1.3483138  50.3403759  37.8447533
   2.2393404  50.1690102  37.5398970   1.3442338  50.0401258  38.7536359
   0.5414073  99.3038058  46.5541410   1.2450472  98.7389828  46.8736696
   0.3665105  99.9025554  47.2801876  29.7724462  13.3929753  80.4846954
  29.2608809  14.1240597  80.1382160  30.0681186  12.9181516  79.7079420
  40.2664661   5.6439024  50.2756548  40.6571770   5.9100193  49.4433355
  40.9757805   5.7321697  50.9122944  49.1292715  12.4705422  53.6759663
  48.8582039  12.4319243  52.7587605  48.5667658  11.8352306  54.1189098
  28.1407785  21.0852647  44.0374088  28.0623293  20.2637339  44.5223427
  27.3552012  21.5786386  44.2733812  36.5948343  19.3979454  64.1385078
  37.1640563  19.9337375  63.5861111  35.8192134  19.2393470  63.6004639
  49.5688057  23.0118561  27.7747178  49.4044352  23.7751532  28.3284235
  48.7441397  22.5260186  27.7855945  52.2229099  40.2838850  73.2464027
  51.4095068  40.7837200  73.3154821  51.9858027  39.5099616  72.7354717
  75.5519654  83.7253708  16.0405040  75.2037858  84.0671570  15.2169847
  76.5023523  83.7681968  15.9348512  39.0404654  23.6929679   5.5949819
  38.4041739  23.1683230   5.1090688  39.6864033  23.0586481   5.9058398
  91.0509451  95.6429500  53.5726833  90.7702990  95.9262402  52.7024984
  91.8467470  95.1351989  53.4141874 101.7080597  28.8758254  55.4862690
 101.7302326  29.3077946  54.6323681 102.4617253  28.2858157  55.4758501
  88.6388679  95.3801454  22.6877570  89.4004174  95.4485334  22.1119142
  88.8398202  94.6427799  23.2640743  55.4429956  63.8861205  23.2351667
  55.4602142  64.3749811  24.0579397  55.1348074  64.5192517  22.5867921
  91.7792149  93.2465024  39.2576957  91.4551385  93.3838732  40.1478291
  91.1558588  93.7133110  38.7011480  88.2888468  55.7992895   9.4545824
  88.4969004  56.7234041   9.3168909  87.3451146  55.7414420   9.3053991
  60.2079233  76.2753333   2.6814443  59.4368108  76.0371269   2.1667844
  59.8582729  76.5160669   3.5393602  50.5461836  12.1855557  63.0097198
  50.0489902  11.7838848  63.7222481  51.2766790  12.6247549  63.4452868
  36.2923908  11.1644077  22.6634502  36.5869880  10.2562904  22.5944042
  36.9196391  11.6603529  22.1373057  20.3241611  21.9799829  53.9905500
  19.7227693  21.3428926  53.6049652  21.0766912  21.9874716  53.3990479
  38.3917761  33.4681773  65.7901096  38.3086753  32.9501772  66.5907383
  38.9661098  34.1943216  66.0331821  53.5838938   8.4976608  15.3272772
  54.1378355   7.7341533  15.1646817  52.8369808   8.1519562  15.8159924
  15.0968754  30.0027227  81.8766785  15.3380406  30.6208253  82.5666237
  15.0508130  30.5357552  81.0829639   6.0649061   1.5125367  54.5708036
   5.5849284   2.1615162  55.0852728   5.4813391   1.3065639  53.8405561
  90.3224198  15.8572924  55.4824829  89.9089209  15.7852483  56.3427496
  90.0122802  16.6943693  55.1370096  77.2365483  99.1815151  17.6048357
  76.4425524  98.6853184  17.4058706  77.0145234 100.0865473  17.3860723
   8.3782357  31.7825007  60.8756256   8.8973701  32.5275898  61.1782312
   7.5566298  32.1698642  60.5737209  41.4289141  19.1919720  72.4338484
  41.4768219  19.5158994  73.3332968  41.8657112  19.8658764  71.9129944
  58.6448177  97.2067351  62.2577572  58.2012554  97.8603119  61.7170906
  58.3194264  97.3677907  63.1434298  13.1592027  77.8252585   1.9749270
  13.4806530  78.5481364   2.5137675  12.7629367  78.2510001   1.2146993
  29.8663926  12.4602127  62.3108292  29.1049647  12.0112789  61.9435167
  29.7957873  12.3182857  63.2548094 103.0399976  39.7653461  73.0601835
 103.4257801  40.1809740  72.2890425 103.7398414  39.2142892  73.4105921
  36.7370367  52.3794794  55.8945274  37.0802903  51.7262983  56.5042543
  35.8823085  52.0370913  55.6329155  10.2036393   4.0710297  34.1206002
   9.4498545   4.6512306  34.0137887  10.9548235   4.6037489  33.8595176
  32.0132542   2.3354885  62.4065924  32.5025249   2.3191436  63.2291365
  32.6873612   2.3513149  61.7272091  18.8241196  24.0713859  55.5514050
  17.9208970  24.0073705  55.2410460  19.2335522  23.2542133  55.2671099
  10.4318897  85.2570362  87.3549652   9.6764699  84.6950824  87.5275135
  10.5377428  85.2307052  86.4039993  16.2797761  13.8703287  58.7968826
  17.1667767  13.8654387  59.1566563  15.7368803  14.2211056  59.5028925
  28.7103987  15.3862536  27.0646882  28.3469892  15.9853089  26.4125395
  28.0937958  15.4253876  27.7957845  95.4282244  74.1610176  55.2012253
  95.6807001  74.7573096  55.9061527  95.7838925  74.5629293  54.4086361
   8.7784117  26.1474013  73.3707380   8.0249453  26.0850358  73.9577913
   8.5358453  26.8262362  72.7409983  91.2059100  87.1317846  53.3172941
  91.8029042  87.2899205  52.5859785  91.0157688  86.1947090  53.2729387
  96.6658696  94.3595458  70.5396032  97.3404725  94.9688632  70.8393955
  96.6033443  93.7085975  71.2385941  49.7160812  53.2509501   3.7904340
  49.3075748  52.4311869   3.5123235  50.5480476  52.9835269   4.1810018
  31.4115325  87.3968989  61.7129660  30.9478132  88.0188365  61.1522627
  31.8958274  86.8399090  61.1034966  29.9380636  25.9999347  49.2722034
  29.5223331  26.8616128  49.3023777  30.3573322  25.9061980  50.1275730
  52.6322218  80.5032958  13.5790712  52.1417018  79.7591056  13.9280683
  52.1678611  80.7410730  12.7765352  83.0485789  11.3275540  86.9124031
  82.9598896  12.1240664  87.4357891  82.1654097  11.1562169  86.5854645
   9.3029577  24.0493846  24.9119282   8.7743062  24.6864462  24.4313931
  10.1813579  24.4294286  24.9265003  18.6213279   0.6798702  86.7098427
  18.8378716   1.6061640  86.6034412  18.6145425   0.3315457  85.8183002
  42.6474524  23.0598569  65.8147860  42.1321297  23.6460733  65.2606869
  43.3777237  23.5985637  66.1193037   2.4779303  17.8804410  76.2034845
   2.6756459  17.5850570  77.0922375   3.2345936  17.6053619  75.6857729
  17.8060484   4.3798247  64.5134830  16.9369221   4.5622715  64.1563225
  18.1372833   3.6572254  63.9802265  63.4080031  70.5809743  80.6547642
  62.6430913  70.0535471  80.4246235  64.1151621  70.2247579  80.1169300
  23.7888551  36.4072204  49.7268724  24.3531394  37.1645522  49.8826456
  24.2395663  35.9088993  49.0451336  70.2727278  83.4943665  16.6709978
  69.7308405  84.2773856  16.7683202  69.6443757  82.7777399  16.5823823
 102.2328289 100.6830326  51.0530758 101.3729223 101.0561206  51.2469769
 102.0501264  99.9581153  50.4552937  41.0032797  34.5023227  67.4071884
  41.6692495  35.1774359  67.2770452  41.4515924  33.8156652  67.9008961
  11.8777648 101.7147365  46.5680313  12.3382513 102.2061267  47.2482681
  12.5322525 101.1039638  46.2291574  32.1506238  31.1806750  48.5142183
  31.7312169  31.2919474  49.3674183  31.4918447  30.7376623  47.9794502
  44.9539860  82.9196698  72.2174835  44.6271785  83.4334333  71.4789200
  44.6118697  83.3678109  72.9910183   0.4025451  75.6386692  48.4786034
   0.5544893  75.1599080  49.2934227  -0.2857979  76.2675840  48.6951303
  32.4010431  41.2583454  28.0465108  32.0211520  42.1243890  28.1944353
  33.3451541  41.4130403  28.0155832  10.1168275  54.0939426  45.1810408
  10.6501675  54.0689135  45.9754944  10.5878174  54.6862936  44.5949364
  51.9262072  52.5684389   4.8766786  51.7819854  52.7152669   5.8114893
  52.6753577  53.1234054   4.6598417   5.2320009  15.7577991  61.9215488
   4.5209634  16.0203362  61.3369703   5.6911236  16.5735233  62.1216345
  48.4343481   0.8320205  35.4004169  48.2801342   0.3573149  36.2171817
  48.5666180   0.1460821  34.7460294  16.4870417   2.9715416  52.7523899
  17.3969066   3.1735164  52.5342560  16.1719656   3.7506616  53.2105732
   8.2188177  32.3079681  85.9482384   8.5772949  32.7397704  85.1728249
   7.4720258  32.8508067  86.2009430 104.6860231   8.9828950  46.2208700
 105.2855299   8.6576837  45.5492592 105.1853020   9.6574062  46.6812897
  48.0011702  41.9823933  76.0072088  48.4333324  42.3079538  76.7968178
  47.8339911  42.7669144  75.4848957   4.9321645   3.8674650  48.3682346
   4.1207486   3.9304939  47.8643847   4.9137786   4.6288094  48.9481020
 107.7757378  21.4777327  35.1272535 107.0674114  21.2537575  34.5236468
 107.6690051  22.4159288  35.2841949  15.4596794   4.6759737  63.4349585
  14.8937500   4.8920351  64.1760874  14.9716520   4.0133101  62.9461479
   8.1845039   2.4838649  72.2850037   7.3933566   2.0527543  72.6082087
   8.9031458   1.9457743  72.6170349 101.1219652  85.6614453  76.5403461
 101.7515381  85.9647340  75.8862162 100.5034669  86.3862652  76.6316128
  23.8493323  11.9075918  58.2435131  23.1232381  11.3157129  58.4402275
  24.2063618  11.5822828  57.4171114  98.7103645   6.9767511  72.3700619
  98.7196497   6.0429209  72.1600485  97.8240113   7.1410507  72.6919556
 105.3959521  83.3586580  80.5973625 106.0456618  83.5575254  81.2715721
 105.0482090  82.5019652  80.8451176  75.3824761  73.9575321  58.7520504
  76.0000025  74.2860157  58.0986023  75.9251501  73.4661800  59.3687391
  25.5656958  46.2778997  51.8044615  25.3530931  46.7881155  52.5859451
  25.0617504  45.4699087  51.9015169  22.4296355  21.8710256  47.6753664
  23.0751157  22.5636363  47.8163433  22.4728060  21.6909361  46.7362547
  15.7864618  13.2489800  69.6830177  15.0842631  13.5770881  69.1213274
  16.0819125  14.0177059  70.1708698   8.2550192  41.8723869  33.3508515
   8.9793038  41.8438625  33.9760137   7.9615009  42.7833509  33.3657479
  78.3691647  62.2172553  37.3137021  77.9229798  62.7987010  37.9293919
  78.1826355  62.5915463  36.4526892  83.2352110  91.5344710  49.4477940
  82.9324635  91.2877256  50.3216887  82.4600454  91.8975920  49.0194321
  17.7796876  16.3759303  59.4623995  18.3574986  15.8519554  60.0172138
  18.3738196  16.8779695  58.9045525  38.8269321  99.4830393  78.7842035
  38.8280097  98.8024948  79.4573259  38.8408319 100.3049681  79.2745829
  26.5756226   1.5779932  42.0190954  27.4772263   1.2755449  41.9101572
  26.0406828   0.8721102  41.6560507  23.3319759  37.5114655  41.1493778
  22.4034238  37.6017952  40.9352207  23.4324765  36.5921617  41.3963890
  42.2393560  34.3413019  23.3836842  42.0646000  34.3910384  24.3234801
  42.0219374  33.4396625  23.1470227  48.9909335  37.1745075   9.7696001
  49.0751358  37.4979915  10.6665403  49.6755751  36.5103997   9.6892435
  28.0443645  15.3932095  59.4135714  28.3719873  15.9591246  58.7145472
  28.5505509  15.6479418  60.1850128  79.5984407  88.0506630  69.7852373
  79.9328276  88.8872737  69.4619703  80.3828533  87.5478859  70.0046539
  73.8164063  94.0614177  47.6257181  74.0383210  94.6918888  48.3109140
  73.1886619  94.5229865  47.0697308  23.0254173  25.6022525  28.4522915
  23.2168722  24.8539662  29.0176582  23.3188152  26.3627863  28.9540243
  75.4511764  89.3759055  57.4121189  75.5972894  90.3192002  57.3408604
  76.3298075  88.9961929  57.4045324  28.1882954  28.6409473  77.1645880
  28.0461836  27.7876735  76.7547607  27.5356555  29.2125630  76.7601824
   1.4123097   9.5198399  55.3094053   2.2144449   9.4662458  55.8289623
   1.3054371   8.6421895  54.9426079  93.2325967  99.5272592  22.6121187
  93.7492307  98.8235969  22.2194600  92.3412236  99.1800226  22.6454401
  79.1070183  68.9064843  29.5535564  78.6145439  69.3842823  28.8861656
  79.9698373  68.7695653  29.1623688  53.5291862  12.5330627  58.5164738
  53.9471197  12.7336287  57.6790142  52.6377630  12.8698301  58.4260225
  22.3569147  95.9732134  29.8061132  21.6115753  95.7577050  30.3666997
  21.9973461  96.5675629  29.1475630  77.4689241  66.7812926  63.2721281
  77.2383746  66.1818893  63.9819145  76.6322925  66.9988329  62.8610849
  15.2702514  64.7206552  15.8420062  14.5733825  64.3011457  15.3374088
  14.9318162  64.7530658  16.7367935  20.1540017   2.8720519  20.1387334
  20.4138660   2.2423488  20.8111739  19.8046649   2.3336305  19.4285941
  19.4894767  19.0140665  87.7652931  19.1384089  18.4188414  88.4276295
  20.3888392  19.1819334  88.0467129 103.8048228  78.8895351  58.9677954
 104.3216809  78.8630635  58.1625700 103.4737476  77.9971726  59.0693378
  14.9643707  52.0984983  28.2224751  15.0354099  52.6152134  27.4198604
  14.0226758  51.9874334  28.3532643  17.4209952  30.1378012  50.9139490
  17.6075971  30.9843707  50.5080795  17.4107361  29.5191193  50.1836348
  96.7471210  37.2562170  88.1483555  96.6632740  37.5926590  87.2561646
  96.0053376  36.6598725  88.2501507  16.6069472   3.1128964  34.3448734
  17.4680090   3.5218480  34.4318271  16.0696912   3.5418919  35.0108695
  69.6478319   3.2649255  44.4052267  70.0599527   4.1273671  44.4560719
  69.5768833   2.9793066  45.3160620  63.1325801  99.5214585  80.8868504
  63.0493470 100.4176027  81.2127781  63.8611247  99.5586922  80.2671146
  26.6946054  21.3847375  83.1864357  26.2665129  21.5906882  84.0174294
  27.0603561  22.2189426  82.8922176  82.3824426  88.3848817  68.7467909
  82.5533183  87.8701038  67.9580975  82.5916692  89.2845280  68.4956121
  80.0357934  92.8184516  43.9206648  80.3463640  92.1790005  44.5616674
  80.5434944  92.6319171  43.1309366  95.5724486  76.4820010  75.0413275
  94.7369989  76.8121845  74.7108269  95.3787597  75.5919225  75.3353977
  27.0537448  36.2544990  80.9100723  26.4214087  36.7655563  81.4152431
  26.8214917  36.4214754  79.9966097  42.0714045  35.4379296  51.3976765
  42.4275589  36.3251710  51.4444876  42.5930357  35.0058246  50.7213449
  68.8466840 100.2847489  44.8032045  69.1152950 100.7023367  45.6215572
  69.2135545 100.8430969  44.1177225  69.1791137  30.4475583  27.4548131
  68.3834203  30.1062573  27.0466215  68.9750465  30.4771341  28.3895380
  42.9448976  70.4830350   5.3388387  43.1185796  71.3023771   5.8022481
  41.9957932  70.4745103   5.2148992   6.1337429  18.1271625  82.0972729
   6.9191581  17.9752672  81.5716457   6.2011820  17.4984574  82.8158951
  67.2743464   8.6831421  61.0935259  67.5100183   9.2848051  61.7997074
  67.8472567   8.9298505  60.3674841  11.6245882  99.3308320  71.5427256
  10.6682865  99.3508797  71.5064716  11.8575136 100.0554527  72.1231556
  94.9445351  92.6515193  31.1550760  94.2978676  92.3680950  30.5087590
  94.5818599  92.3714680  31.9954729  36.0908023  91.7115898  51.5706110
  36.5346471  91.7929465  50.7264471  35.9615318  92.6143957  51.8612337
  36.9943380  37.4335313  53.7272167  36.5422297  36.6754436  53.3569002
  36.5818620  38.1876707  53.3060598 100.2997039  42.3857403  56.8124628
 101.1363117  42.0293379  57.1112871 100.1983361  43.2018042  57.3023653
  14.0495467  36.5021205  65.8336210  14.8802686  36.7593360  65.4336548
  14.1255021  36.7833281  66.7454243  44.4303560  58.2629251  63.9573240
  44.2502832  57.7928400  64.7714663  43.6389971  58.1441212  63.4320974
  41.3308191  16.6690040  61.9104338  42.2175074  16.6426742  61.5508223
  41.3888836  17.2781217  62.6465273  29.9462104  13.5025001  30.6230760
  29.8461962  14.3554056  30.2002501  30.8927727  13.3686745  30.6714463
  63.9693928  21.6841316  39.2128873  64.3784761  22.5468278  39.2809963
  63.5811186  21.6715670  38.3380651  17.4970806  48.3088589  64.1529131
  16.7898560  48.0521154  63.5611773  17.8921103  49.0745926  63.7359810
  17.7361286  54.0067816  86.7494965  17.0067239  54.5903683  86.9583702
  17.4655867  53.5636044  85.9453583  56.3400507   0.2648895  52.5650406
  55.9404039   0.8129922  51.8896914  56.6461134   0.8851178  53.2267618
  22.8181553  29.3692398  63.0454350  22.9746938  28.4259629  63.0896711
  23.6900425  29.7597647  63.1049109  61.2851954  27.5401688  42.4462366
  61.2516594  27.3633647  41.5061045  61.9649649  26.9526505  42.7763367
  60.8223534  32.3107457  36.8701172  61.3643456  33.0948567  36.9575524
  59.9354315  32.6089215  37.0718431  45.9099388  32.0246482  53.5373783
  46.8624306  32.0941401  53.4728813  45.7549620  31.6574168  54.4076395
  16.2001753  58.0637836  24.7374701  16.9848835  57.9817629  25.2794433
  15.5386066  58.4256029  25.3270817  25.3271461  41.8605995  63.0563211
  25.9328270  41.1193991  63.0583429  25.8830070  42.6237106  62.8984737
   6.7576981   1.2529567  39.3977094   6.9789684   1.3413113  40.3247833
   7.4146324   0.6491557  39.0511632  14.6533430  11.0047567  49.5205593
  14.8525763  11.7376304  48.9379501  15.2575862  11.1116791  50.2551937
   7.4054450  49.0418434  64.0050983   7.1189123  49.1697168  63.1007862
   6.6959816  49.4055271  64.5348406  22.7956653   0.3261518  18.0090463
  22.2575402  -0.3916021  17.6751554  22.6985288   0.2760274  18.9599848
  16.3459647  32.1128273  77.2602987  16.6995668  31.5467095  77.9463816
  16.0565770  31.5085530  76.5766716 108.0272969  96.0775895  46.1920309
 107.8681739  95.9233368  47.1232224 107.1532687  96.1367447  45.8062744
  27.6731658   9.4892812  42.8449583  28.5930634   9.5853412  42.5983858
  27.2617102   9.0837860  42.0817327  89.9817677 101.5743031  72.3177433
  89.6596261 102.2842006  72.8731728  89.1923221 101.1961293  71.9304562
  42.5707674  27.9323864  81.6564655  41.8225241  28.4890890  81.4409447
  43.3344984  28.4907746  81.5110397  46.4861774  22.2446251  57.1651506
  47.3359489  21.9050741  57.4459171  45.9341288  22.1827912  57.9446650
  32.7908516  46.5854788  51.3066530  32.5762630  45.6739044  51.5046883
  33.5325837  46.5314579  50.7040358  31.5833354  51.9759750  76.2972975
  31.4780140  52.5683260  77.0417833  32.2679067  52.3804426  75.7643795
  26.0581470  58.4277821  65.3812218  26.3749504  59.0939474  64.7712231
  26.3513708  57.5984907  65.0036955  35.9254122  15.5779922  57.1371651
  35.5312324  14.9805915  57.7727461  36.2799406  16.2918091  57.6672649
  18.8774157  28.6155844  68.6317968  19.6492755  28.1217909  68.9086199
  19.2164886  29.4804120  68.4008551  14.3995094  28.1568408  42.1417427
  14.3297267  27.2517490  41.8381453  13.7355733  28.6296701  41.6398954
 106.7379283  16.1177123  32.1289968 106.8744573  16.8682897  32.7071214
 107.4358879  16.1870170  31.4776301  24.9658895  31.2502146  72.1757364
  25.5975342  30.8408117  72.7670479  24.1687202  30.7306862  72.2798634
  23.6076045   0.7406276  66.0203981  23.4469199   1.0012677  65.1134920
  24.5311737   0.4897025  66.0374451  51.5845013  39.6874690  55.8959675
  51.8343306  38.8487530  55.5081844  52.1877956  40.3205013  55.5066872
  44.2782450  34.8549843  38.9235306  44.6501589  34.1087556  39.3936920
  44.3326426  35.5809164  39.5450568  38.1392145  15.8255243  40.7523298
  38.2550526  15.3866041  41.5950441  38.3890319  15.1677644  40.1033497
  56.7365571  93.9214421  56.3682842  57.6612778  93.8696528  56.1265373
  56.4212437  94.7173024  55.9400129  75.3270674   3.3744895  45.1862669
  75.6706285   3.6579454  46.0335255  74.3996477   3.6098880  45.2129841
  97.5311025  89.3044812  28.6725855  98.3419474  89.5479853  28.2259655
  97.7019437  89.4883139  29.5963001  94.4092258  86.6487951  45.2984476
  94.1868862  86.8457777  44.3885088  93.6646136  86.9759721  45.8031702
  43.9037371   7.6683336  51.3460112  44.8542786   7.7286595  51.2508202
  43.7447882   6.7563093  51.5892792  50.2190590  18.1042922  19.3488395
  50.1387739  18.0681276  20.3019810  50.1839161  17.1890914  19.0706229
 106.2279280  81.9348795  48.2566595 106.2096461  81.1308963  48.7758017
 106.6518625  81.6810376  47.4368572  29.5032024  43.5353613  43.0348730
  29.3144226  44.3356991  43.5248280  30.4050326  43.3174658  43.2703590
  28.1776881  15.5219913  83.4279251  27.6743555  15.7741177  84.2020893
  28.6220098  16.3259780  83.1588268  39.3701291  23.5623431  74.2280245
  39.1477299  23.9898968  75.0550508  40.2347708  23.9071846  74.0050554
  13.0679739  47.7408981  45.5792952  13.9845753  47.4721909  45.6415033
  12.8340256  47.5842524  44.6644354  33.9060783  44.3241787  25.7285976
  33.3772540  43.8453293  25.0904131  33.7120652  45.2456999  25.5571556
   4.3245250  58.6839008  48.2847118   4.0701595  59.4766712  47.8124285
   4.0556598  57.9665518  47.7108145  72.7946906  85.4849441  22.2801542
  73.1237272  85.9622736  21.5184951  73.5262125  85.4854543  22.8974938
  51.0815477  18.4302044  73.4157848  50.8293390  19.3403959  73.5712671
  51.6242504  18.4632730  72.6279926  17.8623283  45.9423065  73.6624098
  17.1883166  46.5463066  73.3507633  17.9010153  45.2600574  72.9921341
  18.5638869  22.5017095  39.9349785  19.0280509  22.1294355  40.6847763
  18.3674538  21.7490768  39.3771338  57.1320089  89.7037215  68.7524843
  56.5008493  89.6814758  68.0331945  57.5175019  90.5786259  68.7058973
  29.7436333  13.8190889   9.4367063  29.0611553  13.2944703   9.0180981
  30.5631661  13.4018898   9.1711086   7.8884238  56.0421896  44.5209932
   8.6080700  55.4642248  44.7745609   7.1534956  55.7634306  45.0672579
  50.0944328  27.0654845  55.6672096  50.8612394  26.5880203  55.3505611
  49.4792938  27.0438838  54.9341536  37.3243284  39.0666294  58.5978174
  37.3378682  38.1801915  58.2368851  37.4918389  39.6341681  57.8454399
  73.4831508  79.3801226   2.7609998  73.2790931  78.5092391   3.1018144
  72.9545196  79.9752702   3.2925779  31.2464476  42.2748852  68.3914614
  31.9206548  42.2064066  69.0674686  30.9172034  41.3818073  68.2902241
  95.1980217  80.3638703  15.6044412  95.7814368  81.0099942  15.2064705
  94.7310742  79.9751098  14.8648083  34.0136868  77.2200383  21.2171346
  33.8462622  77.7766289  20.4565984  34.1330970  77.8340639  21.9416601
   1.4773432  88.0885238  48.9946842   1.0593835  88.8528759  48.5980654
   1.0625831  87.3396081  48.5665131  29.0067244  23.8491845  21.4499187
  29.8311281  24.2461681  21.1688542  28.4878206  23.7817955  20.6484008
  35.4281163  42.0941734  47.4546385  34.5634651  42.0359325  47.0481682
  35.9012365  42.7324438  46.9207811  41.9656563  30.1465583  71.3056898
  42.6687813  30.7855010  71.4222908  41.4841843  30.1666474  72.1327400
  67.5274134  22.9373527  22.9504442  68.2899761  22.4659300  22.6150393
  66.8383789  22.2746921  22.9988146  10.1626861  45.4599237  80.3987217
  10.1353097  44.5245934  80.1971149  10.8122838  45.8166075  79.7928953
  41.6545868  17.5077879  69.2918921  42.0318842  18.3766389  69.4296360
  42.2802639  16.9078529  69.6978903 101.5367512  13.1079817  58.9512157
 101.9212465  12.8110719  59.7759867 101.6248385  14.0608180  58.9751959
 100.1184185  61.5799815  77.8818989  99.2952402  61.2774236  77.4984074
  99.9076255  61.7468125  78.8005733  86.3575713  53.9529753  71.9130278
  85.6432287  54.5160532  71.6148853  86.0573928  53.0642128  71.7226839
  15.5449069   2.4098283  31.7936730  16.0471702   3.0038837  32.3514032
  14.6628428   2.4208111  32.1652603  20.4747558  54.5155430  42.7703428
  20.4663110  54.6958351  41.8303156  20.4958010  55.3804350  43.1799221
  79.7730486   8.8943297  38.8076591  79.8011891   8.8328260  39.7624660
  78.9775626   8.4227329  38.5606122  59.0637096  65.9132923   3.6503297
  58.6540993  65.2656723   3.0767042  58.3300599  66.3353313   4.0973932
  33.3103824   9.0433931  73.6390877  32.3961115   8.9543331  73.3699942
  33.4132290   9.9750262  73.8332891  56.5167665  12.0815027  83.8509274
  57.1941328  12.3400569  84.4758701  56.8785858  11.3128531  83.4099102
  82.0184048  78.5325105  38.6886382  82.9359897  78.5174400  38.9607477
  81.5312537  78.6893994  39.4975281  53.3600426  38.9606214  44.4574594
  53.1635666  38.1885719  43.9268303  52.5182104  39.2095876  44.8389864
  62.0071459   9.7603267  53.4093428  62.2291136  10.6761813  53.5771847
  61.1082935   9.7879463  53.0814219   8.2560253  40.0081539  65.6338120
   7.7320236  39.4510674  66.2094069   7.7269626  40.7973576  65.5176926
  46.8863344  13.6210823  15.8806384  46.6872597  13.8261974  16.7941642
  47.5800514  14.2362118  15.6427336  42.6555530 100.0106586  49.0365219
  42.2426740 100.1911183  48.1920099  42.0685760 100.4079134  49.6798563
  16.4955580  10.0532103  18.6716294  15.5562460  10.2073967  18.5708714
  16.8735850  10.3221250  17.8343642  45.1658630  31.3069034  60.1317215
  44.7060966  31.8127060  59.4616413  46.0116482  31.0974836  59.7354603
  16.7520809  33.5058427  69.9579620  17.5399387  34.0334606  69.8270702
  17.0778763  32.6634908  70.2750254  61.4868744  86.2807430   3.7685567
  61.3927086  86.3013710   2.8162271  60.7883128  85.6977118   4.0657407
  25.9744501   2.4489073  83.6345291  26.0294414   1.5011558  83.7569046
  26.7887306   2.7862570  84.0078545  45.6881523  16.2442625  52.9871988
  46.3375521  16.9422114  52.9012728  45.0233650  16.4535534  52.3310852
  23.3082771  29.5262551  73.5764837  22.4449897  29.8974037  73.3942318
  23.2315040  28.6060977  73.3242035   9.6158934  50.6926346  60.8109283
   9.7560537  50.8384037  61.7465210   9.4189602  49.7585297  60.7409239
  16.9215345  47.6559544  45.9501743  16.3615072  46.9261694  45.6855726
  16.7553592  48.3347750  45.2960968  43.2737350  42.7897453  59.9205685
  42.3187685  42.7642250  59.8603916  43.4865999  42.1676016  60.6161690
  29.7606015  11.5438628  49.1185522  29.1454506  11.2001681  49.7663927
  29.2114091  12.0202780  48.4959364  32.4668574  82.5741863  81.2162971
  33.3935452  82.7896881  81.1112309  32.3093820  82.6464367  82.1576786
   8.9008266  12.1082985  61.8154144   9.7174329  12.4873269  62.1405649
   8.5212994  12.7932978  61.2649918  20.9087181  68.0570936  69.9076700
  20.7859683  67.2828484  70.4569530  20.7567096  67.7445650  69.0157890
  50.5075407  36.5539598  56.8256521  50.8831263  36.7774320  57.6772547
  50.6139374  35.6050658  56.7585182  33.0846047  56.4039660  66.5538788
  32.5824022  55.6046772  66.3952541  32.4319792  57.0448732  66.8359280
  43.5817858  93.2145513   1.2817556  43.3857556  94.0190376   1.7619688
  44.0108051  92.6501907   1.9249326   4.6221972  18.3417332  38.0171299
   5.1838255  17.8760779  37.3974776   4.3754449  19.1454291  37.5595093
 106.0292832  -0.0997324  64.5559788 106.7766424   0.4269285  64.8393774
 105.3009234   0.5200466  64.5160103  36.2386870  56.6836405  43.8246870
  37.1002722  56.2933493  43.9715672  36.2889504  57.5410366  44.2472792
  53.4333849  24.2134500  79.4350624  53.1618595  24.8195148  78.7457180
  53.4781981  23.3615160  79.0009737  31.1941218  25.0749636  47.2424316
  30.7095051  24.2715025  47.0531368  30.6770754  25.5128741  47.9185486
   0.2646530  43.5671425  54.0621042   0.6173943  44.3640423  54.4580269
   0.4235679  42.8849792  54.7145081  39.4850326  35.2687240  61.4205122
  40.3992748  35.2946067  61.1381578  39.3041778  34.3394256  61.5616941
  20.6061053  75.4824972  77.5963831  19.6778631  75.4070091  77.8175163
  20.6688356  75.1382637  76.7054319  32.3978710  50.0927639  43.0639505
  31.4683843  50.0597525  43.2902145  32.8304100  50.3772354  43.8690710
  98.0466012  25.5830145  72.6844454  98.8934151  25.1429868  72.7587032
  97.7703075  25.7251072  73.5898209  56.1669779  29.2528582  50.4988527
  56.5904760  30.0127625  50.0995684  55.7781696  28.7809038  49.7624302
   7.0376664  55.9185696  87.8661728   7.9823279  55.8384848  87.7341461
   6.7119199  55.0198460  87.8170681  26.1407351  26.3539147  52.3994303
  25.9739351  27.0075464  53.0785275  26.0795283  26.8411779  51.5778065
  42.5058651  32.2121525  80.8072186  42.3702717  31.5122175  81.4459229
  42.3684072  33.0190921  81.3033867  37.7775764  45.4069757  41.8819714
  37.9746532  45.7181692  42.7654600  37.5426531  44.4864750  41.9991064
 101.2340544  60.8556747  31.2522674 100.5971251  61.5482998  31.0767031
 101.4116136  60.4704475  30.3941846 100.8357338  53.4413195  58.2982588
 101.2802289  52.5950718  58.2480574 101.4806316  54.0274811  58.6941814
  31.5558648  26.6398287  45.0285387  31.6941214  26.2374282  45.8859682
  30.6093407  26.5955806  44.8930120  81.4128200  14.7577000  54.7274017
  80.5228178  14.6146786  55.0493860  81.9437019  14.8404837  55.5195808
  48.1666040  51.8683577  56.9755745  47.5643301  51.7318153  56.2442350
  48.6323786  52.6749468  56.7548895  27.8623796  37.3605585  55.1927996
  28.3111477  37.7835417  54.4607306  27.0550108  37.8631377  55.3014278
  76.8912710  10.7464463   1.9502813  75.9420214  10.8143813   2.0529539
  77.0758544   9.8117358   2.0423395  38.8534284  54.0552759  57.0768929
  37.9095411  54.2063189  57.1268559  38.9447284  53.1025791  57.0931673
   7.0021516  10.8922029  58.0898476   7.2583455  11.8047225  58.2236528
   6.1730146  10.9434772  57.6143122  26.7875051  21.4127636  78.9995193
  26.5429115  21.6010952  78.0934620  27.7389264  21.3107753  78.9745092
  22.9658151  54.0447998  28.7190080  22.6052904  54.3996382  27.9063916
  23.7720633  53.6039639  28.4509373  29.9897838  50.8265877  58.3081007
  30.2249360  49.9093819  58.1678581  30.7999516  51.2382889  58.6086988
  67.7213677  51.6802249   4.3913347  68.2128509  50.9418346   4.7511369
  67.3488482  52.1162113   5.1577360  98.4633525  92.7505428  53.7233305
  98.5895809  92.5154120  52.8040838  97.5139650  92.8178180  53.8251543
  30.6388927  35.2611542  46.7150021  31.1683345  36.0282803  46.9328165
  30.6038618  35.2580714  45.7584476  22.0013642  39.7628570  26.0161996
  21.2510538  39.3733931  25.5672193  21.8717957  40.7068062  25.9245324
  35.4406857  31.8732738  36.5120053  35.4087043  32.5472426  37.1909571
  34.7623825  32.1301579  35.8873868  21.8522048  12.8627825  49.4042444
  20.9440637  12.7378964  49.6797705  21.8252349  12.7898359  48.4502077
  88.8325278  15.9458303  50.9335709  89.1576580  16.2249696  51.7894936
  88.1825070  15.2719128  51.1324167  63.3402967  39.1180110  30.4762506
  63.8737774  39.1154361  31.2709999  63.1019640  38.2003260  30.3447890
  33.4055448  39.6926522  44.6037865  33.5308027  40.3224325  43.8939190
  32.5099158  39.3755770  44.4874144  20.7908726  32.7186513  49.9622202
  21.2226033  32.9608965  50.7814646  21.3727546  33.0493999  49.2779303
  14.8872113  46.2675428  49.2371273  15.2801204  45.5791187  49.7737169
  15.5811310  46.9193792  49.1380453  23.1159663  26.8624520  61.2896824
  24.0408659  27.0182228  61.0985613  22.6555705  27.1628904  60.5061007
 103.7035279  54.5156813  73.4582567 104.4428558  53.9188337  73.5740280
 103.8183985  54.8711491  72.5769663  57.6762923  67.6515354   5.1481229
  57.3361643  68.2714273   4.5029241  57.1593579  67.8183807   5.9362680
  33.5144711  17.8521943  56.8430281  33.8507366  18.5739481  56.3117790
  34.0674973  17.1061504  56.6110563 106.0422285 101.3798167  79.9830294
 106.4858206 100.6749535  79.5111990 105.7619675 100.9781727  80.8054447
  65.7338985  45.6085683   1.2050706  66.1608442  45.3851814   2.0321447
  65.2461728  44.8201902   0.9667093  45.8038235   5.5128151  66.7244148
  45.1012564   4.9646533  66.3749123  46.3209677   5.7575279  65.9570074
   5.6228453  38.3172059  62.0978689   6.2667996  39.0245318  62.0625782
   4.8130774  38.7143016  61.7772102  16.4212982  88.5996551  37.6961422
  17.1229259  88.1479020  38.1650424  16.5976230  88.4220321  36.7722416
 107.4420961  90.7870550  55.5485010 106.7014774  91.3497777  55.7744694
 107.0543202  89.9217171  55.4179144 105.5125244  99.4065047  29.9434376
 105.3145202  99.7879461  29.0881419 106.1580857  98.7245525  29.7579002
  34.1278768   5.2789754  69.4169474  33.2176208   5.5209696  69.5875454
  34.2838955   4.5211631  69.9805164  42.2215652  33.6627960  41.8461990
  41.9420004  33.1763601  41.0706568  43.1715679  33.5483432  41.8711472
  22.9868937  15.8208358  75.0557709  22.5449777  14.9901676  74.8798943
  22.6722646  16.0808957  75.9215736  75.9595585  15.1140273  67.4790812
  76.4451027  14.4059169  67.0559263  75.8741713  14.8345459  68.3905792
  73.8937434  67.6777650  19.2243082  74.6871789  67.1425129  19.2383176
  73.3366354  67.2980346  19.9037725  42.2048616  19.6355295  42.9116583
  42.5542021  18.7454391  42.9555988  41.2552118  19.5189786  42.8831959
  34.4615841  34.5191646  55.9752369  34.7104096  34.8924613  56.8207979
  33.5068035  34.5844817  55.9562349  75.7678064  46.4848797  11.3611394
  75.2901419  45.6614317  11.4611513  76.6614779  46.2186478  11.1450178
  31.4031243   4.6096641  67.9328680  30.5528045   4.7146079  67.5060463
  31.3097000   5.0669545  68.7685633  27.7575946   4.6369341  29.0829730
  28.2427955   4.4116396  29.8767328  28.4318566   4.9007073  28.4568548
  72.0854855  32.7920318  25.2951288  72.6784658  32.4016285  25.9371471
  72.2769165  32.3288989  24.4795966  48.2177067   5.0587070  53.5375643
  48.0885029   4.1165310  53.4287405  47.3506546   5.3947157  53.7646103
   6.3551307   3.7934968  43.3111143   6.0755664   4.6620020  43.0216789
   5.5397391   3.3335838  43.5107374  69.8352766   7.5923407  11.0290909
  70.0663424   6.6703582  10.9160006  69.0003729   7.6879704  10.5708110
 100.9078368  83.0229837  40.9041595 101.0642298  83.7825198  40.3430176
 100.2803906  83.3328373  41.5572548  15.0221149  93.6363650  42.3819208
  14.0910665  93.5001541  42.5574875  15.0460760  94.3808747  41.7807865
  43.8318157  48.7090445  55.9910393  44.7536421  48.4512997  55.9849644
  43.3515835  47.8818369  55.9544945  88.6576553  65.9137780  62.6604414
  89.3446728  65.2785928  62.8623772  87.9282304  65.6664497  63.2287693
  25.5100751  27.7030110  61.9384289  25.4988074  28.6062837  62.2549725
  26.2564230  27.6681852  61.3401127  24.1166711  59.5643759  60.3830051
  24.9046254  59.0217781  60.3522301  23.8160658  59.6018648  59.4750071
  40.7660294  36.3458586  37.0155406  40.9275579  36.1629343  37.9411101
  41.6193819  36.2335706  36.5967250  39.2592597  19.8407722  58.0772638
  38.5922790  20.3255224  57.5910664  40.0095892  19.8051834  57.4839926
  20.7644033  41.9679070  38.9157677  20.1811600  41.2371445  39.1208243
  20.1900840  42.7332926  38.8917971   6.5008253   9.5026708  74.2448425
   5.5703336   9.2932719  74.1637945   6.6087580   9.7639447  75.1593494
  27.2209501  35.4007411  52.4599218  26.6557217  36.1701989  52.5283813
  26.9851184  34.8623395  53.2153940  76.2123489  13.2402360  62.5203228
  76.6501474  13.0164778  61.6990471  76.5267324  12.5867510  63.1451082
  37.3370242  26.7725277  50.8192348  37.6456380  27.0836663  51.6702223
  36.3914609  26.9200349  50.8388090  10.7875109   2.7072591  64.9835157
  11.2368011   3.1423151  64.2588806   9.8821259   2.6191205  64.6856213
  58.5297632  15.9531200  43.7204885  58.4979486  15.5806291  44.6016645
  58.0152035  16.7579103  43.7819386  74.4522249  89.7355516  49.1774845
  73.8053538  90.4378969  49.2445707  74.4518741  89.4973583  48.2503939
  89.4585947   6.0472912  71.3140535  89.4490091   6.9543612  71.6196060
  88.9241938   6.0563886  70.5199718  40.3622675  46.6022062  60.2756739
  41.0712862  46.5566063  59.6342325  40.7577515  46.2964439  61.0919666
  59.2325687   7.7819854  16.6703629  58.4217834   8.0471140  16.2361228
  59.0764046   7.9590297  17.5979948 103.9014562  94.1891594  65.3495169
 103.6371430  94.3312211  66.2584639 103.2141980  94.6086342  64.8318815
  25.5084991  29.8439407   0.5909888  25.1227283  30.5738711   0.1066198
  25.7625175  29.2155766  -0.0849297  46.1895212  80.0115878  46.7124033
  46.3574084  79.0693576  46.6966486  46.9976147  80.4044063  46.3823843
  28.4213042  32.5975609  32.6489091  28.4990263  33.4237790  32.1718788
  27.9070735  32.0344353  32.0703864  93.3027236  15.1837659  55.2730370
  92.9569177  14.7614026  56.0593319  92.5768904  15.7167947  54.9485683
  95.7219211   5.9538937  52.4492550  96.4597015   6.5401131  52.2811508
  95.1277367   6.4675152  52.9964018  35.3006101  36.8812323  77.9602671
  35.7165313  37.7250075  78.1371498  35.8749413  36.2389970  78.3772898
  23.4391689   3.9434135  64.7223091  23.5981250   3.1068233  64.2851782
  22.6116943   3.8175708  65.1867199 105.4327453  51.8724108  83.5272598
 104.4946326  52.0172119  83.4039402 105.8446008  52.3368359  82.7986240
  13.9129078   2.0662223  51.7727327  13.7238455   1.2586915  52.2506237
  14.8168099   2.2769953  52.0067596  -0.3140697  47.8957844  48.1601286
  -0.0910515  47.1117067  48.6618423   0.4388407  48.4756422  48.2746935
  48.2187748  34.1801548  41.7853928  48.3287716  34.8052001  41.0688353
  48.8184166  34.4873166  42.4653244  22.5532460  57.5015259  73.2818794
  23.3832264  57.6168823  72.8192139  22.5881529  58.1355906  73.9981031
  26.4220047  37.4394202  27.4187136  25.5100083  37.2491789  27.1989369
  26.7272186  38.0028439  26.7076397  25.1425791  15.7581854  55.1747656
  25.1662564  16.1801648  56.0336018  26.0363889  15.4444206  55.0373459
  60.6353760  15.0772429  41.7346859  60.0620508  15.2650654  42.4778223
  60.6964540  15.9080911  41.2633133  24.3801188  35.2006888  74.1178846
  25.2953291  35.4560518  74.2336845  24.0416217  35.1120424  75.0088358
   8.2279658  54.1746664  75.4662704   8.2470423  54.5808935  76.3327885
   7.5306761  53.5213947  75.5233002  25.3507948  34.7346449  47.9164839
  26.3028836  34.8207998  47.9648161  25.2075720  33.9667654  47.3632336
  48.5128689  15.5620813  72.3009014  48.6167860  16.2246883  72.9838276
  48.0803251  16.0240662  71.5827751   7.7622509  13.4471202  59.4463062
   8.0941832  14.1592360  59.9930620   6.9818878  13.1364477  59.9053812
  37.0574212   8.2984656  86.0832977  37.7617073   8.0905628  86.6972923
  37.4977160   8.7296152  85.3508472  32.9746175   8.8396782  21.8738031
  33.5415483   8.0873168  21.7041707  33.5096717   9.5993859  21.6440368
  37.8290224  41.7616844  32.7723217  36.8927240  41.9242716  32.6576757
  37.9430747  41.6758204  33.7188172  13.8916934  41.5739632  73.5929489
  13.6739194  42.1482086  72.8587484  13.2506514  40.8650303  73.5408640
  28.4589124   5.6115663  46.1959076  28.9015627   6.3316047  45.7466459
  27.8140616   6.0405445  46.7583847  24.3071699  38.8395214  67.5400019
  25.2499366  38.7120867  67.4342537  24.0433335  38.1662488  68.1671619
  18.5540998  66.0634851  48.5066366  19.4878471  66.2205029  48.6469698
  18.5000455  65.7228613  47.6137304  29.6010327  56.2823915  64.8938465
  29.4637084  55.3665638  64.6517086  28.8464022  56.7429066  64.5268488
  33.8866353  44.2166042  59.5469236  33.4383440  44.9111032  59.0642786
  33.3011293  43.4622955  59.4803572  51.9335079  40.4253578  59.0620136
  52.0418215  39.4755840  59.0127516  51.9165468  40.7121658  58.1489468
 100.9052221  57.0670986  63.5830879 100.9240286  56.8931389  62.6420164
 100.2852444  57.7898169  63.6807156  37.8509307  42.2669125  54.3503761
  37.4316192  42.8013277  53.6759853  38.7746215  42.5151300  54.3127108
  28.3822846  50.8047771  45.9962463  27.6876879  50.4920530  46.5758801
  27.9601479  51.4716244  45.4546309  52.8373575  41.6459084  47.7690172
  52.4871969  41.4916992  48.6464262  52.1473789  42.1323442  47.3178625
  46.5055370  46.9704103  56.4979982  47.2530031  47.5363874  56.3051462
  46.8350649  46.0826111  56.3585186  41.7146111  39.4389725  64.7281933
  41.2092113  38.9194965  65.3534508  41.0549402  39.9155259  64.2242432
  56.1548662  34.0825295  82.0674896  56.0665941  33.5536861  81.2745476
  56.5826178  34.8865271  81.7727852  28.1407881  43.0789804  48.1018353
  27.4215961  43.2475615  47.4930859  28.0474687  43.7527704  48.7752867
  56.0086536  30.6409311  37.2431946  56.6489553  30.0600410  37.6540661
  55.3463268  30.7837653  37.9193234  23.6686969  47.6453400  57.3393917
  24.3434095  47.0359898  57.6388693  23.0984879  47.7635670  58.0990744
  50.8523750  46.9908094  57.8659201  50.3387547  47.0844936  57.0636415
  51.7627859  47.0426369  57.5748873  19.3633974  15.7354319  72.3789024
  18.9804280  15.4660702  73.2137728  19.6797764  14.9215412  71.9868326
  91.2964769  94.9364579  21.4389420  90.9704955  94.7147537  20.5666947
  92.2444638  94.8191745  21.3773036  21.4512491  45.2677059  53.6236048
  21.4474440  45.0374413  54.5526886  20.6171465  45.7162380  53.4845924
  43.8656950  65.0502491  53.7273932  44.0941334  65.8084011  54.2652130
  44.4487619  64.3553686  54.0330124  18.7242186  53.4299374  48.4434414
  18.6960876  54.0880442  47.7489328  19.0839088  52.6503468  48.0202484
  52.2509813  52.8611755  61.6427851  52.8452063  52.1731186  61.9422913
  52.2350550  53.4933901  62.3613167  36.0741448  59.5064878  42.0820475
  36.4109921  58.6998034  41.6921377  36.8182278  60.1084518  42.0674515
  30.5770493  33.4098196  52.2554111  30.0119495  34.0448642  52.6954269
  31.2955809  33.9336753  51.9011259  49.6313334  46.5943098  55.5771303
  50.3397322  46.0297585  55.2677965  48.8376093  46.2062263  55.2088499
  12.5909209  69.1262341  72.3357964  12.4588466  69.8887587  72.8991270
  12.0666111  69.3105125  71.5564537  55.7095623  49.7721481  67.4163437
  54.8791456  50.0159407  67.8252506  56.3059568  50.4863310  67.6410484
  48.9679909  32.9094386  46.8345737  48.2623577  32.4248767  47.2629547
  48.5769701  33.7539124  46.6105223  18.1310928  59.1877699  34.8472762
  17.4981201  59.8778296  35.0457573  17.5958693  58.4101772  34.6887755
  42.0008516   5.5404019  52.8903389  41.8840885   6.2399608  53.5331583
  41.1520004   5.0991035  52.8597498  22.4847627  56.0146093  50.1378632
  23.2992744  55.7931709  50.5892658  22.0031023  55.1885986  50.0938797
  27.3206043  33.1328964  50.1893616  26.5433097  33.5556102  49.8241806
  27.5693488  33.6870384  50.9291458  50.4841232  40.6110334  48.5589266
  50.6103182  39.7154427  48.8723373  50.6803942  41.1602783  49.3178988
  39.8673296  66.8876553  68.0048323  38.9227104  66.8437099  68.1531382
  40.1926613  67.4590635  68.7004519  17.6585400  57.5209379  44.3086576
  17.5094366  58.3811808  44.7010612  18.4627652  57.2057009  44.7210646
  59.3654823  39.0586591  26.6819429  59.9004316  38.4927750  27.2385716
  58.6635494  38.4896231  26.3661647  30.3744674  69.4963646  56.1182070
  29.7771931  69.5982552  55.3771877  31.1743832  69.1380024  55.7335758
  39.9209380  45.5390739  51.8292236  40.4105091  45.7907009  51.0461283
  40.3086710  46.0606432  52.5319767  54.0967560  20.9246182  45.3364086
  54.1749763  21.1837435  46.2545395  54.7402763  21.4659095  44.8791075
  21.4443994  24.2445278  45.7706881  20.6626701  23.7028766  45.8790541
  21.5869212  24.6346402  46.6330862  64.8702860  26.5258813  69.1101837
  64.6667719  26.6326737  70.0393820  64.0186167  26.5512419  68.6740065
  52.9827404  18.4439504  58.1001997  52.4448347  18.9777052  57.5153971
  52.7634525  17.5411153  57.8699112  49.0118265  36.9789696  42.2513866
  48.3785963  37.6162481  42.5817442  49.1937494  37.2641659  41.3559580
  25.1097345  55.1719093  41.5505600  25.4962349  54.7149706  40.8035278
  25.8584070  55.5411005  42.0189810  32.8196168   4.7239318  57.7661419
  32.9164052   4.6131164  56.8203163  32.6071882   3.8483614  58.0893803
  40.7642365  38.8115406  51.6478729  40.3262091  39.0102696  50.8203030
  41.6940022  38.7732887  51.4235973  53.1666040  23.1658077  60.3253794
  53.8414621  23.1851053  61.0039234  52.4354029  22.6973844  60.7280636
  38.4377980  24.7059464  69.8774290  38.0422735  24.7624397  69.0076017
  37.8745508  25.2456236  70.4321671  34.9123597  68.3761549  67.2634983
  34.7887254  68.1774426  68.1916428  34.5392847  69.2508364  67.1540546
  32.9655671  37.1635485  50.8782864  33.6590385  37.5213408  50.3239250
  32.5494361  36.4919853  50.3378487  52.6646423  46.0297203  60.1607037
  52.9526901  46.1196184  59.2523098  52.0992279  46.7877483  60.3088093
  46.0281897  84.8618603  50.7776165  45.8018637  85.4501438  50.0572538
  46.8009281  85.2600670  51.1782837  39.7444034  55.3686142  52.9924679
  39.8428035  55.8871698  52.1939373  38.7988043  55.2570963  53.0906343
  18.4489763  41.8970633  45.1110601  18.9478540  41.6010284  45.8724499
  19.1033089  42.2920132  44.5347834  37.7967548  81.6298485  49.8323441
  38.4272671  82.3088932  50.0723124  37.5502038  81.2269402  50.6648779
  55.9810972  14.8371255  55.5150080  56.8887520  14.8397470  55.2110577
  55.8237028  15.7350111  55.8070040  90.1885696  74.7529776  51.2911463
  90.3980370  74.4818241  50.3973722  90.0338074  75.6952984  51.2255049
  49.7666883  33.1950283  67.7331018  50.1942587  32.9945970  68.5657120
  50.4641247  33.5575891  67.1868753  92.0017242   3.1732780  37.5182486
  91.9103241   3.8689107  36.8671179  91.1023235   2.9199389  37.7259445
  58.5294437  14.5724928  54.4244528  58.8391018  15.4278815  54.7222042
  59.0161180  13.9430571  54.9566126  48.7292957  45.5684948  69.7932339
  47.9716063  45.6684685  69.2169142  49.4752359  45.4960585  69.1977787
  66.4471340   3.1453672  78.5015202  66.5812826   3.4903559  77.6187897
  66.0842562   2.2703402  78.3641148  34.0954041  69.4591427  72.1988630
  33.8914275  70.2310610  71.6708755  35.0487065  69.3844700  72.1556234
  41.3960123  82.1367550  38.1824350  40.4672956  82.1580315  37.9516435
  41.4278269  82.4714565  39.0786457  14.8346007  38.7287641  53.1948662
  14.4506776  37.9426908  53.5833597  15.4445660  38.3969045  52.5360489
  34.1279888  53.3333778  43.2995462  33.3856082  52.7407837  43.4176016
  33.8422775  54.1569519  43.6949301  52.3661327  35.2083087  54.6586514
  52.7293015  36.0298133  54.3277884  51.6280174  35.4760361  55.2061367
  27.1969318  49.7516870  65.4621172  26.3521290  49.3624306  65.6879902
  27.0815849  50.6873035  65.6281090  11.4878595  54.7931004  61.8467855
  11.2573290  54.1490507  62.5163269  11.4318347  54.3112755  61.0215998
  34.4560599  28.7893438  28.3015633  34.5635486  29.1281080  29.1903353
  34.0251422  29.4990206  27.8252244  34.0246177  16.9079232  42.1413660
  34.6175146  17.0243061  42.8837681  34.5862389  16.9921267  41.3708305
  49.2649984  26.6316152  70.2369404  49.3615675  26.7094684  69.2878151
  50.0592422  26.1799383  70.5222511  37.5838828  27.4573016  57.6856565
  36.8679643  28.0517817  57.9099035  38.1402993  27.9646516  57.0946980
  25.4530168  21.7020702  57.2569180  24.7632456  21.0397816  57.2142410
  25.1356578  22.3374104  57.8986788  27.1011996  11.6262221  21.0714841
  26.5543342  12.0952868  21.7016792  26.7932630  10.7209194  21.1143017
  10.9093475   1.0758799  37.5194693  11.4610827   1.3117933  36.7737055
  11.5026176   0.6318097  38.1253290  52.5251007  30.9715509  53.1066799
  53.4751225  30.8548999  53.1156778  52.2187757  30.5019999  53.8825130
  17.2267652   9.7589451  54.6494675  17.7093053  10.1149237  53.9033651
  17.6692462  10.1225805  55.4164171  36.0205436  41.1860895  62.7799034
  36.5708494  40.9267044  63.5189009  36.5903330  41.1009693  62.0154905
  36.9111013  13.2584393  64.2716932  36.7032218  12.5179183  63.7019157
  36.1951351  13.2804859  64.9066257  23.1028962  44.2515945  44.2410040
  22.9971147  44.9048376  43.5494041  24.0336585  44.2852068  44.4618845
   7.6100057  72.8255177  57.7275991   8.5151017  72.7856064  57.4186659
   7.4060017  71.9273138  57.9880667  56.9686413  43.7464476  66.4263058
  57.6892138  43.4362888  65.8778477  56.9170904  43.1080198  67.1376276
  97.9441516  41.4950371  53.7063169  98.6563997  42.0393419  54.0419722
  97.1507077  41.9966936  53.8934565  16.4856195  30.3062463  46.7805529
  15.7752109  29.8905158  46.2919617  17.1738064  30.4461479  46.1301231
  91.8485316  68.2276775   8.1041605  92.3240336  67.5523402   7.6203710
  92.2922142  68.2728125   8.9511186  48.3807611  27.3621321  57.9718161
  49.1005754  26.8280196  57.6359177  48.1100464  27.8961921  57.2250032
  25.3412271  27.7536893  67.8435993  25.9645724  27.1544194  68.2541513
  25.6528711  28.6259055  68.0851555  37.6689887  14.6584606  26.9303608
  37.0857811  13.9006674  26.9734097  38.5115933  14.2969072  26.6555405
  82.1110821  12.7752352  44.0266657  82.0444584  13.6865401  44.3118286
  81.8549252  12.2646058  44.7946978  24.0085673  39.6027040  52.8777790
  23.8343501  40.4039478  52.3839235  23.2986045  39.5569086  53.5181618
  53.7589455  31.1252809  71.5770006  53.1995583  30.4930663  71.1257505
  53.8364840  31.8566108  70.9643221   2.1744672   7.3766743  81.3263607
   1.6429917   7.3231159  82.1206498   1.9367782   8.2174288  80.9353775
  10.0231087  48.3860922  11.6866839   9.7553420  48.6898947  12.5540006
   9.8950255  47.4379206  11.7149305  49.9830770  50.1011705  42.1050978
  49.2060757  50.6594467  42.1338701  50.5089521  50.4592752  41.3899422
  36.6273093  19.1293848  66.9174385  37.3334694  18.5514498  67.2065067
  36.7815471  19.2456090  65.9799242  55.8255148  45.7418728  44.1648960
  55.7573652  46.3980293  43.4713221  55.1501036  45.0977373  43.9524269
  27.8144073  30.2755499  46.4679003  27.8710389  29.3224525  46.5359306
  28.0886269  30.5937791  47.3279953  35.3358769  69.3071890  52.6907015
  34.6631789  69.7648716  52.1864843  35.4851460  69.8659420  53.4534264
  58.0059195  27.2646427  35.5136633  58.3543396  27.9265714  34.9164295
  58.7011147  26.6097450  35.5772638  37.7531075  21.3957763  56.7284155
  37.6635599  20.8682013  55.9347677  37.9459071  22.2774363  56.4094543
  26.3943720  30.5377960  76.5112162  26.6896081  31.2552166  77.0719099
  25.4389453  30.5866599  76.5428877  44.2023754  45.4573154  71.7212534
  43.2722950  45.3863811  71.5064192  44.2500973  45.2423477  72.6527786
   4.9721810  40.2346230  52.5304794   5.1017445  39.4388795  53.0464602
   5.6004554  40.8596182  52.8922606  48.0699921   1.1958544  29.8325562
  48.2181501   0.8567995  28.9497662  47.1253204   1.1157102  29.9644923
  58.3684587  13.2737756  57.9153109  58.8927174  12.5132191  58.1661940
  57.7852917  12.9472053  57.2301149  68.7528276  21.2918019  73.4823418
  69.2682552  21.1677933  72.6853561  68.0859184  20.6061649  73.4453821
  18.9656536  98.4924600  56.8043804  19.2112390  99.1377050  57.4673891
  18.9650098  98.9823634  55.9820509  22.0755053  44.9130106  66.6629791
  21.5797043  44.0952921  66.7048311  21.4156175  45.5987406  66.7657232
  36.3198900  37.7417254  38.9959002  35.4517031  37.7073598  38.5942769
  36.5126371  38.6763787  39.0701008  43.3980608  36.3000894  70.4111242
  43.8391209  35.5865550  69.9500751  44.0618849  36.9860768  70.4817724
  37.8994751  33.0150723  41.7693329  37.2384858  33.4879780  41.2636805
  37.4678063  32.8150320  42.5999212  63.0771637  73.5584307  52.9000282
  63.3597136  73.2005787  53.7416553  63.7691355  73.3068895  52.2883654
  56.1263657  23.8432407  72.7484941  56.8081999  24.3685389  72.3296881
  56.5942192  23.3155179  73.3956861  25.7087064  22.7524400  50.2629566
  26.3266397  22.5752807  49.5537281  26.2486124  23.1121492  50.9667635
  30.1922202  64.3988562  58.2485628  30.8576679  63.9119148  58.7346649
  30.3912163  65.3182697  58.4255171  86.0591316  97.5801182  39.1846228
  86.5479565  96.9438744  38.6626244  85.2754879  97.7635098  38.6664510
  44.6231174  83.1579685  58.8656044  43.7683630  82.8174496  58.6016607
  45.2139521  82.8952122  58.1598330  55.0575542  55.0658655  58.7839222
  54.2558622  55.5880404  58.8130951  55.7067347  55.5977917  59.2441940
  58.5421753  50.2586412  40.1196432  57.6134968  50.3678942  40.3242159
  58.5875082  49.4261932  39.6493173  54.7075987  52.4807930  59.2162704
  54.7925901  53.4302473  59.1293907  53.9990282  52.3606062  59.8485041
  18.1956101  11.7629868   6.4365465  18.6410380  11.7207343   5.5903513
  18.7942934  12.2554738   6.9980222  56.6017485  71.3878965  53.9518738
  57.3464918  70.8026171  54.0898514  56.2891531  71.5897560  54.8337889
  44.5062399  79.3545675  51.6412354  44.4763327  80.1461124  52.1786213
  44.8172283  79.6561670  50.7876778 104.4100197   1.2142699  76.9334221
 103.6031016   1.5005343  76.5054417 104.8699864   2.0265525  77.1452093
  61.2493896  69.6906757  45.4958582  61.8732929  70.2754879  45.9259462
  60.4820824  70.2386189  45.3308249  70.9360456  94.1220760   8.0790043
  70.4207373  93.5197544   8.6155725  71.3566875  94.7054863   8.7106067
   6.5546552   5.5024569  19.1159129   6.2478773   5.3405898  20.0080562
   6.8995945   4.6584838  18.8244224  58.4664202  74.5608568  38.6572194
  58.1155872  75.3631020  39.0439463  58.1564283  74.5760155  37.7517343
  55.7519865  68.7927771  55.3020191  55.8502531  67.8595734  55.1130724
  55.7196617  68.8416004  56.2574291  48.3808947  81.0871792  31.7670226
  48.3911133  80.2103233  32.1507502  49.2432833  81.4484024  31.9720459
  87.9821873  71.3956261  83.3378220  88.6459923  71.3911200  82.6482105
  88.4214973  71.7913818  84.0905571  50.1402664  84.1625023  57.0170641
  50.1774168  84.1716957  56.0606289  50.5687714  83.3434296  57.2655392
  65.0183344  73.6302233  57.9188347  65.0634289  73.0182838  57.1841717
  64.1498280  74.0262842  57.8476858  69.0434265  68.0809736  55.1270771
  69.0079021  68.7546396  55.8061504  69.7843599  67.5285578  55.3762436
  60.8468342  96.6810513  40.9786463  60.1539135  96.2464333  40.4814482
  60.8095455  96.2764931  41.8453503  63.8718224  62.2771549  57.0979166
  64.6840668  62.4471331  56.6208410  63.4227037  61.6116619  56.5767193
  58.4989691  76.0989285  24.5995450  58.4052420  75.2235126  24.9751663
  59.2526436  76.0287285  24.0136480  99.1035843  40.5571890  64.7513294
  98.9565849  40.7044220  65.6856489  98.2851791  40.1722431  64.4378519
  91.1697006  68.8646364  40.7463217  91.2507343  67.9117584  40.7874727
  91.9041824  69.1440964  40.1998186  55.2331305  88.8783646  38.8059735
  54.4363022  88.4038448  39.0428782  54.9827147  89.4020176  38.0448461
  60.2020025  63.5499382  40.1004744  59.6915674  63.0771303  40.7578516
  59.8172808  64.4262505  40.0832748   2.2058471  77.7827644  54.8172283
   2.4383243  77.4867821  55.6973314   1.7617973  78.6194038  54.9554014
  93.1215954  64.6109915  58.6034441  93.3323574  65.4877710  58.9244747
  92.9039001  64.1132736  59.3915558  62.8996992  69.3795776  41.9276094
  63.5216284  69.5458078  41.2192249  62.5442505  70.2421904  42.1415997
  94.2662716  56.2282228  60.5215549  94.1938019  56.1304951  61.4709902
  93.3709621  56.1202812  60.2006245  78.3525658  83.8652992  18.9493620
  78.3607388  84.0618896  18.0126047  78.4609890  82.9153824  18.9956880
  50.2549887  84.1772842  76.8616438  49.6760225  84.2607403  77.6193142
  51.1237144  84.3961048  77.1987867  70.2195358  66.0387278  73.2147694
  71.0529518  66.2255526  72.7826214  70.2111387  65.0871134  73.3176851
  44.4579601  81.2296581  63.3476543  44.9152899  81.1942482  62.5075197
  43.5354757  81.3329411  63.1140280  52.6295090  90.8257294  57.9538298
  51.8412876  91.1275387  57.5023270  52.4579620  89.9035645  58.1446600
  49.1881895  79.3038464  64.3808270  49.0104437  78.4188271  64.0624332
  50.0595427  79.2468405  64.7729063  83.4985447  74.3017626  50.1198387
  83.7130642  73.6931467  49.4128704  82.8972435  74.9304008  49.7204876
 101.8319043   2.1490615  57.9431820 102.0714673   1.4028209  57.3936749
 101.0393914   2.5005954  57.5374985  35.5795956  81.6367722  57.3614073
  36.5061641  81.8455982  57.2426939  35.3784823  81.9354439  58.2483006
  60.7412958  77.8360987  47.7425861  60.0422621  77.8836966  47.0904255
  60.5077171  78.4985447  48.3928442  45.5573368  79.1307640  65.0003099
  45.1981449  79.4390202  65.8322906  45.4995775  79.8889542  64.4188929
   9.7875881  48.2930190   4.4930154  10.1588440  48.8380439   3.7992174
   9.0933323  48.8305385   4.8742181  57.4463415  70.8994293  27.6960802
  57.0936346  70.7271576  28.5690928  58.3936357  70.8074141  27.7980280
  43.3295584  92.5119495  69.1999149  42.6951265  93.1362247  68.8477802
  43.4292030  91.8565178  68.5094738  20.0862885  14.4453675   3.0921632
  20.3508091  14.0945107   3.9425451  20.9106493  14.6173102   2.6370794
  71.8514204  80.9508991  46.5055513  72.1295738  80.7583427  47.4009800
  71.0959625  81.5295887  46.6086292  80.0904274  86.8177605  66.2856674
  80.6824684  86.5713692  66.9963026  79.8768139  87.7346039  66.4589024
  53.8681316  91.9596958  48.3955574  54.3787050  91.3645363  48.9444971
  52.9815102  91.9143772  48.7534428   0.3210775   3.3337729  34.4990039
   0.3941671   4.2877810  34.5266533  -0.6192358   3.1674140  34.4329643
  75.7117128  81.9731045  72.9541397  76.0646105  81.5889072  73.7566948
  76.0325813  81.4037037  72.2548103  69.3834782  56.2953186  30.4971528
  68.8590145  57.0223570  30.1616192  69.4360304  55.6802702  29.7655892
  72.8017139  91.5679455  56.1120319  72.3442125  90.7309628  56.1919594
  73.2307959  91.6882133  56.9591808  58.6033916  75.7748890  41.4690351
  58.5022736  75.1261044  42.1655178  59.2845297  75.4133368  40.9019709
  51.3144684  68.9205742  57.0944548  51.8788195  69.3488073  56.4507484
  51.8395662  68.1924152  57.4265623  60.5079985  72.9025316  44.3828917
  60.9446001  73.7429857  44.2441559  60.2795124  72.9018927  45.3124237
  34.5767260  82.9467010  46.9416571  35.4933667  82.7530670  47.1378899
  34.6134973  83.5664940  46.2131453  38.6308718  79.1459656  64.2800760
  38.0080104  78.8482380  63.6170244  38.0832195  79.4473505  65.0049686
  80.8530998  64.6432304  46.1809969  80.4247379  64.4311428  45.3516865
  80.3553677  65.3850269  46.5248346  86.9622612  77.7081490  76.5265703
  86.9066429  76.7669106  76.3616228  86.9715309  77.7839661  77.4807167
  42.6131479  29.3301903  87.3564790  42.9651205  28.5249792  86.9770308
  42.8871910  29.3027054  88.2731997  52.0657396  94.7902775  44.8239660
  51.7042017  95.3699112  44.1534805  51.4771128  94.0354919  44.8307800
  64.3933439  58.8690042  51.0322523  63.9015150  58.0481100  51.0106611
  64.1545630  59.2693663  51.8682671  66.4056540  79.0881586  43.6534882
  65.7630253  79.7823429  43.7996483  67.0931292  79.2587566  44.2973042
  79.7723341  84.1390991  61.7336798  79.4799995  84.9790668  61.3798094
  80.7148457  84.1240978  61.5673208  36.7633915  74.6724176  52.4415922
  37.0800471  75.3544188  53.0339050  37.4023390  74.6584749  51.7290020
  60.2391434  59.4917154  55.3653336  61.1316395  59.8376465  55.3623533
  59.8191023  59.9061871  54.6116686  95.2492531   1.2342875  41.4116812
  94.6451863   1.4026206  40.6884909  96.0075768   1.7874282  41.2240314
  50.6785774  62.7984190  55.5076122  50.2268648  63.1281710  56.2844276
  51.2086248  63.5367203  55.2072954  92.9025555  67.0422411  59.6498013
  92.6441383  66.6689062  60.4924583  93.1006908  67.9582787  59.8443413
  60.7055140  63.7536144  69.7108889  61.2901211  63.0057764  69.5876122
  61.2738562  64.5188618  69.6236038  35.8538032  81.5743256  17.6719511
  36.5751696  80.9692192  17.8443336  36.2810040  82.4133778  17.4995756
  65.1739359  65.2777910  44.8174000  64.8996210  65.1204157  45.7208490
  65.3787088  64.4079781  44.4743013  64.5315695  62.0541048  27.8507948
  64.4367981  62.7922249  27.2487736  64.5422316  61.2827158  27.2841573
  60.5025291  80.1391697  54.7040653  60.9024906  79.3009663  54.4723701
  60.0764894  79.9767447  55.5456972  69.5679665  67.1883154  75.8375645
  70.1380730  66.6124392  75.3280783  68.9591646  67.5523376  75.1948500
   6.8727676   1.3544124  16.0140622   7.4892370   0.6226581  15.9868681
   7.2738735   2.0261233  15.4625678  65.5260563  97.1416187   6.7269617
  65.9109688  97.9013252   7.1639067  66.2538242  96.5276909   6.6285980
  55.6645250  92.9289913  36.8034410  54.9171877  93.3646488  37.2132301
  55.7265902  93.3262920  35.9348011  66.3199854  60.5884981  35.1243424
  66.0671329  61.4667416  35.4089355  66.9157839  60.7369423  34.3900251
 103.6944540   1.2202971  64.3997765 102.9249390   1.0184806  63.8674641
 103.9883622   2.0740073  64.0819311  49.3860960  78.2202959  46.3605833
  49.9245691  77.8761578  45.6479502  49.9428272  78.8704967  46.7889786
  58.0527401  72.3529863  51.4076424  58.9985704  72.4857664  51.4709711
  57.8064537  71.9775438  52.2529936  34.6716428  84.6142769  63.1173468
  33.8102317  84.2326927  63.2864666  34.6843886  85.4172039  63.6382866
  69.9000454  85.7099628  31.8758297  70.5384254  85.0394630  31.6326571
  70.3744555  86.2862492  32.4750447  65.8593845  85.6780338  47.7571630
  65.8783484  84.9491501  47.1370029  65.0159931  86.1031055  47.6014614
  80.4100323  45.7640171  49.1421890  80.0253296  46.6168976  48.9401436
  79.7100830  45.2844429  49.5852518  75.0920868  54.3368387  54.9797773
  74.4873571  54.3820667  55.7203817  74.5920229  53.9030790  54.2883873
  87.9059982  63.6007547  70.7812357  87.1251297  64.0679884  70.4843235
  88.0686474  62.9487419  70.0995731   3.5591746  68.3986384   1.6408235
   3.3603788  68.3847911   0.7045919   4.1152573  69.1691501   1.7562276
  44.1378212  72.3047304  69.0561962  43.6893177  73.1215143  69.2751455
  44.9483776  72.3328495  69.5645666  48.8332081  81.2705612  57.8716946
  49.4344854  81.6630077  58.5046864  49.3939495  80.7397747  57.3059464
  72.3682737  65.1100588  62.2981644  72.0292139  65.4217625  61.4590502
  72.0664120  65.7585335  62.9342413  54.1614771  85.2470589  22.7011943
  54.2157078  85.7399082  23.5199738  54.5375299  85.8325195  22.0438838
  94.6327591  84.1267681  38.2963824  94.3778992  85.0316143  38.4767342
  94.8417950  84.1184521  37.3623228  22.9872791  12.6485675  32.5779581
  22.9726307  12.0835250  33.3504534  22.6746933  13.4959071  32.8950334
  54.3188095  62.2454786  79.0917015  54.6543121  62.4400330  79.9668121
  54.3227148  61.2896442  79.0407276  31.0539436  95.3385639  78.1616020
  30.2713919  95.7347584  78.5448456  30.8377862  94.4094467  78.0825138
  58.1829643  90.4804134  58.5553217  58.7494135  91.0322762  58.0160522
  58.3021355  90.8122540  59.4452190 101.6217709  66.6195297  34.9858451
 101.6128445  65.7290936  34.6347404 102.2875690  67.0738840  34.4695997
  45.6952667  79.7233105  57.1557999  46.3888979  79.2458344  57.6109076
  45.3681993  79.1052771  56.5021229  47.5694036  82.4476528  71.3062096
  47.3350525  82.4730492  70.3784895  46.7395020  82.5729847  71.7664051
  66.9664955  77.3956537  59.9891758  67.5413036  77.8037310  59.3416405
  66.7567110  76.5390205  59.6171522  74.4661808  76.8392563  38.6367321
  74.3151283  76.9941616  39.5691586  75.4063320  76.9764137  38.5203767
  59.1675711  69.5614910  53.0323982  59.1254520  69.6350908  53.9858341
  59.6408272  70.3449726  52.7523661  71.2581348  68.9271641  37.3498440
  71.0559130  69.1217518  36.4347076  70.8719540  68.0646944  37.5023127
  42.8332996  84.8052883  54.8698568  43.6661005  84.6753407  54.4162178
  42.4259281  85.5430698  54.4160366  85.1149082  67.7074146  82.3730278
  84.3118382  68.2205486  82.2836113  85.2914047  67.7007771  83.3137894
  57.5576448  89.8946381  78.4152794  57.5628853  89.9559116  77.4600601
  56.6482496  90.0642490  78.6611795  33.3483672  90.6827164  35.2235055
  32.9740810  90.3501892  36.0393286  33.5888886  89.8969841  34.7325730
  51.4504528  72.7856064  50.5902958  51.7398262  73.4908152  51.1692381
  50.9351540  73.2265139  49.9147940  55.4409313  65.1725006  58.7690067
  56.1873388  65.6326199  59.1529322  54.9809027  64.7949505  59.5187092
 102.0831641   2.6675265  51.7595148 101.9020041   2.0433848  52.4622679
 102.5254925   2.1493857  51.0871267  98.5067654  64.0452003  39.0225387
  98.6316204  64.2665815  39.9453783  97.8664875  63.3337259  39.0314102
  69.3409252  89.5548534  38.1833386  68.8946581  90.3214264  37.8235507
  69.6890402  89.8528671  39.0237164  59.4907856  84.9351311  64.8177671
  58.6388016  84.7380447  65.2070141  60.1218033  84.4944000  65.3868103
 101.1339474  65.3363085  64.5582104 101.1138058  64.8175764  65.3624105
 101.4868546  64.7403240  63.8975382   4.6634332   4.0791934  59.9598026
   5.1959030   4.3088668  59.1982555   3.8426677   3.7548488  59.5891571
  49.4378376  96.1610508  52.0631838  50.0037289  96.3799953  52.8034973
  49.9677038  95.5762672  51.5214300  67.0191765  75.2218246  79.5045376
  66.6652870  75.8325386  80.1510811  66.3921547  74.4987345  79.4897556
  66.6988611  74.4638014  66.7712593  67.0678282  73.6210823  67.0356894
  67.3452187  74.8293114  66.1672258  95.8708858  87.4618244  48.0116510
  96.2994576  87.0586586  47.2566509  96.4877987  87.3360634  48.7326479
  43.1316280  86.6713810  32.7213478  43.2495356  86.1963844  33.5439658
  42.3043251  86.3414383  32.3707175  80.2866268  86.7505741  53.2848597
  80.5292702  87.1544933  52.4516678  79.3356419  86.6533089  53.2359171
   8.3767692   1.9969600  58.7347364   8.2127277   1.4639705  57.9567575
   8.7846176   1.3941234  59.3564224  48.4411907  93.1062603  77.0641565
  47.8445768  92.8328896  76.3673353  47.9120588  93.6755466  77.6228619
  47.6986742  77.6202202  35.3437734  46.9462633  77.8623247  35.8836770
  48.3929539  78.2193851  35.6180072  76.6514778  59.8327160  33.3928204
  76.2492514  60.5742645  32.9405546  76.2407017  59.0619087  33.0012250
  92.1378708  60.1402092  32.0631623  91.8692970  60.6271267  32.8422689
  91.3171291  59.8341036  31.6772771  21.0458748 100.1259245   0.1874048
  20.7210724 100.0400461   1.0837060  21.9867508 100.2713694   0.2865011
  55.8145905  72.9631424  61.9800425  55.2880955  73.0247307  62.7770615
  56.4249086  72.2458410  62.1509886  67.2228670  64.5786572  34.4854283
  67.6574230  63.8793182  34.9736047  67.5659513  65.3864241  34.8675728
  52.1934557  76.9736433  55.7383299  52.7875137  77.6907063  55.9600210
  51.8358707  77.2143936  54.8836899  36.0735559  81.9663715  76.5321207
  36.0944128  82.9201603  76.4541864  35.1614165  81.7628574  76.7390490
  63.5058212  88.9864349  66.3616085  63.0370092  88.1580734  66.4629269
  63.5590172  89.1172981  65.4148912  52.4042273  82.7089691  52.0221758
  53.0126619  82.9562283  51.3258266  52.1415377  83.5403919  52.4171019
  66.8735600  95.6202793  77.5820684  66.0010958  95.4320240  77.2362423
  67.2446060  96.2513447  76.9653702  61.0677481  78.1255865  78.5680008
  61.4980316  77.3258305  78.8704634  60.5542135  78.4203815  79.3200731
  76.4716148  71.4605093   9.5303982  76.8616343  70.8286715  10.1344657
  76.4520025  71.0060549   8.6881876  42.7425472  17.6746600  32.2537470
  42.3005764  18.4154742  31.8389034  42.2471229  17.5200122  33.0580306
  89.0022469  44.8468018  45.4993820  89.2897701  45.7576895  45.4373741
  88.0585289  44.8823738  45.3432894  73.6619091  69.0013647  49.3581152
  73.1942034  69.6724272  49.8552704  74.4937038  68.8971567  49.8201656
  81.2311745  79.1816616  45.5109024  80.9874725  78.8806057  44.6355724
  80.7181358  78.6331320  46.1043119  60.6373549  71.3592577  79.7038078
  60.0882626  71.7785692  79.0413094  60.5059433  71.8859911  80.4921722
 101.8066883  49.3349218  19.3117416 102.7457047  49.2109823  19.1734707
 101.6707325  50.2761364  19.2028165  72.9402924  82.8529453  24.1163397
  73.5537243  83.5832119  24.0348220  72.2355080  83.0626202  23.5035205
  43.3545685  85.6400585  39.3289852  43.8269663  85.0590611  39.9252319
  42.4475431  85.3366470  39.3674517  71.0352135  78.6360788  64.1048956
  70.9653759  78.0259895  64.8391628  70.2706575  79.2052460  64.1928625
  64.2066765  83.7450409  57.0662117  63.8132334  83.2780361  56.3290930
  65.1246262  83.4738445  57.0590830  52.0864105  78.3684540  70.3885269
  52.2102976  77.4952841  70.7606316  51.4350700  78.2444000  69.6981668
  67.2373581  93.3922863  54.1699648  67.9737854  93.0859280  53.6407614
  66.9205666  94.1706753  53.7117243 100.2550030  61.4241982  44.4999981
 100.8320904  60.9483290  43.9027119 100.6033039  62.3157263  44.5100451
  60.8167076  60.8066845  52.5490952  60.8075666  61.7633486  52.5184727
  61.7434168  60.5782127  52.6215029  96.5601595   5.7821601  55.8249187
  97.1549042   5.1120227  55.4881382  97.1164235   6.3499110  56.3582754
  63.6833525  61.5019131  43.6522532  63.6415863  61.5681601  44.6062422
  64.5004749  61.9415569  43.4171820  58.6810255  86.6209793  54.6939993
  59.0016794  87.2917747  55.2968645  57.7542830  86.5249729  54.9134636
  91.7962750   7.5530284  73.4101391  92.1969422   6.8921702  72.8453779
  91.2705620   8.0888122  72.8161716  15.7709686   5.1686900  71.5824747
  16.1034671   4.2735713  71.6490650  16.0506145   5.4642432  70.7160568
  65.8445406  70.3399277  24.9600697  64.9671412  70.7172251  25.0236678
  66.4329529  71.0938358  25.0003839   4.7079746  22.1079867  45.5802488
   3.9195339  22.3402350  46.0708141   5.2821056  22.8678935  45.6758976
   8.6625377  16.7600482  64.7916603   9.0234558  17.5546973  64.3985891
   8.7022297  16.9199222  65.7345772  61.7655277  97.5518131  33.0323386
  61.1519432  97.5335979  33.7667871  61.2449026  97.2748470  32.2783685
  75.4583549  74.9642515  36.2396932  74.8122215  75.3595734  36.8249011
  76.1415339  74.6357536  36.8241453 101.4273643  93.8581562  35.0456929
 101.2989330  94.6643066  34.5458412 102.3277283  93.5971832  34.8521113
  80.1106413  12.7479499  28.9369488  80.4000815  13.3134025  28.2209039
  80.3519162  11.8648761  28.6572981  94.4751358  81.5353680  46.9255686
  94.2017555  80.6270790  46.7970800  95.0131702  81.5138817  47.7169466
  85.8278942  88.5274029  29.2092872  85.2828121  89.3139648  29.2301941
  85.2131557  87.8145313  29.0356874  39.1890423  12.3269504  47.9711676
  39.2915527  12.2671836  48.9209843  39.5258037  11.4939826  47.6410389
  47.8533602  80.4646492  60.4294491  47.9075718  79.5091486  60.4472589
  48.1052351  80.7022381  59.5370674  36.0735218   6.9389289  35.0669646
  35.5742542   6.6200297  34.3151283  35.5962364   6.6096347  35.8285332
   8.8671867  24.2138522  70.1982689   9.1329471  23.5818809  69.5302725
   9.6418373  24.3184321  70.7507229  70.0753212  69.6721506  46.9068766
  69.1738510  69.7589874  47.2167778  70.5066633  70.4760599  47.1965551
  55.0141764  71.9636011  56.3254881  55.2227592  71.8943501  57.2571182
  54.4175291  72.7099180  56.2684679  76.4673090  90.5187511  40.3439665
  76.9124842  91.2463856  39.9096990  76.5587950  90.7053471  41.2783337
  87.7428826  21.3242286  35.9649181  87.4405631  20.9254020  35.1489687
  88.4263476  20.7335132  36.2813950 101.7352390  90.7530022  64.2041016
 101.9064617  90.2861881  63.3861780 101.2232304  91.5176964  63.9407921
  47.8154278  71.7783976  62.9602814  48.2219696  72.4434853  63.5158157
  47.3265219  71.2243176  63.5687208  71.0732365  85.5004311  56.5459824
  71.6027212  86.2810707  56.3832474  70.5968428  85.3593159  55.7278299
  65.8776045  71.1638355  43.1571960  66.4497375  71.7645216  43.6347628
  66.4464092  70.7629395  42.4999475  36.9240809  71.2854106  19.9755460
  37.5679827  71.6547782  20.5798608  36.0790825  71.5751178  20.3194601
  62.9973936  78.7438726  74.3100452  62.0623350  78.9133644  74.1952801
  63.0788183  78.4561396  75.2193356  73.3246899  95.3509045  64.7788572
  72.3888206  95.5487728  64.7437000  73.5317135  95.3374672  65.7133055
  37.3388505  87.1840572  36.9354725  36.4227962  87.4345875  37.0551157
  37.3781180  86.8383789  36.0437369  92.9935455  79.2592335  29.5835352
  92.2947121  78.7386894  29.1874337  93.7791348  79.0187693  29.0923476
  58.3734274  85.8875656  72.3270321  58.3920956  86.5489674  73.0187130
  59.2279100  85.4596615  72.3816872  74.7252655  85.3662586  70.4593563
  74.7137594  85.2313900  69.5117760  75.6167459  85.6588173  70.6488323
  80.8819771  99.8676014  58.4375954  81.4804459  99.5965290  59.1337109
  81.1495781  99.3514633  57.6771879  68.3452082  80.2495003  45.3660250
  68.1629753  80.2685452  46.3055277  69.1745329  79.7772312  45.2924395
  49.1800356  69.0339899  65.8167982  48.3318377  68.8708687  65.4042625
  49.0747070  68.7178278  66.7141151  98.8269901  69.2048883  36.8621111
  98.7894726  68.2643414  36.6883349  99.7346401  69.4465160  36.6776562
  39.8030639  69.6751499  38.4946084  38.8477612  69.6664190  38.5542226
  40.0455761  70.5846930  38.6682630  72.7745342  57.8967810  49.2411518
  72.2585726  57.1138048  49.4333982  72.4317312  58.5620260  49.8379517
  24.5549289  13.9227241  66.9953060  23.9938823  14.4268458  67.5846434
  24.0740196  13.8999026  66.1679983 100.2243900  85.2185345  81.9584274
 100.0120068  86.0883045  81.6198635  99.6475029  84.6263027  81.4760494
  49.9074268   6.3271911   2.3309118  49.0124893   6.6282088   2.1737176
  50.4595947   7.0433957   2.0172388  68.4440374  83.9204311  52.7380943
  69.1288090  84.5655441  52.9145718  67.6758766  84.2535210  53.2020044
 107.4051762  92.3002052  18.5351825 106.7797470  92.2641182  17.8114688
 108.1833649  92.7114391  18.1589532  89.4992256  90.0480747  60.6321001
  90.2372646  90.5055904  61.0348463  89.0940571  90.7019997  60.0624895
  67.2215891  64.6029806  75.2579021  67.5227690  65.0813103  76.0303831
  66.5713596  65.1800203  74.8573256  53.1968546  76.3173151  32.2633839
  53.1874609  75.4225779  31.9234014  53.9380026  76.7331409  31.8229032
  84.1060162  62.4930143  61.8497658  84.2154884  61.6469193  61.4157534
  83.3700085  62.9021931  61.3946819  76.3521385  77.0634651  47.1146679
  75.7089090  77.7196312  46.8464565  77.0366621  77.1123409  46.4473820
 105.4006767  37.8312349  63.3082724 105.1034164  37.3438978  64.0766287
 104.6271896  37.8891659  62.7473879   3.2710830   6.4985793  33.3781862
   2.3905222   6.2071078  33.6145949   3.2078067   6.7234080  32.4499178
  63.0051231  80.1295090  64.1571426  62.2122431  79.6401644  63.9377975
  62.8322268  80.4879379  65.0276995  61.4694262  87.5348854  52.0304251
  61.5639019  86.5823746  52.0361710  61.6336489  87.7973270  52.9361725
  99.3591984   3.7475818  33.1822252  98.7701424   4.4823878  33.0110455
  99.9395092   4.0622657  33.8753700  90.2751827  47.7346802  59.5346832
  90.1793480  47.6946640  58.5831356  89.6250153  48.3792782  59.8139858
   9.4321044  67.6027679  69.5570326  10.0563987  66.9521952  69.8783445
   8.5756667  67.1922922  69.6764374 100.5500317  68.9440155  49.8333979
 100.8149338  69.4706821  50.5875063  99.6316051  68.7320232  50.0000620
  58.7522364  84.1997814  36.4159584  58.9578533  83.3249378  36.0864067
  57.8361559  84.1441154  36.6878462  74.4037056  67.9902267  53.7016058
  74.8043537  68.8228798  53.4518003  74.5718861  67.9157925  54.6409750
  96.8251991  60.7052803  29.1076660  96.5036964  60.0807953  28.4573674
  96.0377789  61.0041618  29.5624876  92.6449108  73.4906816  47.3018837
  93.2508850  72.7512026  47.2549343  92.1145725  73.4164858  46.5084982
  18.3604510  72.0804739  23.2971430  17.8834232  72.9029608  23.4075403
  17.7923759  71.5468454  22.7414775  88.7797745  14.1827338  14.0235972
  88.4965142  14.0117209  13.1254053  88.0147084  13.9743941  14.5597887
  43.3812237  97.9857063  52.5273466  42.4902964  97.6993465  52.3261547
  43.4025812  98.0489922  53.4822130  75.5049229  59.3529129  38.0128121
  76.3870335  59.6846581  38.1803179  75.3377724  59.5694494  37.0955300
  66.9952250  71.9072294  64.3921900  67.0794916  71.4852667  63.5371590
  67.8906631  72.1480560  64.6297216  66.2417412  67.3337173  43.5205555
  67.1377087  67.5856543  43.7441587  66.0440636  66.6047859  44.1086149
  67.4941206  73.4561872  38.1642795  67.4934864  73.8027430  39.0565395
  68.4025860  73.1981850  38.0081868  93.8539410  78.8634157  21.4522243
  94.1234970  78.3758211  22.2305703  93.2677460  79.5424938  21.7860889
  13.2893173  12.6396602  55.5571556  13.1721679  11.6904681  55.5177498
  13.4719173  12.8961795  54.6532297  97.5303555  79.4967127  46.0847759
  97.7089882  80.2863693  46.5954304  98.0327320  78.8095856  46.5226221
  13.6746589  20.1740210  67.2594500  13.8505832  21.0646003  66.9558954
  14.0562622  19.6115058  66.5855217  77.5453472  86.8963337  52.5235367
  77.1684694  87.4144840  53.2346725  77.8753948  87.5459099  51.9027710
  20.8230591  28.7307984   8.0551988  20.3242731  27.9138429   8.0493051
  20.2461863  29.3666846   7.6319963  98.1279755  80.4187775  67.4951649
  99.0715122  80.5462360  67.3966074  97.7697468  81.3053608  67.5384283
  21.5660373  10.0010817  43.5579729  21.8064682   9.9735873  44.4840765
  22.3510639   9.7040599  43.0978012   1.8764003  59.0097427  55.1927090
   2.7465518  59.3324137  54.9583006   1.7635902  58.2196045  54.6643257
  94.7216471  19.3262904  34.7413969  94.7499045  20.1149791  35.2830672
  95.3138407  19.5144504  34.0132952  44.2135708   9.4736903  47.1309853
  43.8668434   8.6564486  46.7730427  44.6928398   9.2072528  47.9155445
  64.5101500  87.7880669  15.3527963  64.2578983  87.2651005  14.5918024
  63.9470339  87.4707317  16.0587943  86.0370350  98.9260101  73.2913637
  86.3452625  98.2769966  73.9238214  85.5629921  98.4148979  72.6354027
   8.1006034 101.5220451  76.2958479   8.6055358 101.1686993  77.0282650
   7.3073085 101.8740749  76.6995621  95.7317217   3.1849711  30.3629541
  96.6832884   3.2834094  30.3956342  95.4596528   3.1813281  31.2806678
 101.7247113   5.6513827  52.2942829 101.4734562   6.1915820  51.5450907
 101.5883597   4.7516959  51.9973087  69.0355301  82.0865726  40.9249020
  69.1601610  82.2146130  41.8652773  69.7423840  82.5884724  40.5190897
  97.2689589  15.4997867  39.3370724  97.0465573  16.1389773  38.6601615
  97.3111971  14.6639102  38.8725829  83.8725281  85.9762573  34.5543432
  84.3676376  85.2842331  34.9927449  82.9714108  85.6537342  34.5399880
  70.5667830  76.0195255  61.6109228  69.8691177  76.2949944  62.2055721
  71.0497999  76.8234825  61.4196491  10.7696899  99.7422123  40.5283689
  10.0431808 100.2822208  40.8395052  11.1964019  99.4316387  41.3269281
  51.3565969  77.7977705  44.3418026  52.1185017  77.5207186  44.8506975
  51.4400864  77.3293066  43.5112572  87.6426983  73.0728579  47.7811241
  87.4379730  72.3038292  47.2492313  87.1903419  73.7940550  47.3435450
  27.0746414  22.0132773  53.0333519  27.5012104  22.7935069  52.6790810
  27.0482628  22.1629756  53.9784050  51.0987663  24.6129472  17.6947004
  50.1583195  24.5476729  17.8606302  51.1697960  25.2114684  16.9510824
  26.5128318   5.8312171  55.8633089  27.3513977   5.6270545  55.4493618
  26.7147819   6.5361255  56.4785767  76.3535833  76.3919687  33.2370400
  77.1926546  76.6514015  32.8564024  76.5679789  76.1273623  34.1316080
  73.6187553  99.5267391  74.9369192  73.2922697  99.1945076  75.7731342
  74.2723942  98.8835812  74.6624279  67.1230030  95.0528431  13.5247672
  67.0044374  94.4727612  12.7726519  67.5751543  94.5139694  14.1739249
  70.2401447  84.1539383  66.3246536  70.3910160  84.3608761  67.2469568
  71.0246992  84.4703102  65.8767509  73.5813761  92.8268719  53.7626266
  74.2823648  93.2457542  54.2620087  73.3466911  92.0561314  54.2794657
  83.1758118  81.3947678  76.1769247  83.3833218  82.1833134  76.6782856
  83.9939308  80.8980846  76.1622143  65.2281475  72.1867704  51.1035347
  65.1136065  71.3310432  50.6902027  65.8681393  72.0332956  51.7985821
  91.3910770  91.3288975  51.7919970  91.1894035  90.5876923  52.3631144
  92.0275307  90.9829330  51.1663198  52.3934889  82.3027420  74.7126627
  51.5794802  81.8078518  74.8060036  52.2490883  82.8591537  73.9473009
   7.5248138  12.0556395  64.0479660   7.9124920  12.0812171  63.1731606
   7.2956030  12.9659694  64.2350721  65.0193930  66.5990353  60.5565166
  64.5502853  67.3391199  60.1712418  64.9099255  65.8899975  59.9228621
  93.1520462  86.9218540  51.3224125  92.9348755  86.7933369  50.3990746
  93.8794613  86.3208389  51.4832783  10.5219603  38.8645465  10.1083261
  10.4845047  39.8052031  10.2814847  10.2816582  38.7811190   9.1855413
  14.6410942  23.5476596  10.2777463  15.1443672  24.3460709  10.1181108
  14.5903254  23.1214530   9.4221670  54.5254803  74.9373484  53.5335684
  54.1985273  74.8023224  54.4230032  55.2349949  75.5721235  53.6329889
  54.0398455  95.9422207  73.8606739  53.1795788  95.8197403  73.4592056
  54.1078186  95.2348042  74.5019007 101.8160161  22.6818412  29.3850303
 102.1101864  23.1385272  28.5969114 102.2444399  23.1455272  30.1045299
  95.3206539  60.9799671  54.6665096  94.7098637  61.6755342  54.4228792
  96.1819935  61.3237381  54.4295788  12.5633804   1.4332526  73.4504938
  12.8924648   1.8620246  74.2404842  13.3014957   0.9110969  73.1362152
  93.5378798  29.1075271  86.5942287  92.8732403  28.8922255  87.2485447
  93.0924567  28.9952796  85.7544518  78.3064938  78.4025049  29.4058967
  79.0636110  78.6947775  28.8983727  78.5194349  77.5039339  29.6578097
  32.8243899  95.2419472  47.2573376  33.1255937  96.1455345  47.1622133
  33.5858464  94.7100449  47.0260429  43.5584784  91.4523983  50.1216793
  43.6059475  92.2053528  50.7107782  43.4591722  91.8359184  49.2503119
  24.0744964  18.1471198  47.5195360  24.6541301  18.4996646  48.1947994
  24.3926040  18.5351508  46.7043829  86.6004848  76.0482025  57.9187632
  86.0561657  76.8266869  58.0366898  87.3025131  76.3331795  57.3338127
  97.3867607  58.4173107  42.9818058  96.8861866  57.6544905  43.2712269
  98.2540798  58.2952023  43.3679152   2.4457637  29.8882430  47.1055841
   1.6851846  30.1844542  46.6055822   2.5913374  28.9894717  46.8101978
   1.0443290  62.2863960  38.7924623   1.3161166  62.8823423  39.4904661
   1.8265899  61.7689896  38.6011744  78.4489536  74.0823746  67.0724440
  79.2332125  74.4160509  66.6367483  78.5433483  74.3622780  67.9829216
  42.2888565  16.4246947  19.5770246  42.7123737  17.1500832  19.1180307
  42.9488516  16.1161334  20.1978475  89.3654346  87.8472805  77.3543549
  89.0358543  88.7391949  77.4643564  88.6992550  87.4094105  76.8245411
  29.1304922   9.8729569   4.9264127  29.5572567   9.1376836   4.4865591
  28.8634396  10.4552419   4.2151720  46.1037151  10.6081717  58.4188890
  46.8284980  11.1744731  58.1538963  45.3360454  10.9843486  57.9882860
  67.8099966  70.5358648  41.4109325  68.3734322  70.5814505  40.6384706
  68.4117413  70.6138086  42.1512413  38.7442112  94.9396706  76.3570690
  37.9721332  94.4299793  76.1114073  38.4865046  95.3929520  77.1597862
  87.0204639  63.6070442  67.0457363  87.3342323  64.0548372  66.2600803
  87.6531601  62.9032040  67.1890688  64.1170073  74.3873549  62.4543571
  63.7843847  73.9342213  63.2291269  63.8036299  75.2867413  62.5499344
  93.0995750  90.1912117  68.1494617  93.6911392  90.6928444  68.7103844
  93.0304146  90.7110977  67.3487377  59.1488648  28.7248475   3.8890535
  59.7289276  28.4035642   4.5793706  59.4441033  29.6206195   3.7257749
  95.1650906  90.3904819  69.9014139  95.7909966  89.6942902  70.1008797
  95.7073784  91.1248493  69.6135521  48.3963871  99.1644573  45.4594517
  49.0785933  99.6324253  44.9779606  47.7469254  99.8359585  45.6680489
  64.4311428  84.0950871  43.0470371  65.0109100  83.7779999  42.3545361
  65.0162172  84.2877769  43.7796974  86.0606098  63.9689302  32.1014500
  86.0797405  63.8854456  33.0548096  85.9090137  63.0780125  31.7859960
  63.3544350  90.4329205  59.0159130  62.5883293  90.2973080  59.5735216
  63.9576864  89.7320652  59.2631292  51.1608497   1.0249656  76.2688112
  50.6923381   1.0966628  77.1004295  52.0862285   1.0460132  76.5126514
  48.6584377  25.1660592  10.0623495  48.3165836  25.4644162   9.2195207
  49.4850636  25.6374223  10.1659376  68.3985949  92.6289845  41.8554020
  67.8351641  93.3965015  41.9538593  67.8284454  91.9604588  41.4756250
  67.1490622  67.7379036  13.9558327  67.3317862  68.4069967  14.6154976
  67.7036524  66.9984770  14.2046642  78.4520388  91.5874195  33.8870001
  78.0074453  91.4196014  34.7179055  78.6832476  92.5156021  33.9222598
  60.7692623  69.6044874  32.6296139  61.2534618  70.3613472  32.2995329
  59.9299717  69.9638939  32.9171085  15.6794739  23.3984048  15.4906351
  14.8802710  23.2047946  15.9805471  15.5200482  23.0357177  14.6192724
  46.6406910  17.8813785  37.1122599  46.2982742  17.7492183  37.9962921
  46.4340393  17.0683234  36.6513300  85.8565998  73.0621767  84.0606308
  85.9352398  73.9494085  84.4111538  86.7148399  72.8786469  83.6785698
  39.0044427  84.6211720  37.4063897  38.6447358  85.4238224  37.0287728
  38.3169436  83.9674759  37.2789145  72.6338100  67.4231434  33.4016299
  73.0909014  67.4035788  32.5608468  73.2648945  67.8102064  34.0083838
  62.4844646  69.9226999  71.8509674  62.0654011  70.7831955  71.8382311
  63.2863379  70.0542736  72.3568583  16.1214336 100.9048367  57.3440647
  15.6508144 100.4736710  58.0573988  17.0350345 100.6488323  57.4706793
  41.1760998  83.6787701  58.6329269  40.5295897  83.3712006  59.2682695
  41.7580128  84.2459583  59.1387987  67.0036077  78.1908512  69.8433113
  66.3699532  78.8285398  70.1720333  66.6607428  77.9314995  68.9880848
  91.0360869  18.2630294  13.9069581  91.8326624  17.7768367  14.1198313
  90.4394158  17.6027053  13.5545576  59.7189951  78.5578060  42.0119286
  59.3764067  78.0709314  42.7614737  59.1069126  79.2849541  41.8986273
   0.7775203   9.7552436  69.0570402   1.7122022   9.7700160  69.2629051
   0.5836240  10.6442874  68.7599707  72.7614172   5.1389544  42.8657675
  73.3016785   4.4967406  42.4054337  72.7556165   5.9036868  42.2901058
  51.1462402  38.4413535   6.5820772  50.7644558  37.7788550   7.1578867
  52.0432663  38.5461528   6.8992692  48.6680841 100.2395248  23.2865739
  48.3996058 101.0658073  23.6883450  48.7753630  99.6384716  24.0237665
  18.1973839  54.2761809   7.5251276  17.6035690  53.5481936   7.7085668
  17.7402640  55.0480945   7.8589231 104.6848679  91.1647224  58.8811541
 104.0692902  91.8711376  58.6855412 104.2365265  90.3696537  58.5928869
 106.4967060  76.1650324  63.3114386 106.7024422  77.0976353  63.3759451
 106.4517784  75.8662939  64.2197132  82.9187489  76.2801218  65.5350351
  82.7011871  75.5157566  65.0015116  83.4448338  76.8333483  64.9576235
  78.8221741  22.4314076  23.6920530  78.4927368  22.9346902  24.4366342
  79.7039128  22.1661193  23.9535791  81.9959927  70.5585957  38.0145025
  81.1612988  70.1542091  37.7778554  82.2351456  71.0802317  37.2483850
   7.7044431  16.3940280  43.5972548   7.5634042  16.0222953  44.4679737
   7.2896902  15.7708495  43.0007172  69.4184351  80.3365612  56.4834118
  69.6931791  81.2362480  56.6603708  69.0493011  80.3680611  55.6008148
  39.4871513   0.5040210  66.3778687  39.0908710   0.1993030  67.1941662
  39.7708217   1.3981288  66.5684938  58.2588291  98.9940834  82.9937172
  57.6095390  98.2913971  82.9638672  57.9633665  99.5631790  83.7043953
  45.6766415  21.6030175   5.1867754  45.6600475  22.0210082   4.3258268
  45.4282856  20.6943805   5.0167161  80.1809120  60.8779001  25.0763464
  79.3724251  60.4433203  25.3478694  79.9019003  61.7497778  24.7966838
  73.3573675  89.8129559  63.1895065  72.4872398  90.2083015  63.2425690
  73.3330011  89.2866898  62.3903322  33.9144890   5.5720370   9.2860788
  34.5139877   4.8860496   8.9923900  33.4433643   5.1797908  10.0212085
  92.1029854  69.6691179  61.1116362  92.0724010  69.2279673  61.9605637
  93.0311203  69.8577833  60.9730530  83.0715656  50.2297926  50.7536793
  82.9328918  49.3995047  50.2980280  82.4223709  50.8223438  50.3746653
 104.9209794   2.2019999  54.0717077 104.5794734   2.4373668  54.9343824
 104.2715653   1.5965407  53.7140608 105.4552746  73.7950182  41.4455938
 105.2920723  73.5975075  40.5233240 105.9487152  74.6151066  41.4312315
  56.0510683  83.0809307  59.7652578  56.1965418  83.6967278  60.4834938
  56.5702057  82.3118496  60.0003052  27.2921077   1.5376990  45.0516081
  28.0082695   2.0706885  45.3969717  27.0822326   1.9367068  44.2072296
  90.0682449  63.7056255  67.4384117  91.0219479  63.7229061  67.3586082
  89.8395443  62.7781582  67.3773193 105.0113869  70.4273319  34.1252708
 105.5919933  70.5800200  34.8708034 105.5560684  70.6020546  33.3577895
  46.3169670  10.6111056   0.2942068  46.1261940   9.8747594  -0.2868479
  45.9913254  10.3316457   1.1498338  97.1499252  65.1610088  70.2842855
  97.0712757  64.2615509  69.9664450  97.7596760  65.1026583  71.0198355
 106.8429335   0.5784171  55.9063053 105.9970625   0.7836764  56.3045549
 106.7478665   0.8442824  54.9916935  49.1083717  96.4900875  34.1164494
  48.3000851  96.3741779  33.6169791  48.8351727  96.4288330  35.0317860
  99.4851264   0.9512465  43.1485128 100.3667172   1.0099070  43.5167408
  99.4593152   0.0935405  42.7243471  17.7309601  10.7126658  70.2481174
  16.8798343  10.3199428  70.4419756  18.2434360  10.5793803  71.0455084
  60.3315926  67.1457815  37.1141005  61.0697746  67.7242708  36.9226050
  60.5731487  66.3094664  36.7160392   9.4068320  67.7970934  29.5259976
   9.4691070  66.8695784  29.7541857   9.8569186  67.8673840  28.6841464
  62.2084999  87.8616810  76.8461418  61.3320971  87.6733112  77.1817923
  62.0932770  88.6377430  76.2977934  66.1839628  65.6809282  51.6554213
  65.5964899  65.7522583  52.4077654  66.8601561  66.3390350  51.8163061
  91.5649605  62.0503187  34.0498567  92.2841454  62.5858927  34.3847704
  90.7948971  62.6150131  34.1158938  78.6080074  68.3546209  44.9569464
  78.6647654  68.7402582  45.8311844  78.1802273  67.5095701  45.0952387
   3.1244834  98.2045937  72.9944944   3.2841762  99.0678978  73.3758450
   2.1801646  98.1821251  72.8396273  84.5156384  70.2471590  52.6908541
  84.8621559  70.7993841  53.3917141  83.8884544  69.6710062  53.1277943
  62.1664143  81.4649773  58.4629488  62.2578239  80.9342098  59.2542505
  62.5420427  82.3132229  58.6987925   0.6421844   9.8157638  52.2214031
   0.8090822   9.0245669  52.7336359   1.4809124  10.2769416  52.2128963
  89.5418795  15.9596580  58.1370258  88.8758000  15.6859248  58.7676144
  90.2571400  15.3351348  58.2578802  93.1002522  95.4839706  58.2010794
  92.6503086  95.8682442  57.4486637  92.5261497  95.6699657  58.9440775
  27.2991649  11.9643634  35.4629493  27.9542915  12.3130458  34.8584175
  26.8212215  11.3135665  34.9488759  55.7406855  83.3948421  80.3193951
  55.8214712  84.2354965  79.8688364  56.0033560  83.5801125  81.2210178
  53.2182980  75.3274679  48.3522081  53.5914612  74.5983839  48.8475990
  52.2924042  75.1038122  48.2577085  45.5497599  75.9338379  31.5460134
  46.2365437  75.2695704  31.6035128  45.8812428  76.5665293  30.9087896
  71.7805147  58.3030891  39.2665815  72.0141840  57.3748636  39.2718506
  72.3150063  58.6806679  38.5680223  67.7441406  77.0813560  74.5393801
  67.6767731  77.8650331  73.9939070  68.6133766  76.7296743  74.3470716
  10.9710105  90.4917622  46.1651516  11.8990882  90.4685020  45.9319973
  10.7324203  91.4168835  46.1064386 106.6378268   4.7886508  25.9851885
 105.9470376   4.5591777  25.3635907 107.2812851   4.0853160  25.8985734
  25.8341686   3.0039447  21.7178869  26.6926948   2.8168147  21.3382220
  26.0061638   3.1231063  22.6519394  83.2938004  53.3226776  43.3285856
  83.3437920  52.3862600  43.1366014  84.0455341  53.7011194  42.8726101
  88.8365078  73.4872150  71.5649557  87.9443455  73.7224817  71.8197632
  89.3287277  74.3053150  71.6332674  86.7014313  62.9365253  79.8754978
  86.3873672  63.0667734  78.9807177  86.7899799  63.8214588  80.2294540
  29.1788340  79.8005486  32.6834917  29.1705918  80.3817177  31.9229579
  28.2590985  79.7260714  32.9379892  73.0202436  92.5655937  68.9217901
  72.1508694  92.7645683  69.2693949  72.9075336  91.7381191  68.4540129
 103.4811783  82.7936745  36.9106650 103.0911446  82.0560455  36.4416242
 104.3174744  82.9427814  36.4695215  78.8234043  59.2996025  47.4238253
  79.5309067  58.6602068  47.3411083  78.0263281  58.7710762  47.4633121
  79.1429996  93.0918694  60.9718132  79.2968941  92.2625923  61.4244032
  79.2573643  93.7589550  61.6486835  32.5217144  22.0173686  69.2237663
  33.0469505  22.8163760  69.2680645  33.1650249  21.3102572  69.1750669
   4.0746872   2.3459857  73.4950590   3.5368673   2.1705096  72.7229261
   4.2838089   1.4792483  73.8432932  88.1641444   7.2548812  42.6363134
  88.0739172   7.9527324  43.2852268  87.2699173   7.0874350  42.3387480
  12.6137344   4.6778434  52.0603180  13.2078067   3.9669173  51.8197203
  12.0291988   4.7666305  51.3075399  60.7486153  94.3103981  71.3099861
  61.2261343  93.5750389  71.6939831  61.4314413  94.8836803  70.9616566
  97.3055744  98.7031078  84.7867012  97.3270035  97.9216290  85.3390312
  97.8002930  98.4575081  84.0049267  23.1701748  30.7276004  15.5177510
  23.6743442  30.0236552  15.9257960  23.8303463  31.3535922  15.2201641
 100.2948189  92.2965145  55.8925819  99.9255848  92.4311256  55.0197792
 100.1914501  93.1419563  56.3293695   7.4858324  16.9345134  77.3616219
   7.1717111  17.2345488  76.5086651   6.8964807  16.2173217  77.5951672
   1.7236129  36.9911330  66.5759611   1.9577161  37.6890510  67.1877861
   2.1976034  37.2075503  65.7730103  15.5633918   9.4574874  85.9975624
  15.3343193   9.8551124  86.8375969  14.8157398   9.6474402  85.4308510
  10.0849716   7.5579017  49.1313553  10.9178154   7.9910891  48.9443541
  10.0959293   6.7718547  48.5852480  16.5984233  74.2415905  55.5839968
  16.5270789  73.6557722  56.3376284  16.4324172  73.6795425  54.8271751
  82.4215126  96.9530010  49.4451809  82.6614475  96.4516926  48.6658525
  81.6855049  97.4962234  49.1633320  76.3345488   8.4957259  77.6123571
  77.2499903   8.4274905  77.8835440  75.8989032   7.7668422  78.0541420
  38.9330856  18.9079612  79.7148323  39.3475525  18.7387031  80.5608845
  38.0974952  18.4432357  79.7602272 100.4057026  95.0362206  66.7211056
 100.9995747  94.9845791  65.9721851 100.3673744  94.1412830  67.0585394
 107.3126984  94.8485661  52.0797729 107.6565838  94.5360947  51.2429142
 107.5136185  95.7844162  52.0868587  31.9895641  35.4109328  36.7701983
  32.5463192  34.6963065  37.0793247  31.1490051  35.2645629  37.2040820
  72.6328421  98.8847542  53.9203930  72.1403694  98.3386517  53.3076239
  72.1753836  98.7808704  54.7547626  89.9262532   4.2097228  58.4963036
  89.2744263   4.1583102  57.7972269  90.1030930   3.2975905  58.7264490
  76.3114071  88.0096054  54.7354984  76.8903971  88.0901909  55.4934597
  75.8211708  87.2027588  54.8932981  46.3895027  15.5501597  35.7501483
  46.5577118  14.9995273  34.9854660  45.8031074  15.0276130  36.2972450
  28.8291256  13.7115233  69.1733122  29.6634380  14.0800994  69.4636822
  28.3750621  13.4791987  69.9833012  77.6060581  74.0607595  57.0346022
  78.2180548  73.4946251  57.5049019  77.2627401  73.5100651  56.3309622
  10.9287540  38.1338160  33.4557271  11.4242260  37.7388900  32.7382493
  11.2726490  39.0246146  33.5224271  77.7681828  47.8924662   2.0182210
  77.8290463  48.8247496   2.2265035  78.3984184  47.4743373   2.6049120
  27.9297908  82.0446682  87.3329830  27.0944961  82.4411392  87.5806236
  28.4372218  82.0286179  88.1444550  90.5048752  93.4922886  73.8317299
  90.9448338  93.5390377  74.6805382  90.6719112  94.3440247  73.4281445
  83.8628197  92.9558277  72.4419308  84.2347717  92.1289253  72.1351528
  84.5053577  93.6172962  72.1853447  18.8266746   3.6660998  71.8097973
  19.6347896   3.1538241  71.7820835  18.3162014   3.3486598  71.0649014
 101.1769351   1.1101668  77.3660946 101.6152199   1.9527286  77.2468042
 100.6311043   1.0115474  76.5859795  85.4937649  81.2702179  73.5258055
  85.4360008  80.3518581  73.7894440  85.7309723  81.2388706  72.5989914
  89.6056994  70.3755706  42.2779417  90.1655777  71.0829871  42.5978136
  90.2118596  69.7540038  41.8748856  46.4829628  12.0274585  39.2891288
  47.1893398  11.8449634  39.9087691  46.0349075  11.1883109  39.1827703
  82.7541351  93.0081272  60.0414610  82.7502346  92.3408413  60.7277203
  83.2272720  92.6020241  59.3151999  41.7242479  27.6259477  19.6743471
  42.5218821  27.3138530  20.1016790  41.5067959  26.9402034  19.0429098
  52.9191009  15.1480239  43.7509775  52.5574581  15.7442325  43.0952406
  53.8457767  15.3822177  43.8024664  40.7382957   6.5816729  66.5673637
  40.3495399   6.3162940  67.4008369  40.8794204   5.7602828  66.0965872
   8.6452762  14.4945472  29.1499114   9.3174450  13.8475745  29.3640375
   7.9123346  13.9770549  28.8164067  14.8855297   6.7375415  41.3286638
  14.7513382   6.1706965  42.0882082  14.7291748   6.1688273  40.5747747
  89.0238913  31.1182826  59.0271473  88.8270815  31.9778579  59.3994856
  88.1673821  30.7097094  58.9019060  64.8337269  86.6918468  32.4380994
  64.4324112  87.4260902  31.9732761  65.4809856  87.0982265  33.0144191
  92.5758266  82.2569942  67.6332426  92.4228573  82.9320526  66.9720888
  93.1968307  82.6553631  68.2430649  81.8979462   3.0489104  28.9475203
  82.0134123   2.1003192  29.0029550  80.9835251   3.1935065  29.1907382
 101.9600686   4.5585959  25.7176757 101.6294392   4.1850131  24.9007607
 102.3651465   3.8199561  26.1721563  57.1948624  25.0269277  12.6440507
  56.5538025  24.7120768  12.0067483  57.0409489  25.9704263  12.6924879
  76.4822579  85.3887374   5.7836038  76.8384648  85.0136477   6.5889913
  75.5741215  85.6007964   5.9993536  79.6930035   6.3453238  43.6475563
  79.0206917   6.1112826  44.2874432  79.2507132   6.2811416  42.8010988
  85.2648067  62.8065586  74.0470457  85.3126621  63.5564184  74.6400547
  85.9827042  62.2367477  74.3230295   3.8793413  29.5424407  37.1984673
   4.0934221  29.2557090  38.0862689   4.1852752  28.8304942  36.6365314
 102.9825306  85.4005527  66.1582994 103.5452652  85.0956917  66.8700647
 103.2156754  84.8455048  65.4141235  77.4872398  87.1611309  27.9635906
  77.4999475  86.4284229  27.3477912  76.5750170  87.4509716  27.9722023
  77.7591515  71.2910414  46.1686993  78.4735632  71.5590239  46.7466593
  78.0998278  71.4323378  45.2854061  62.9108429  95.1282787  80.3968906
  63.2597923  95.6701469  79.6891880  62.1822453  94.6529198  79.9976254
   4.1363804  11.1493724  55.2641249   4.8554460  11.7227881  54.9988651
   3.3590213  11.5394538  54.8644018  63.7913513  64.0210724  59.2313290
  64.1758633  63.3355284  58.6850595  63.1487799  64.4471264  58.6640406
  72.4273252  75.7869148  71.9437647  72.7122164  76.3833809  71.2514544
  72.8110790  76.1471987  72.7432394  80.4833984  84.3663979  68.6454344
  80.4568005  84.9508381  69.4030285  81.4083099  84.3328190  68.4011936
  73.0928850  94.6881866  51.8539381  73.0688429  93.8254738  52.2679234
  72.4520063  94.6316910  51.1451960  18.2690040  20.2542727  53.2822752
  18.0037872  19.6166938  53.9451361  18.9492790  19.8072761  52.7786446
   2.0146259  76.4584160  41.0361910   2.5623019  77.1469116  40.6590128
   2.1322807  75.7107925  40.4501486  44.7719566  26.2301677  46.9129086
  45.1910392  27.0280497  46.5904570  44.6950809  25.6708281  46.1399508
 107.2399815  12.6197474  28.0261087 107.6021918  11.7400973  28.1321597
 106.9365080  12.6460116  27.1186709  60.6249189  98.8992882  59.5355320
  60.4648733  98.8709545  58.5922337  61.1757708  98.1357193  59.7080469
  77.0868921  90.1957226  31.5186167  77.7197218  90.6342030  32.0873809
  76.8872833  90.8408737  30.8402562  75.3010464  79.4635630  42.2016478
  75.7543993  78.7817144  41.7058754  75.5216312  79.2821789  43.1152534
  57.5804711   1.6623742  13.0386621  57.2535610   1.2909371  13.8580591
  57.8516579   2.5507838  13.2697851  24.8038761  14.9255126  35.8447194
  25.0487415  14.9826758  34.9211359  23.9867393  15.4201262  35.9069157
   3.9943210  13.8232844  45.1728630   4.3230335  13.2365554  44.4917440
   3.0505125  13.6647075  45.1905680  25.7555477  23.5476916  74.4973755
  25.9149925  24.4822066  74.3651295  25.4273025  23.2388633  73.6529160
  82.5708008  63.4791613  52.9243326  82.6840210  64.0393448  52.1564770
  83.4465027  63.4154272  53.3055258  77.1232176  73.5849476  37.9498219
  77.9652023  73.6046314  38.4046960  76.7993164  72.6942539  38.0839062
 103.0073508  23.2297461  74.1984081 102.6926192  23.3459800  73.3019352
 103.4532460  22.3828071  74.1877890   9.9251262   5.5895751  24.5655274
   9.3454067   6.3451617  24.6616912  10.3804771   5.7409327  23.7372899
  88.6859512  96.7950916  34.2956281  88.9060402  97.4621677  33.6454034
  87.7456570  96.6540527  34.1852570  35.5873577  24.0833514  51.8975973
  35.3081505  24.8701804  52.3657608  36.3502113  23.7725776  52.3851490
  93.4889793  91.0271072  72.0433903  94.1175652  90.8118725  71.3543415
  93.2841682  91.9511795  71.9006395  84.8505211  72.1872711  54.5491409
  84.1471767  72.7681255  54.8392200  85.4472828  72.1420956  55.2961874
  66.8567991  82.3755646  47.5901127  66.5569925  82.7349949  48.4250689
  67.5664091  81.7785645  47.8273296  49.4371120  24.4202846  77.4958372
  49.7771351  24.6457618  76.6299391  49.9181930  23.6308330  77.7439499
  40.9520713   0.5351394  47.6257372  41.7255966   0.6868689  47.0827103
  40.5445091   1.3972991  47.7082729  11.9499485  22.3802035  87.9973507
  12.1265213  22.0422690  87.1193600  12.4205677  23.2129710  88.0325890
  62.4639940  71.7301321  31.2954736  62.3201036  72.5244188  31.8098998
  62.9648781  72.0248413  30.5348849  13.0514042  19.9159759  43.4137726
  13.4242336  19.0721076  43.1585836  13.1741134  20.4740851  42.6458597
  77.7796372  15.8966010  30.6372523  77.9715069  16.5098231  29.9277568
  77.0082577  16.2636893  31.0690546  79.2901993  92.9309177  56.3737726
  80.2401543  92.9552555  56.4887953  79.1060972  93.6350727  55.7520723
  53.1986809  40.6101233   6.6768152  52.8169441  40.7429606   5.8091337
  52.6231575  41.0948474   7.2684557  12.6782401  99.9863434  54.5414114
  11.9128307 100.0057697  55.1158667  12.3139938 100.0038528  53.6563969
  14.3663676  94.7264194  77.3783636  13.7692722  95.4578495  77.5355768
  14.8659976  94.9871349  76.6046524  83.3537483  92.5815010  44.8295641
  82.7196884  92.1367741  45.3920698  83.0430794  92.4144554  43.9397287
  85.2631950  75.1399088  44.8170233  84.4087887  74.7658110  44.6018887
  85.8895016  74.4521713  44.5912123  32.3488800  26.9372409  32.6521301
  33.2418911  27.2796958  32.6905298  31.8041221  27.6511519  32.9834938
 105.1936539  27.3312991  75.4397154 105.3855809  26.4206737  75.2157927
 105.3265055  27.8119700  74.6226835  73.6544228  83.8563538  72.3147392
  74.0811396  83.0010605  72.2635126  74.0940094  84.3836689  71.6477108
  87.6958370  80.7920265  51.6394281  88.1179428  80.2437305  52.3008156
  87.6268864  80.2279568  50.8691692  39.1191530  54.7029311   1.3751966
  39.8631764  55.2921206   1.4997465  38.6232472  55.0922782   0.6549818
  93.9551743  39.0540450  73.4770727  94.4506081  38.2350867  73.4678555
  94.0130766  39.3791240  72.5786257 101.1258467  16.0234778  44.9752283
 101.1681183  16.2614100  44.0490341 100.9609326  15.0805896  44.9730110
  11.3173477   9.8403209  46.5369940  12.1535579   9.3745273  46.5416431
  11.0438530   9.8323672  45.6197309  32.1584312   6.5358775  31.8109846
  32.3788253   7.2528594  32.4056268  32.5643245   5.7640403  32.2056365
   3.4271796  81.7944622  70.6248188   3.3550533  80.8400822  70.6111813
   4.2912181  81.9746780  70.2544260  94.3328762  64.4557101   5.1200944
  95.0688172  63.8993079   5.3751165  93.9659023  64.0277869   4.3465024
  14.9988929   4.9790328  82.8814030  15.5672352   5.7301276  83.0519009
  15.0936691   4.4260352  83.6569214  58.2810116  73.4469843  70.7318020
  57.9984760  72.6863575  70.2240086  57.8433561  74.1892385  70.3149748
  93.0649853  82.2701645  53.5599804  92.9584789  81.8768597  54.4261169
  92.3715591  82.9280090  53.5087395  34.2828933  18.8174575  81.2379932
  35.0372211  19.1910594  81.6936684  33.6584274  18.6149733  81.9346046
 101.7195415  96.2897396  43.5625553 100.8010101  96.1028194  43.3686590
 102.1826077  96.0828114  42.7507782  43.6293395 101.0412407  54.7292089
  43.6019405 100.9296703  53.7789297  44.5624908 101.0774136  54.9393129
  99.1998299  18.2060187  27.9773116  99.9892291  18.5849517  27.5906801
  98.6244210  18.0382293  27.2309995  26.3448898  37.6934760  10.7383358
  27.2118656  37.5661700  10.3531265  26.0661880  36.8149131  10.9965789
  98.4941769  82.6484680  74.1359806  98.8004971  82.8294754  73.2473660
  98.8353825  83.3736801  74.6593189  71.9273901  79.5324183  34.1159654
  72.2439528  78.9281178  34.7874093  71.5344477  78.9670706  33.4509730
   9.3311683  18.9054912  60.6618452   9.1626255  19.8448794  60.7351446
   9.4648163  18.7584823  59.7254896 104.2499407   3.6768763  61.1135101
 104.0219649   2.8009360  60.8020639 105.0699910   3.5550635  61.5919542
  92.7956875  22.2729056  59.6137810  92.5177439  21.3576453  59.6493530
  92.0684060  22.7593368  60.0019646  87.0463570  14.1694968  63.9703798
  86.8117388  14.0938609  64.8952913  86.2067469  14.1895049  63.5111570
  19.7594253  30.9557193  58.3766556  18.9894382  30.8059829  58.9252281
  20.2959911  31.5687411  58.8791847  95.6558609  76.6059446  45.3439045
  95.2323341  77.4528265  45.4840517  95.3269482  76.3112783  44.4946575
  21.8922313  35.3467894  70.2707481  22.3381217  35.8438802  70.9565449
  21.9094451  35.9236693  69.5071125  88.4909781  20.3806918  12.8072107
  88.1508120  20.8878081  13.5443389  89.4376000  20.3595870  12.9475462
  93.4272107   1.6561358  32.8076553  93.7486371   0.7588809  32.7190804
  93.1832894   1.7332118  33.7300396  45.7934944   9.3605082  38.7493443
  46.6484634   9.1794150  39.1398311  45.8362953   8.9580863  37.8819060
  80.6374264  95.8644199  77.7310228  81.0588264  96.6193867  78.1417227
  80.6829453  96.0460091  76.7923069  76.9242104  10.8792251  39.7846413
  76.4287384  10.1644843  40.1845026  77.7811011  10.4984229  39.5923948
   2.1074374  82.2061729  66.5497017   1.7900928  82.1885872  67.4525976
   2.2257884  81.2846565  66.3194370  21.0333721  40.4421657  49.6125317
  20.4562275  41.1518805  49.3306637  21.4741508  40.1593631  48.8113022
  95.1576909  26.2273829  64.0350676  95.4579123  25.9534018  64.9016905
  94.8375424  25.4228442  63.6270761  91.2428188  76.7259789  56.0768938
  91.2233448  76.0299110  56.7336607  91.5192223  76.2880421  55.2718782
  89.9062634  58.1338215  76.4531660  89.0209103  58.1835413  76.0927391
  89.8248577  57.5521326  77.2089720  78.1770945  87.7664566  56.7109537
  79.0048885  88.2095718  56.5248489  78.4308958  86.9728088  57.1820641
  14.1638843  19.1714709  34.8310590  14.8008243  18.7596457  34.2471719
  14.6767990  19.4414561  35.5928063   0.6147464  85.6544304  58.7355900
   0.6423743  84.6993160  58.6787653   1.3511356  85.9476948  58.1989765
   1.9088157 101.5629768  59.3467665   2.2958263 102.1792030  59.9686384
   2.0257648 100.7052612  59.7552586  42.0789003 100.5548191  64.4955015
  41.3104582 100.2609825  64.0062284  41.7416525 101.2224197  65.0928259
  76.3929987  91.3604927  64.1198063  75.6021976  91.1986828  64.6342754
  77.0185089  90.7055473  64.4296646  90.9699345  84.3315029  53.1081915
  90.1586723  84.0337753  52.6965523  90.8218956  84.2085075  54.0458441
  95.5123138  94.7705650  56.6036272  95.7232285  94.0086269  56.0640001
  94.8106003  94.4687080  57.1804333  62.2789145  88.5062313  54.3323565
  62.3603010  89.0742874  55.0984669  63.1767893  88.2388687  54.1359615
  71.5177679  92.1313572  74.1147089  72.0868015  92.2384071  73.3524895
  70.9235287  92.8808212  74.0771151  90.0570774 100.7356834  38.0967641
  89.9017429 101.5887165  38.5022759  89.2232895 100.2736855  38.1838870
  74.2752552  91.0628128  65.6741428  73.9608431  90.5373096  64.9384642
  73.4789133  91.3913631  66.0914326  56.9674730  64.9956894  80.8652878
  56.8493938  65.8961535  81.1677074  56.1397171  64.5625448  81.0736942
   5.1811449   6.5054458  49.2229748   5.6117670   6.5057986  50.0778437
   5.8943502   6.3873332  48.5955811  90.2155113  49.7490794  19.2523271
  89.6810150  48.9852530  19.4694025  89.9104309  50.0162990  18.3852941
  90.5072316   9.9524444  36.1452627  90.3131398  10.0012153  37.0813084
  90.7737788  10.8409827  35.9093070  97.3558577  13.3719676  37.8957057
  96.6750582  13.4770816  37.2311044  97.4901112  12.4259894  37.9535270
  76.5283489  96.9820404  43.6586618  76.2834311  96.3478184  42.9848576
  75.7031870  97.2037601  44.0901470  82.0307636  81.6892147  46.4436769
  82.1435165  82.1431732  45.6085491  81.9528008  80.7654095  46.2055159
  26.6619579  12.8746169  29.9952674  27.4486820  12.3564094  29.8257041
  26.5571777  12.8467601  30.9463072  94.2302227  84.6370316  68.5410833
  93.4422016  85.1604080  68.6870813  94.6219635  85.0092030  67.7509785
  24.1685478  17.9063933  40.5614710  23.2420627  17.9300254  40.8008099
  24.6317951  18.0904620  41.3786316 100.0988587   9.5806735  48.9315939
  99.5673140   8.8476222  48.6212349 100.9599503   9.4349139  48.5397911
  95.2438792   4.3802588   5.7058573  94.7571381   4.0435641   6.4581549
  94.5684441   4.6200316   5.0714070  12.4771674  32.4954224  69.6969223
  11.6586097  32.4701977  70.1924706  12.7857669  31.5893364  69.6979189
  20.5357345  87.9569817  62.3725176  21.1561664  88.3854961  62.9621553
  20.4098209  88.5841179  61.6604233  33.6484996   2.9264110  44.7492027
  33.0122558   3.6239284  44.9069595  34.4498913   3.2327311  45.1736641
   4.8263820  91.8079376  40.9796667   4.2755588  92.5710201  40.8049393
   5.1604732  91.5518188  40.1200104  83.0230236  99.1243839  69.9708366
  82.7017784  99.9300766  70.3756762  83.0579281  98.4927750  70.6892300
  75.9811497  95.2521610  52.5132132  75.0733471  94.9545956  52.5730371
  76.4192486  94.5808983  51.9900370  88.3537483  89.0312672  51.7639112
  87.4964237  89.2027187  51.3742638  88.1644154  88.4913826  52.5313187
  84.9349785  92.3493385  41.4894772  85.7213879  92.6659012  41.9339657
  85.1155186  92.4830627  40.5590200  35.0378601  13.4578364  41.8360090
  35.4976265  13.6910956  42.6425028  34.1383735  13.7520926  41.9794083
  68.7286949  41.9859702   2.2744447  68.8382435  41.1804206   1.7691595
  69.4050503  42.5737197   1.9378072  89.5608139  87.1757126  46.9943142
  90.2503586  87.7604294  46.6798830  89.4734097  87.3865700  47.9238987
 102.4152287   9.9418014  58.3120728 102.7647170  10.7136958  58.7573528
 101.5264567  10.1925128  58.0601740  95.2409752   6.9417327  60.3255939
  96.1837014   6.9211429  60.4901648  95.1430138   6.5733092  59.4475842
  76.7317343 100.8667183  74.2296124  75.9405613 100.3380489  74.1257668
  76.9594622 100.7777786  75.1550674  64.8773193  97.3715115  57.5105906
  64.8529625  96.9159031  58.3520508  65.4103374  96.8088245  56.9488907
  20.4594509   1.4973968  73.7987137  20.2682678   2.3430865  74.2042923
  20.2863781   0.8564704  74.4882774  13.7449829   5.9983581  45.4752827
  13.9213936   6.6148131  46.1859846  12.8741256   6.2395900  45.1596212
  78.3128786  93.7242413  82.0927525  78.6440754  93.3782864  81.2639904
  78.1619453  94.6537399  81.9210625  36.1772243   5.3532069  12.1245909
  36.2107269   4.4791072  11.7359304  35.4633419   5.3053992  12.7604604
   9.9102108  15.5893748  53.3126497  10.1467506  14.8583644  53.8835239
   9.1114895  15.3000682  52.8715372  73.1905413  79.6825790  77.1117401
  72.5545835  78.9681578  77.0744801  73.7754965  79.4452429  77.8312778
  10.5016319   9.5944255   6.5311766  10.9794990  10.3303378   6.1486721
   9.9951069   9.2336028   5.8035332  92.4633598  83.9437485  17.8336275
  92.4478340  83.3570194  17.0774937  92.3348808  83.3672142  18.5868394
  72.9068947  92.1630764  49.9669600  72.3014688  91.7408848  50.5764246
  72.3484325  92.4863052  49.2599392  11.5943893  95.3891945  44.5833397
  10.9451278  95.6648540  43.9362717  12.2765239  96.0592175  44.5386362
  81.4375107  17.1914714  47.1535206  81.3401691  17.9503863  47.7286673
  81.1098377  16.4555495  47.6705122   3.1827823   6.1389583  74.3900967
   3.3461324   6.7874186  73.7052298   3.9630167   6.1733668  74.9435234
  24.8871986   3.7507289  60.8352804  24.0316669   3.5073321  60.4816484
  25.3818313   4.0578788  60.0755310   7.0850937  69.0669387  31.5654945
   6.5553562  68.6026710  30.9173703   7.9693834  68.7212127  31.4441085
  64.5824337  91.6556454  27.6114082  64.9922037  91.3792992  28.4311342
  64.9790192  92.5055313  27.4199963  73.5763597  83.6267471  47.9484892
  73.4424257  83.9605999  47.0614529  73.0303335  84.1868401  48.5001945
  87.2174835 101.5010929  24.0893960  87.4984455 101.0637188  23.2856560
  87.4394226 100.8849621  24.7875023  92.4299057   3.8351767  65.1006079
  91.9036826   4.3077224  65.7456064  92.1230896   4.1624873  64.2550516
  39.9752037  29.6644919  62.1539783  39.6430198  30.1616996  62.9014206
  39.2685882  29.7004550  61.5092802  70.7376337  70.2807808  53.0332518
  70.6105042  69.6722031  53.7610626  70.2375603  71.0584116  53.2811403
  92.2410687  15.2486747  83.5619164  92.7379712  15.8735602  83.0338573
  92.2272356  15.6333774  84.4382954  47.8109789   0.6934342  42.2965765
  47.8524160   1.6175914  42.0507145  48.6108541   0.5435652  42.8005314
   9.0654413  72.7350051  22.9028535   9.5475475  72.2887380  22.2066832
   8.4951917  72.0596463  23.2701921  12.4975502  43.1560946  34.7812462
  12.2263467  43.1668425  35.6991577  12.4270713  44.0683174  34.4999766
 107.5368889  97.3123310  26.3469052 107.1887573  96.4256401  26.2530160
 108.4602531  97.1852822  26.5648293  35.2969122  42.4015188  55.8782625
  35.8506656  42.2606134  56.6462040  34.7065496  43.1097507  56.1353731
  26.0065786  91.7286939  31.8251300  26.0521547  91.1312491  31.0786629
  26.8021957  91.5477831  32.3256302  44.0568638   2.1883966  33.4426427
  44.4835472   2.6478845  34.1658592  43.2420540   2.6701242  33.3003044
  22.4961805  10.1078689  64.3069744  22.2272277  10.0281310  65.2221441
  23.4523082  10.1387095  64.3401384   3.4366385  98.3481381  56.7059326
   3.6942998  99.2669702  56.7806959   3.8900177  98.0351800  55.9231567
  23.1681514   9.7316486  32.0890117  23.3826447   8.9023316  31.6618609
  23.8570547  10.3325081  31.8050885  12.6433698  80.4387242  25.1791501
  13.3342496  80.4287345  25.8415818  13.0370275  80.8846814  24.4292235
  18.0937350  10.5464244  63.5000134  18.2752836  10.6567025  64.4333458
  18.7607765   9.9301976  63.1974363  47.9579544  33.5564899  79.9425030
  48.0336523  34.5017743  80.0726509  47.2373009  33.4573197  79.3203688
  38.2370925   7.9689813  65.3387451  39.0416932   8.1440598  64.8506927
  38.4679103   7.2548252  65.9328270   6.3678426   1.5379007  47.5757217
   5.8627135   0.8057220  47.2221804   5.7109547   2.1191606  47.9589558
  13.9469091  94.9128736  27.5040269  14.3328945  95.3216226  26.7293191
  13.7600605  95.6441594  28.0927038   8.2162611 100.6209730  44.3414593
   8.6186449  99.8886714  44.8084211   7.4069921 100.2591185  43.9803791
  28.9622116  16.2935638  67.5590992  29.8016262  16.1467338  67.9950523
  28.5176778  15.4470420  67.6040411  31.8744604  91.2592001  42.1975708
  32.4886362  91.5599174  42.8673363  31.8644659  91.9627125  41.5485716
  23.5442344  99.7871038  21.4058185  23.8593809  99.3380588  20.6214261
  23.5830823  99.1228817  22.0939565   7.3822659  38.2850599  49.6198654
   7.6972330  38.4945512  50.4991484   6.8652809  37.4876499  49.7343016
   3.6630479  97.6947135  61.9960737   3.8478867  98.6287130  62.0946264
   3.1294624  97.4742899  62.7595758  82.2732421  95.7614947  43.4626818
  82.1538170  94.9192930  43.0237484  81.5701868  95.7953215  44.1113758
  93.0866321  62.5352771  53.6077309  92.9473122  63.3452541  53.1170559
  92.7489718  62.7244885  54.4831800  92.8899725  61.9158203  48.8924170
  93.3434780  62.0315630  48.0574512  93.5914810  61.7778928  49.5288897
  21.1248875   0.8486055  42.8718805  21.6568851   0.1382812  42.5132036
  20.2339101   0.6492184  42.5844097   0.2361027  74.0595753  40.2341700
   0.0199620  74.2241222  39.3163276   0.7265655  73.2376821  40.2211094
   2.1441976  81.6376049  46.5565062   2.6396624  81.0077340  46.0330439
   1.2279502  81.4023192  46.4103460  39.9615089 100.0850340  43.1330585
  39.7054998 100.9419458  43.4742212  40.8508722  99.9525327  43.4612465
 100.2088793  89.0622336  42.4728298  99.8257788  89.8851127  42.7766943
 100.5433472  88.6459846  43.2672453  14.4919598   2.1083605  62.2904539
  14.5616186   1.8770605  63.2166719  15.0368869   1.4626080  61.8406868
  13.1577198  80.3067500  77.1475124  14.0378515  79.9362070  77.2130489
  12.5746147  79.5780785  77.3602629  80.3989693  95.1937635  13.0012488
  79.8819955  94.4513542  13.3139765  80.6006332  94.9785537  12.0906186
  71.2889322  65.0124694   0.3659421  70.9220990  64.7006704  -0.4613703
  70.7723864  64.5694066   1.0390741  48.0080223   8.2106286   4.3861261
  48.8178015   8.7077236   4.2704135  48.1343269   7.7347624   5.2069986
  42.9845142   9.0530026  33.9075685  42.4751759   8.2464540  33.8282990
  43.1473875   9.1421044  34.8465919  17.7055208  70.3872020  33.5438323
  17.9025451  71.3159878  33.6653686  17.0665924  70.3691346  32.8313208
   7.2257320  59.8702199  12.4959457   7.9043762  60.4440982  12.1405041
   6.7880336  59.5104796  11.7244291  11.4955608  90.5265374  13.4525549
  12.2930089  90.9627194  13.1524658  11.7339126  90.1470894  14.2983913
  40.0701952  42.8300619  47.3273087  40.4911518  43.4517241  47.9210806
  39.6106219  42.2207069  47.9049873  35.3594732   6.7927378  64.5229053
  34.6453500   7.4270880  64.4607973  36.1043048   7.3012316  64.8436737
  38.1168532   1.6906720  54.0426779  38.0823588   0.7460013  53.8922119
  37.3429894   2.0328930  53.5951805  95.1057180  88.2457299  10.9173310
  95.0556167  89.0878040  11.3696945  95.9291991  87.8611309  11.2176597
 105.7097014  86.4678151   2.5372130 106.6157587  86.1912198   2.6742724
 105.7313355  87.4190993   2.6412460  29.4534421  53.4610748  28.3996153
  29.2009306  53.0599594  29.2312264  29.2673373  54.3926716  28.5167646
   9.1926137  93.8024844  30.6224799   9.9735919  93.2830597  30.4314160
   9.5115129  94.7033650  30.6767821  99.8830446  93.0922241  63.6512804
  99.0207346  93.0367113  64.0630674  99.7455319  92.7647377  62.7624178
 108.2384729  33.2339531  80.2678913 108.3607530  34.0114229  79.7230786
 107.2905731  33.1699043  80.3845471   4.1510117  12.5209510  67.1899414
   3.9345235  11.5886128  67.2004509   5.0773227  12.5490606  66.9503832
  53.7078619   0.2476037  80.9468365  53.9290571   1.0050125  81.4887238
  54.5023823   0.0740618  80.4419994  20.7601237   3.5835096  12.9736459
  21.3026619   2.8030008  12.8610027  21.1040497   4.0024480  13.7625921
  83.0390271  86.5413875  84.2702866  82.1923192  86.8343455  83.9333916
  83.6175021  86.5538568  83.5077572  32.4826932  32.6227760  37.9615331
  31.7707038  32.3240757  38.5272908  33.1229615  33.0031323  38.5628796
  31.5839529   2.4895599  48.2317114  31.0686469   3.2896942  48.3340645
  32.4926233   2.7901167  48.2170296  33.0466056  43.8330841  51.4295578
  33.1311846  43.5945368  52.3526907  33.8239169  43.4602213  51.0136366
 105.8499034  87.1417779  23.8350439 106.5619334  86.7785103  23.3084679
 105.7295378  88.0287141  23.4957957  70.8006764  76.6781909  35.1207829
  71.7012741  76.3605291  35.0556159  70.6751417  76.8526513  36.0535407
  14.7051755  78.7287147   6.1064327  14.9763385  78.5738689   7.0112669
  13.8446418  78.3148057   6.0401124  48.7690783   1.2290421  10.9722519
  49.6641922   1.1817184  11.3080454  48.2180452   1.2011415  11.7544413
  56.4344645   5.1673329  63.5071707  57.1100521   4.6789163  63.9775562
  56.9160461   5.8424139  63.0290747  80.7383372 100.6945859  11.7379773
  80.4849948 100.0179643  11.1100972  81.6897937 100.6145389  11.8054712
  21.0322881  24.1672325   4.2500439  20.8085704  23.9169979   5.1464611
  21.8512487  24.6554184   4.3349570  27.7302257  86.0079855  21.2415123
  28.5310833  86.4164836  20.9129000  28.0077402  85.1412112  21.5380263
  16.2321607  81.6390950  16.3041675  16.7687074  80.9728772  15.8746314
  15.9387867  82.2065479  15.5913138 106.5043185  13.5712945  20.9943509
 106.4953030  13.9544594  20.1172328 105.7548259  13.9691985  21.4372563
  98.9718898  91.1720366  43.4098530  98.1508764  91.1110313  43.8981676
  99.6523913  91.1591227  44.0828943  36.3077950   2.0687115  19.0622652
  36.1897492   2.6427215  18.3054233  35.5829549   1.4460754  19.0060115
   4.4684666   4.8735461  30.1607323   4.1165820   4.0019238  29.9799442
   4.9054095   4.7844982  31.0077167   6.1709587  77.0200426  42.1903133
   5.5506794  77.7272303  42.3674440   5.6204216  76.2643392  41.9852448
 105.0556811  78.5476739  51.2217855 104.1889675  78.1869728  51.4086962
 105.6602248  77.8315408  51.4165020  79.8631287  12.8030026  59.7370338
  80.2003002  12.8551292  58.8427019  80.3331852  12.0663261  60.1276588
  99.0742310  86.6135199  62.0985603  99.2506512  85.7248528  62.4073935
  99.0057762  87.1356875  62.8978634  28.7249494  18.4631658  34.4329691
  27.8351498  18.7268937  34.1985798  29.1590261  19.2792809  34.6814919
  38.5199547  14.4693649  55.1743603  38.0141425  14.5966220  54.3717480
  38.2729936  13.5955238  55.4770899  19.2743218   8.8620836  17.6956248
  19.4010127   8.1684572  17.0482731  18.5905457   8.5266173  18.2754052
  55.2516556  16.6586363  25.6507421  55.3987408  16.5531898  24.7108054
  56.1189795  16.8469024  26.0092568  45.6375742  15.6097114  48.1274652
  44.7405100  15.8888555  47.9442167  45.5397797  14.7754622  48.5864830
  30.6822824  24.1035843  43.5686493  31.1669612  24.8548913  43.9104939
  29.8461080  24.1261339  44.0339851  78.9554169  72.8841240  40.8889055
  79.1861918  73.7420518  40.5326223  78.0300804  72.9622085  41.1210394
  37.8847647  23.3802152  65.9235573  36.9863582  23.1149340  66.1203480
  38.3912492  22.5698447  65.9784031  18.3224607   8.1462592  30.4884148
  17.7439523   7.7691621  31.1512542  18.0367637   7.7476275  29.6664047
  30.4235840  53.8278913  25.8302999  30.1800847  53.8604879  26.7554355
  31.1715031  54.4209194  25.7584453  18.4387076  16.1252260  10.3639281
  18.3757889  15.2095830  10.6357205  18.4198356  16.6200566  11.1830854
 106.6603103  11.9330919  52.8908396 107.5963080  12.0499408  52.7280951
 106.5017934  11.0044873  52.7211428   3.5817877 100.3913165  61.5323782
   3.8236825 100.9243470  62.2897434   2.6631705 100.1670183  61.6809273
   3.6397044  45.5283219  35.0752783   3.2528011  45.3929860  35.9402776
   4.5773736  45.3888852  35.2078319  98.6506422  92.9840577  33.6749864
  98.5568198  93.4418953  34.5103407  97.9412540  92.3414088  33.6730862
  98.6356028  91.3441665  40.7527351  98.8271650  91.1978383  41.6790867
  98.8477882  90.5120368  40.3299236  55.8403349  28.6559319  86.7902946
  54.9013901  28.4700632  86.7820644  56.2544918  27.7947593  86.8458557
   6.9415170  21.2635136   7.8713936   7.4540240  22.0070791   8.1886965
   6.3755262  21.6342378   7.1943039 104.2382725  96.8812988  29.7208619
 104.1679772  97.5542665  30.3979182 103.4847935  96.3104732  29.8713946
  25.8468413  24.0157413  31.5851712  25.0772357  23.8523936  32.1303868
  25.9821105  24.9618030  31.6390610  44.6525908  27.1436906  33.6186790
  44.0286016  27.8058243  33.9160895  44.5469904  26.4203620  34.2366385
 106.0305379   6.7892116  33.0627370 106.5665345   6.1552566  32.5862479
 105.2629967   6.2909096  33.3434629  99.9082621  84.7932608  35.4016185
  99.6213730  85.0902516  36.2651706 100.4000147  85.5330498  35.0450754
 107.6258359  10.3816271  61.7698765 107.1419882   9.7541809  61.2328148
 107.9191628   9.8734748  62.5261641  97.0623477  99.4047730  48.3569002
  96.4087137 100.0913400  48.2241583  97.4563583  99.2790592  47.4936581
  94.9187358  87.4629767  23.4909248  95.5122407  88.0510647  23.9579749
  94.0434392  87.7487928  23.7524533  24.4294024   7.7652866  45.1509428
  23.7725782   7.3522413  45.7114887  24.5503044   8.6374784  45.5263042
   4.2893025  33.0396533  41.6951799   3.6042568  33.5108209  42.1694660
   3.8205159  32.5563478  41.0148239  16.4852417  26.0319924  50.9787178
  16.1183643  25.1927853  51.2568569  15.7607055  26.4758444  50.5379534
  29.6923900   2.4964420  27.9499340  28.8233304   2.5483036  27.5520945
  30.2617669   2.9710382  27.3442936  75.9847762  83.8822467  27.8261447
  75.4953249  84.6754665  27.6082683  75.7835301  83.2737596  27.1151781
  81.5654941  87.0009810  42.3380375  81.2824400  86.1639792  41.9698763
  82.2429045  87.3103232  41.7366600  93.4978541  96.2749762  25.3942466
  92.8067215  96.2173910  24.7345114  93.3565815  95.5131162  25.9562469
   4.3016043  24.1092134  42.2090006   3.8430244  23.5706091  42.8538609
   5.0012690  23.5450101  41.8797970  97.1449431  69.8243434  26.5238476
  96.5367373  69.1540558  26.8353486  97.9222091  69.3354637  26.2535000
  49.6240854   7.2877783  33.8337994  49.1176987   7.9960549  34.2314816
  49.8873615   6.7379600  34.5717812  90.6180950  87.4901111  60.1459503
  90.3163703  88.3925325  60.0418854  91.5478071  87.5714404  60.3586769
  49.6594858  17.3895180  45.7430935  49.1629982  16.5768504  45.6466341
  49.1782951  17.8871310  46.4042091  90.2229544  98.8136164  33.1952500
  91.1463698  98.7975303  33.4468007  90.2244731  99.1521875  32.2999310
 107.2201403  97.4754006  65.1695299 107.2664150  97.7747796  64.2615271
 106.5329107  96.8091110  65.1673126  98.5342654  76.1760504  19.8010659
  98.7397202  75.2559192  19.9665260  97.6921686  76.1554296  19.3464446
  29.4006578  82.0760018  77.2870255  29.2088977  81.4449579  77.9807377
  28.6193840  82.6271922  77.2419691 102.9312762  48.4636361  30.9702826
 102.0630964  48.0936105  30.8103681 103.0692180  49.0729720  30.2450871
  13.2060850  34.1375470  29.3648148  14.0216708  33.9735699  29.8382735
  13.1471753  33.4203243  28.7336636   8.8348216  26.9116259  39.0912867
   8.3078229  26.8229032  39.8854089   9.6161884  26.3858652  39.2623830
 102.8237398  89.4349820  57.9331875 102.0421203  89.6257217  58.4517622
 102.8305753  90.1089317  57.2534990  70.2229738  30.3547740  39.2920399
  69.7394609  29.9330640  40.0023985  71.1233473  30.0484395  39.4002938
  15.2265143   9.7097111  39.7151256  15.1683295   8.7548214  39.6829963
  15.9539831   9.8853946  40.3119135  67.9314067  98.2024265  46.8022871
  68.2299038  98.8308663  46.1448717  68.2508411  97.3567370  46.4876413
  42.7016735  39.7972131  43.0486965  41.9293213  39.7728777  42.4837971
  42.9076719  38.8769150  43.2125473  39.4416976   9.1605902  72.4141407
  38.6204433   9.3628800  71.9659758  39.9999881   8.7852418  71.7332172
   6.2378138  12.6243567  30.2813649   6.0834545  13.4776628  30.6866741
   7.0268059  12.2942472  30.7111931  10.5320350  92.0251472  26.1751723
  11.1293165  91.2790508  26.2283564  11.0318653  92.6997978  25.7155538
  16.1856067  19.0558672  49.3553972  15.9002280  18.5393465  50.1090527
  15.5957174  18.7941420  48.6484575  32.2243921  79.8549635   7.1034169
  31.3405935  79.8076660   7.4679679  32.3500196  79.0110166   6.6695970
  44.8025990  36.8242860  28.0321097  45.3894234  37.3818970  27.5212860
  44.6395969  37.3198724  28.8346410   3.3749858  87.0697064  53.8137150
   3.9011303  86.6663606  54.5041561   4.0141670  87.3520906  53.1595469
  21.8320680  22.7576041  20.6373477  22.7270746  22.9869413  20.8875442
  21.2941623  23.0579305  21.3699412  41.1011457  17.5933444  34.2282748
  40.9850693  18.4544516  34.6298361  41.0704851  16.9804144  34.9628544
  99.7472080  82.1810443  45.6848383  98.8274129  82.4047620  45.8268070
  99.9987801  81.6930182  46.4689112  89.1582497  53.4673481   2.9191762
  88.5397967  53.2637773   3.6208231  88.7320717  53.1475249   2.1239931
   1.4897076  67.1606571  19.9209034   0.7768694  66.8436176  19.3663037
   2.2862784  66.9225270  19.4465649  51.9395161  30.3685999  37.1219611
  52.4428988  30.6878233  36.3730049  52.4167013  30.6913972  37.8863740
   5.7914058  99.6951049  35.1165247   6.3156978  98.9824734  34.7511387
   6.2669412 100.4901517  34.8756933  24.2573690  14.6584749  50.7998276
  24.7555470  14.8710287  50.0106049  23.3577275  14.5471275  50.4924488
  73.1103897  28.0644751   1.5875967  72.6513863  28.6067915   0.9461598
  72.4257994  27.7765894   2.1914956  40.0604630   5.1126981  39.8261619
  39.9010682   5.5853468  39.0091991  39.7788739   4.2163464  39.6431494
  96.6503819  78.7081797  17.5260413  96.2245448  79.1107304  16.7691755
  96.0032090  78.0890376  17.8637719  90.8139022 100.1311523  84.0434551
  89.9061724 100.1236557  83.7398052  91.3347884 100.0678874  83.2428837
  12.9547000   2.8119597  87.3509121  13.1569445   3.3114254  86.5598011
  13.3724880   3.3036715  88.0579567  13.4287731  90.8621759  44.8303318
  13.1443731  90.9375054  43.9194679  14.1451255  90.2277679  44.8058939
  23.0795860   1.7426778  68.4972906  23.2386017   1.1933990  67.7296686
  23.4765339   1.2608954  69.2229271   8.0433983  25.5678749  34.9132061
   8.4115213  26.4441586  35.0265384   8.2503998  25.1136565  35.7299495
  41.5133047  32.2420549  48.3528471  41.7834949  32.7076626  49.1443300
  40.8915758  31.5835619  48.6628008  75.6455030  94.2940641  42.5943327
  74.8292028  94.0695626  43.0409718  76.3139092  93.7752301  43.0418539
  12.1549503  63.7888009  83.4562778  12.4298231  64.2292697  84.2604351
  12.8970138  63.2309587  83.2230854  24.5723701   4.0571231  43.2114220
  23.7688708   4.5688570  43.3049488  24.2975688   3.1514660  43.3546019
 106.3158522  64.7488594  67.6148891 106.9418440  64.9155474  66.9102049
 106.2870387  65.5684614  68.1085062  37.6330781  25.3518844  28.0125713
  36.9116259  25.9787035  27.9593229  37.2046852  24.5009542  28.1054711
  34.4888997  35.1837254  23.9188695  35.0548148  35.1436210  23.1479192
  33.7236094  35.6800556  23.6286640  63.5491133  21.9668698  36.6671133
  63.0494308  21.6568637  35.9118366  64.4279957  22.1271038  36.3234305
  32.8417826   5.8599383  52.9044580  32.3490119   6.5428621  53.3594561
  33.2691002   6.3157237  52.1792746  19.8403859  14.5336509  34.3774033
  19.5621943  13.6632311  34.0924287  19.0240550  14.9948859  34.5700145
   0.5875746  90.2730674  40.2000856   1.4029280  90.0165195  39.7692585
   0.6146065  89.8291797  41.0477114  30.1566815  37.2301984  27.2719145
  29.4688797  37.7675152  26.8789124  30.9198523  37.8068280  27.3079991
   2.1330370  39.6045446  18.8739502   2.7482581  40.2970600  18.6327863
   2.6393813  38.7960982  18.7948143  94.0621169  59.2591006  28.3617496
  93.5251888  59.9986655  28.6463308  94.0326746  58.6453206  29.0956712
  40.2887201  11.0453224  35.9678388  40.7298231  11.1094773  35.1207590
  39.3685412  11.2226462  35.7727480  38.4731332  72.8556783  18.1523466
  38.9834062  72.2702272  17.5927901  38.0373708  72.2730143  18.7743151
  48.5086203  11.8248808  48.0441856  49.4107819  11.9180834  47.7381563
  47.9731607  12.0619714  47.2870159  30.6776690   4.9960026  42.6918316
  30.8587408   4.0694803  42.5337124  30.0330424   5.2313465  42.0245266
  35.9886495  82.2610671  42.7644825  36.2023393  81.4312298  43.1910229
  36.8344871  82.6118238  42.4856329  14.8361230  19.2168653  37.8745484
  14.2040837  19.8851812  38.1393337  15.5980325  19.7129714  37.5752115
  40.6858444   1.7030707  35.2185130  41.1690187   2.3347168  35.7512450
  41.0329151   0.8512372  35.4833817  55.6880951  12.9441643  73.0062294
  56.3500690  12.6284909  72.3911095  54.8753548  12.5292408  72.7172232
  38.3443975  12.6412892  20.8519745  38.0271268  13.4361672  21.2806225
  38.4235168  12.8821874  19.9289691   4.3582118  30.5554199  44.2174435
   4.8328549  29.7775722  44.5105314   4.9838352  31.0236096  43.6646080
  95.0135978  85.8720178  13.6515355  95.7411798  85.2840430  13.4487057
  95.4222210  86.6135401  14.0980816  23.1577388  92.1934856  62.8261471
  22.8187887  92.1204127  61.9339561  24.1000978  92.0513774  62.7367401
  82.2426816  83.1086988  43.2577562  82.9002198  83.7261231  42.9373455
  82.1998640  82.4322397  42.5818872  94.7037586  97.6330862  32.4141645
  94.4722970  97.9437698  31.5388727  95.6511052  97.5007940  32.3786163
  10.7674837  16.0459793  42.3376417  10.7963645  16.7701876  41.7124033
  11.5770137  15.5603814  42.1792459  13.9591539  14.0862811  38.1012845
  14.8658776  14.1556787  38.4000635  14.0049255  13.5287714  37.3245478
  25.7946014   4.7679731  52.2747278  25.5868721   4.1699702  52.9926920
  25.7863402   4.2156622  51.4929914  86.2338563  96.6109843  69.1057491
  85.8003720  97.2760285  68.5709238  85.8047744  95.7907308  68.8622236
  21.4714996  94.0739287  33.9763212  21.9968692  94.0673275  33.1762123
  20.6184904  93.7343807  33.7055564  17.2966492  16.0546935  53.6806440
  17.3679054  15.8868670  54.6203184  17.9368067  16.7459583  53.5115814
  65.5609608   0.2109410  59.5179892  66.1481810  -0.4080307  59.9518967
  65.3552961   0.8587211  60.1920176  58.4652376  13.2644475  27.1338797
  57.9589605  13.9999914  27.4786830  58.9309502  12.9167736  27.8944492
  45.6724548  15.9125328  23.7388253  45.9494495  15.0253403  23.9677262
  45.3017950  15.8285570  22.8603101  45.6331015  17.3040402  44.6096468
  44.8793173  16.7259884  44.4917727  45.6544018  17.8351915  43.8136244
  32.6002669  20.3976154  49.4819975  33.1194520  20.2696514  48.6880827
  32.7253246  21.3203192  49.7038269  25.1484656  13.2558680  14.2589331
  24.6008539  12.6229405  14.7234285  25.4995298  12.7677512  13.5141325
   1.1521851  17.1583426  37.8987408   0.9372057  17.1318424  38.8311100
   1.1364110  18.0890524  37.6756668  38.8644791  26.5441465  81.6301250
  38.2439995  27.0286918  81.0856438  39.2253518  27.2015333  82.2249699
  26.7643166  27.6017690   9.4520205  27.0594239  28.4285712   9.8335183
  26.1943102  27.8618383   8.7283576  99.9168189  76.7785747  55.9764671
  99.4093211  76.9363958  56.7725658  99.9545534  75.8250553  55.9015703
  77.2961092  37.9026580  26.0530543  78.1694126  38.2006192  26.3076019
  77.1910667  38.2102489  25.1527286  29.7559071  23.0228829  46.5499783
  29.1762018  23.5993505  46.0521269  30.1585507  22.4594259  45.8892012
  44.9949265  25.6853628  49.7257137  44.1073132  25.7107353  50.0831175
  44.8856926  25.8947635  48.7981081  53.5967445  12.3896313   6.3166440
  52.9526663  11.9168568   5.7895029  54.2976665  11.7547572   6.4645398
  61.3016033  23.0948353  64.6268940  60.3899956  23.3021331  64.8323965
  61.3620615  22.1458817  64.7367287  27.1894908  15.1089513  36.8839693
  27.1007490  14.5227146  37.6354241  26.3611341  15.0210154  36.4124537
  82.3827275  94.7966165  51.3143635  81.6056867  94.2399592  51.3650799
  82.1346041  95.5001844  50.7146454   0.4984977  16.9926655  48.2496786
  -0.2581202  16.4434314  48.0444860   0.1282572  17.8611171  48.4076214
  32.2657204  37.4482536  58.9323950  31.8150306  37.9259920  58.2360649
  32.1759510  38.0079269  59.7037172  56.2684727  22.9969764  29.9535322
  56.5365696  23.8693500  30.2421904  56.7773485  22.8410411  29.1579413
  84.8341751  13.6223972  36.6690540  84.9670982  13.6455941  35.7214117
  84.0266895  14.1167498  36.8098211  43.7345362  28.2783723  31.0177207
  43.4002113  27.4664283  30.6366634  43.9078617  28.0596542  31.9333363
  46.3509417  15.5309296  55.5385447  46.0082769  15.6791985  54.6571684
  45.8678770  16.1463726  56.0900021   4.2621748  81.0990817  38.2012367
   4.1903774  81.5106995  37.3400474   4.9951211  81.5490539  38.6214137
  59.3815613  16.0802889  35.6210518  60.3094769  15.9304976  35.8020711
  59.2224741  15.6256878  34.7938514  33.9672875  29.3874073  81.0029030
  33.7868452  29.1742253  80.0873566  34.9083185  29.5608687  81.0274601
  21.4993660  98.3612401  38.6391997  22.2033111  98.5303120  38.0130148
  21.6747324  98.9609028  39.3643785  76.9757938   3.8408694  71.0768938
  77.2068739   3.1383276  71.6845703  76.0611439   4.0396345  71.2772274
  30.3926134  25.0958824  66.6487789  29.6421194  25.4370785  66.1623907
  30.0077987  24.6675134  67.4134016  73.0771685  51.4923811  20.6227827
  73.4362602  50.6063557  20.5753946  73.8420105  52.0644760  20.5599189
  25.4741478  22.7098227  38.7988997  24.5878410  22.7763677  39.1542363
  25.9216309  22.0988154  39.3842721  10.6956744  48.7387037  73.3621502
  10.5684876  48.8912582  74.2985153  10.9945738  47.8311157  73.3057737
  91.1265659  78.0370277  87.7640394  91.9198942  78.5434692  87.5897357
  90.4148960  78.6724132  87.6863404  36.6214323  24.5877719  37.9052067
  36.1963224  23.8215518  37.5199533  35.9844279  25.2941823  37.7982354
  61.6429281   3.2291326  18.4761369  60.9612656   3.7504011  18.0520463
  61.2411404   2.9264539  19.2904997  48.4599876  17.7670002  63.6860991
  47.7491808  17.9766154  64.2919493  48.0175686  17.5216675  62.8735065
  61.2080908  10.8213830   7.9059088  60.6111908  10.1063228   7.6853871
  61.7192125  10.4879212   8.6433327  43.5413265  24.8899603  40.5295992
  43.5170746  24.4821715  41.3952494  42.6211691  24.9834633  40.2830219
  37.1076870   0.6735533  22.9438448  36.6074848   1.4588998  22.7218962
  37.4982595   0.8709782  23.7951422  41.4649820  12.2006273  51.9991159
  40.6777954  11.7408466  52.2909546  41.9094992  11.5750635  51.4270115
  31.0736394  13.3398807  17.0338035  31.1940765  14.1676199  17.4991798
  30.3305721  13.4983575  16.4515948  59.6594191  22.7590036  60.2222252
  59.6245575  22.2243428  61.0154152  60.3519011  23.3971739  60.3937864
   3.4920708  93.2682360  53.2226753   3.6298291  94.1930313  53.0177164
   2.5666372  93.2108719  53.4604073  74.2149115  15.5727434  62.8168583
  74.5420074  14.8206615  62.3232889  73.9543009  15.2089345  63.6630011
  47.7127075  39.3595195  43.7272644  47.7025032  39.8905063  42.9309082
  47.8233814  39.9930906  44.4361830  21.7964387  43.0381536  62.3657370
  22.1836638  42.1860170  62.1653605  20.9106326  42.8341484  62.6656675
   7.5877005  27.0149207  46.2783575   7.8772795  27.5979137  46.9801378
   8.3756143  26.8559861  45.7585812  99.3995865  76.8360866   3.6621172
  99.2370423  76.4203252   2.8153879  99.1865357  76.1602582   4.3056184
  51.4787674  27.5641322  35.0830865  50.5964708  27.5942683  34.7131205
  51.3421011  27.3916459  36.0146451  70.0332928  50.4223732  79.0135711
  70.5679893  49.7690595  78.5624486  69.3587279  50.6603943  78.3775359
  60.3485823  17.9755020  13.2349813  60.6525850  18.8526905  13.0018389
  61.0146904  17.3883045  12.8775954  28.5908675  65.1839352  38.0519795
  29.3213010  65.7846785  38.1996608  28.8822269  64.3548012  38.4312892
  18.4902135  90.3800804  20.9311008  19.0380041  89.9695963  20.2620268
  19.0452758  91.0616464  21.3100529  86.1867619   0.0691046  71.1886930
  87.0333481   0.0301494  70.7437134  85.7739544   0.8631036  70.8490086
   7.9461324  41.9148588  40.8928537   7.2875339  42.5459909  41.1829329
   7.4400473  41.1520243  40.6132174  25.2819300  17.6538026  37.1488476
  24.4350219  18.0875468  37.2529817  25.0621247  16.7541373  36.9069362
   8.1011152  35.1520371  48.3851862   9.0453655  35.0223708  48.4735632
   7.9698288  35.3292179  47.4537373  42.6217270  44.0710783  51.0589075
  43.5167217  44.3136787  50.8215141  42.4693871  44.5080090  51.8968296
  88.6067291  58.7853391  32.9547501  88.8945516  59.1519696  32.1187043
  88.2198532  59.5265157  33.4208107  48.7109661  11.2539411  60.7307720
  48.9117527  10.3483570  60.4944801  49.4539595  11.5320992  61.2663269
  58.4270430  12.4825609  46.6330385  58.0579233  11.7162013  46.1940908
  58.3630085  12.2782016  47.5659752  21.3882200  97.7078737  59.4793177
  21.4608947  97.5260786  60.4162836  21.3246719  96.8440182  59.0719509
  55.6733799  33.4659529  32.7755666  56.4563990  33.1137419  32.3524165
  55.5564833  32.9215741  33.5541677  40.7214212  39.5419550  59.3221426
  40.8994055  38.7116456  58.8803911  40.7598066  40.1970482  58.6252832
  56.6783524   9.7857636  41.6923809  55.7232285   9.8402816  41.6608763
  56.8739653   9.5280236  42.5932360  16.7288899  43.3069658  47.7419710
  16.2331545  43.0315447  46.9708538  16.1062109  43.8210821  48.2559586
  88.0893707   8.2087123  39.1667247  88.7378311   8.8204205  38.8180971
  88.6060047   7.5538409  39.6362567  19.6540681  99.7498525  45.0214767
  20.3986351  99.1606344  45.1426411  18.8854496  99.1879559  45.1200819
  64.5781183  13.4245348  28.5256171  64.8333979  13.3750355  29.4468188
  63.6922646  13.7867975  28.5416961  41.3999319   6.5492558  29.8148060
  41.6197729   5.9114993  30.4938984  40.4660845   6.7189020  29.9388409
   8.0389778  94.5231176  55.2318430   7.5318805  93.7376446  55.0266218
   8.2023517  94.9316264  54.3817472  58.3500338  29.3183947  44.5931911
  57.6537275  28.7250686  44.3114853  57.9361820  29.8788095  45.2496147
  61.3776922   4.8300803  46.9502926  62.1719170   5.2951562  47.2132444
  61.5315008   4.5912874  46.0362053  77.1524191  21.3980460  50.6716585
  77.6995802  20.6594110  50.9386158  77.3885632  22.1017766  51.2760019
  37.7456141  49.0551853  26.8215585  38.1014991  48.3908367  26.2314582
  38.3068895  49.0132380  27.5957966  53.4912825  24.5448995  43.5913324
  53.7374115  25.1023865  42.8531885  53.3887100  23.6732197  43.2093811
  37.4256468  39.7737837  55.7173204  37.5347877  39.4496298  54.8233128
  37.5317430  40.7221651  55.6428432  92.8134612  16.3548720  42.4803686
  92.1945040  16.6752338  43.1364918  93.6687450  16.4223814  42.9048252
  44.8525333   1.7690097  11.2318039  44.8379612   2.6242411  10.8021545
  44.8547125   1.1389633  10.5112004  40.4230118  16.8508935  44.4280291
  40.5775595  17.4085200  45.1905251  41.2964344  16.5680254  44.1571903
  32.9970574  25.2906013  74.0894270  33.0621958  25.1097631  73.1517220
  32.6616454  24.4776630  74.4673920   4.4915500  20.8544326  26.4483404
   3.6930659  21.0039735  25.9420872   4.8701197  20.0609779  26.0697293
  71.2683773   6.3391399  27.6642561  71.7119408   5.8243525  26.9901061
  70.4344034   5.8891433  27.7992296  44.6083879  58.5396862  24.3011451
  43.9764023  59.2580080  24.3300939  44.6477795  58.2924128  23.3772755
  14.7562110  29.2203236  52.4316072  14.6289611  30.1347351  52.6843786
  15.6943834  29.1487908  52.2556829 105.5719169  97.0587350  84.6446037
 105.9892615  97.0615704  85.5060196 104.6884688  97.3902465  84.8053837
  33.7179470  19.5813787  44.4581604  33.2746220  20.1819921  43.8590288
  34.2533159  19.0277803  43.8897038  14.6093464  23.3829927  60.9802485
  14.6002018  22.8441811  60.1891565  15.1979470  22.9214931  61.5775776
  66.7528296   4.4707274  58.9601946  66.9015265   5.2712941  59.4634008
  67.6100588   4.0461436  58.9267683  39.2657948  35.3873467  13.7352931
  39.9029565  35.0588083  14.3695796  38.5900450  35.8052373  14.2691112
  96.1069425  75.3103096  60.6853199  95.8187111  75.2297146  61.5945292
  95.6578644  76.0905034  60.3599596  24.9156880  52.0856905  64.9745989
  24.3171787  52.3323631  65.6797028  25.7563853  52.4652910  65.2302551
  23.9682460  23.9580536  48.6028337  24.4145012  23.7989712  49.4345665
  23.9751697  24.9102759  48.5056019  69.0800953  28.3732319  72.2344446
  69.7575426  28.2432508  71.5708160  68.9330244  29.3190122  72.2445297
  35.7835674   7.9137409  31.2287617  36.4236951   8.6241913  31.1871958
  35.1984286   8.1601727  31.9450808  86.9392967  29.7378850  49.9587774
  87.8718662  29.9522090  49.9339867  86.5447044  30.4443192  50.4701281
  36.7727637  43.0279207  39.2964220  37.6321578  43.3082247  38.9816141
  36.6643715  43.4812784  40.1324511  59.7900248  22.0919991  44.2864704
  59.5091152  21.6930366  43.4629726  60.0654125  21.3530064  44.8289490
   1.4561311  98.3550216   7.2032470   1.2542740  97.4201912   7.1635145
   0.6014244  98.7855858   7.1852064  52.6164770  25.4740357  29.0862894
  52.4177885  25.2024484  29.9823880  51.7737818  25.7530355  28.7281585
 102.7949341  93.0098308  57.6196051 102.0226415  93.5473717  57.4439859
 103.4259971  93.2708592  56.9488955  30.7324163  91.4086682  24.9363828
  30.7526151  90.4621870  25.0777912  31.3455478  91.7604072  25.5818105
  33.8894272  30.1421332  40.9474421  34.2483759  30.3280735  40.0797939
  33.1953073  30.7909393  41.0635567  32.3427558   1.8451127  35.0535989
  33.2487392   1.7141828  35.3333926  32.2174454   1.2142100  34.3447328
  33.1459832  45.7556486  57.0756912  32.4057007  45.1740837  56.9024944
  33.4035802  46.0790634  56.2123966  29.8939300  30.8175755  82.8822613
  30.5790854  31.4082265  83.1951904  30.2651930  30.4145765  82.0974159
  57.3835039  25.5382490  68.6006403  57.9715443  26.2868738  68.5006475
  56.6357756  25.8844137  69.0877771  20.3488970  34.7759080  11.8073547
  20.6757998  34.6887040  10.9119427  21.0942793  34.5378923  12.3587036
  40.1749849  32.8488541  16.5220523  40.6311560  32.5327468  17.3019326
  40.2686501  33.8007379  16.5591192  67.6993084  14.4823122  32.1083522
  67.9689741  14.9945521  32.8706646  67.1664381  13.7748969  32.4714613
  11.7154542  97.9529939  33.4564567  10.8353178  97.8975628  33.8286376
  12.1100370  97.1019334  33.6468124  26.7494583  25.4174280  41.9827318
  26.8501329  24.4719172  42.0927620  26.5166306  25.5278301  41.0608673
  94.4186195  99.6307001  47.0280552  94.2060359  99.0494285  46.2978745
  93.6982854  99.5110970  47.6469612  52.5983381  47.0359993  43.4426928
  53.5016680  47.2426319  43.2028294  52.4952507  46.1121559  43.2144022
  35.5236626  33.2668209  48.4856462  35.0269318  32.8884149  47.7601814
  34.9479914  33.1732464  49.2446423  33.5644603  53.8015699  48.6128092
  34.4948053  53.5892344  48.6876678  33.1141567  53.0272341  48.9502430
  16.0524440  21.5578103  36.4575958  15.6460607  22.1511102  37.0893240
  15.6781280  21.8128729  35.6143498  21.1443615   9.0607673  70.6973505
  21.9907570   8.7290293  70.9970140  20.6119418   8.2760012  70.5673361
  41.1058664  63.5564709  19.8742270  41.8799639  64.0969563  20.0319600
  40.9553099  63.6231089  18.9312935  26.2767959  40.7825184  42.7489805
  26.5927410  41.2681818  43.5109138  25.3512478  41.0173273  42.6822090
  29.4039965   7.5483751  44.3182325  29.5677662   8.4422344  44.0175247
  29.9674964   7.0037460  43.7686157  66.8452835  21.7576194  47.3350906
  66.6060066  21.1025214  47.9907036  66.8627453  22.5841141  47.8176212
  17.7112579  54.9210978  42.4090195  18.6167240  54.7602129  42.6744986
  17.4392772  55.6761646  42.9306793  63.5934305   0.0429312  64.4037580
  62.9719973   0.1199024  63.6797857  64.3886375   0.4684262  64.0830898
  96.8116244  99.9870893  40.9380817  97.1440776  99.7269870  41.7971802
  97.4810465  99.6894202  40.3220463  83.2531643  14.8931599  31.0854554
  83.7403584  14.1572535  31.4560151  83.8630295  15.6297112  31.1276770
  31.0215640  25.8280182  61.3494062  30.2697730  25.2362823  61.3792467
  31.6473818  25.3912282  60.7716513  12.7749006 100.1982193   7.0523793
  12.5024597 100.6148684   7.8699434  11.9582693 100.0491109   6.5758181
  58.3007041  75.6552584  52.4237490  58.8960830  75.1329238  51.8862343
  58.6685077  75.6054623  53.3060598  54.6594381  19.3585360  33.9490628
  54.8236179  19.9089980  33.1833792  54.0384674  18.6985195  33.6408353
  38.1733251  14.8958230  51.2591410  37.8684187  15.2756357  50.4351234
  37.7788162  14.0239882  51.2814903  39.2699480  18.6219561  40.8714581
  39.0194941  17.7095866  41.0166645  38.9332294  18.8268387  39.9991751
  44.8674099  97.0715670  40.2696180  45.0349990  97.8124399  39.6871638
  44.0917102  96.6483254  39.9016714  44.5866299  25.0543642  77.8515291
  44.3213892  25.7888961  77.2980499  44.7805309  25.4519081  78.7004089
  24.8867011  62.2400570  50.3150606  25.0083923  61.4838457  50.8891392
  25.6741238  62.7685642  50.4449749  65.9220807  19.7940755  31.1663628
  66.6646544  19.2851961  30.8410048  65.1619117  19.2326307  31.0141850
  71.6257811   3.6994395  64.7357988  72.4739552   3.3186701  64.5080996
  71.4787769   4.3718636  64.0706205  77.0864656  95.0375975  61.7774725
  77.4817952  94.2617662  61.3799429  77.3450812  95.7588483  61.2037611
  32.8188872  21.2933207   3.2287115  32.7847528  22.2289324   3.0294630
  32.1846294  20.8978081   2.6307827  42.9264975  51.3756895  17.1530437
  43.6061907  51.5495634  16.5018785  43.1738520  50.5353689  17.5389278
   7.2203390  74.0433843  39.3857479   7.5028411  73.3223397  38.8231492
   7.4377433  74.8330433  38.8903618  35.7718507  96.6775496  39.0560532
  36.1856691  96.3057912  38.2770896  36.1453811  97.5557781  39.1296721
 106.3565191 101.3368365  60.5492115 105.6603511 100.8157061  60.9492207
 106.6662558 101.9046225  61.2548447  39.3093252  25.7429409  49.3455601
  38.7763405  25.0312471  48.9910841  38.6755395  26.3471246  49.7322226
  37.6676702  24.8010635  33.6738515  37.3630071  23.9269042  33.9172840
  36.9044089  25.3646278  33.8005733  57.0631718  75.1312082  87.3644829
  57.2504115  75.4827326  86.4940792  56.1232662  75.2694481  87.4815178
  82.6523638  69.4903558  81.4799225  82.9380703  69.9899488  82.2447818
  81.7024517  69.6064168  81.4592027  29.6629500  30.4555845  57.3795843
  28.7878036  30.4461312  56.9919491  29.5695281  29.9613643  58.1939888
  48.1200266   8.6098009  40.0918722  48.2639885   8.1165260  40.8994532
  48.9884567   8.6786598  39.6952391  95.5384763  93.7813134  46.3885069
  96.2297495  94.2688883  46.8364382  94.7244700  94.1529406  46.7283821
  39.4240999  18.8508582  25.2006745  38.8846493  18.4574926  25.8865952
  39.3850112  19.7912395  25.3749895  13.7403738  21.4891458  41.3253593
  13.4817624  21.2504840  40.4351902  13.2106781  22.2596574  41.5302134
  56.1846781   2.4504891   8.4941226  56.0849857   2.0759250   9.3693334
  55.2950287   2.4762589   8.1418610  55.3076315  13.1824553  30.8917928
  55.6801462  13.7636435  31.5548801  54.9480534  13.7733471  30.2301383
 106.0648783 100.1834961  47.8797960 105.8136161 100.6582206  47.0874977
 105.6789811 100.6895839  48.5947752  15.8650708  14.4266820  43.7589550
  15.8589756  13.8653898  42.9836226  15.6479967  13.8384438  44.4822025
  70.1660919   5.9759861  39.5818973  69.5608568   6.1956853  40.2901697
  70.6157255   5.1879179  39.8868775  53.3212368  90.7970864  20.0565743
  52.5745193  90.2961857  20.3848052  54.0013305  90.1409990  19.9040723
  92.9512691  63.9874988  84.7297892  93.7052059  64.2627602  84.2082113
  92.1966934  64.3652564  84.2779657  63.2533216  22.2062182  51.3012743
  62.4365282  22.7025867  51.3532543  63.0403280  21.3540268  51.6815853
  17.2616756  19.9754691  59.5888042  17.2167921  20.9014058  59.3503618
  18.1451166  19.7059846  59.3375254  61.3373756  24.8053384  16.3184643
  61.4801073  24.5813131  17.2380686  60.4360294  25.1260090  16.2871754
  65.8491659  12.1719027  58.1931353  65.3801584  12.5060070  58.9577484
  65.1586771  11.8992794  57.5888777  26.7409754  12.8136277  39.0573835
  26.2994814  13.6106014  39.3508935  26.1238241  12.4084651  38.4481215
  51.9856358  10.9061921  25.4544163  52.6254272  10.6717956  24.7821355
  52.5029564  11.3272369  26.1409521  41.1651182  25.1629066  18.6420715
  40.5123949  25.0883865  19.3382287  41.5679264  24.2957282  18.5975957
  41.4090824  36.3423848  32.4442863  40.6669807  35.7402492  32.3899412
  41.1010218  37.0519066  33.0081224  77.2008181  38.0601645  23.2143378
  77.3262644  37.1322441  23.0156898  76.7498779  38.4107089  22.4462223
  99.4248519  35.7468772   8.2272220  99.6088539  36.4493179   8.8508815
  98.5951565  35.3736520   8.5247779  39.0547562   9.9806440  82.0113277
  39.4673181  10.1242101  81.1596107  39.5869803   9.3002093  82.4236107
  15.1499502  86.8890018  62.7542830  15.5123083  87.7557201  62.9379320
  15.9169523  86.3319845  62.6213408  41.4561605  19.9510634  75.3066444
  41.9534063  19.2393398  75.7096720  41.3440657  20.5922723  76.0084438
  48.3441448  24.9285913  47.6601076  48.2418919  25.8267736  47.3453903
  49.2883110  24.7728252  47.6372576  52.8357506   3.5496125  63.0534220
  52.6339626   4.4786793  63.1645489  53.4197283   3.3424199  63.7829924
  13.8794509  89.7798807  52.4929047  13.4770004  89.7466178  53.3607531
  14.8152915  89.8812205  52.6665974 102.3205757  32.6102495  61.7303848
 101.9615459  32.3126936  60.8944464 102.8355694  33.3856869  61.5074348
  46.2170458  22.7279258  65.4157734  45.8446646  23.4450746  65.9288645
  46.6686630  23.1610060  64.6914005  37.9497457  33.8190413  76.6528177
  37.0396733  33.5439682  76.7638826  37.8903031  34.7112584  76.3112831
  36.7333484  52.7975893  40.3951645  37.1902871  53.6308289  40.5098343
  36.8262458  52.3553753  41.2389946  35.8133793  13.7241149  29.8734450
  35.7253456  12.9263341  29.3518853  36.3114357  13.4524941  30.6444168
  77.9537725  75.1559394  87.6429947  78.8458681  75.3569453  87.9258344
  77.4811315  74.9710458  88.4545702  50.2272089  64.2086138   0.7930070
  50.6430467  64.8350777   0.2006799  50.7163270  64.2919470   1.6115743
  60.9111595  47.7892351   1.9312683  60.8378983  47.7725554   2.8855148
  60.0477743  47.5173950   1.6199799  35.0867939  15.7791066  26.7939734
  34.6383071  15.9021616  27.6306033  36.0010982  15.6262624  27.0325518
  34.7229902  98.1016285  22.2429347  35.4365436  98.7353499  22.1689749
  35.0257818  97.4756984  22.9007792 103.4537538  90.0881190  49.2826414
 104.0613039  90.0491185  48.5440016 103.8753231  89.5686156  49.9672079
  21.0525552  85.3580505  52.1686220  20.4369060  85.7051713  51.5230894
  20.8115665  84.4359846  52.2577858  40.4082823  21.3365674  44.9682045
  39.6703053  20.8391213  45.3205824  40.1136637  22.2471261  44.9860096
  70.6587791  27.9678893  33.8263845  71.4254475  27.3968625  33.7775517
  70.7299900  28.5309005  33.0555534  60.1424599  16.2687707  28.9223909
  60.8068800  16.3231397  28.2354999  60.5307722  15.6994402  29.5867038
   3.6459867  80.1421005  44.8923635   4.0436975  79.8958022  44.0572643
   4.3630926  80.0887448  45.5241489  67.9519558  36.8430400  35.7282782
  67.3237991  37.4248910  35.3003788  67.4193144  36.1241174  36.0683966
  85.7733250  19.4199085  80.3666210  84.8524570  19.6787608  80.3317165
  85.7769203  18.5078597  80.0761223  41.7668104  44.7110653  61.7394638
  42.2987938  44.4973421  62.5059795  42.3522758  45.2155542  61.1747026
  51.6864061  20.9669805  44.0080786  52.3674631  21.0211706  44.6784925
  52.1108723  21.2806988  43.2095528  32.2873473  47.4749374  44.7788239
  31.6041398  47.9926634  44.3528938  32.9274797  47.3077583  44.0870810
  28.7863278  31.7757583  48.4739208  29.6547103  31.7414784  48.8751316
  28.3270860  32.4639535  48.9552879  24.6145010  43.8369608  40.7063055
  23.9644194  43.1873751  40.9739923  25.3939414  43.3229446  40.4953766
  58.1466675  20.3697062  42.5519943  57.8234863  19.6190000  43.0502176
  57.5026083  20.4891610  41.8540382  24.8642683  36.2800050  68.6271572
  25.3541017  36.1206102  69.4339371  25.4606676  36.0122442  67.9279852
  34.8678207  46.6961288  48.4697580  34.2865944  47.3935080  48.1663227
  34.8162365  46.0272932  47.7869511  96.5475639  82.2692544  28.9834595
  96.8661316  82.6154656  29.8170567  97.2643073  82.4270887  28.3689713
  10.1384441  86.2125010  35.1848459   9.7769872  85.7087786  35.9141254
  10.5862752  85.5624539  34.6434426  62.3174763   4.3454856  36.5096259
  62.9010916   4.8391739  37.0857334  62.8271818   4.2108795  35.7106805
  21.3932967  24.9699259  18.5443139  21.3907099  24.4711137  17.7273607
  22.1316767  24.6149778  19.0393281  33.8935637  43.4840584  19.4934535
  33.6524940  42.9756498  18.7190926  33.0721354  43.8789082  19.7860003
  97.8411635 100.6641275  14.6398723  97.2876724 101.4442961  14.6049953
  98.1592592 100.6362814  15.5422425  20.8033124  85.6091852  65.6477928
  21.5497343  86.0288829  66.0755062  20.1823131  86.3216896  65.4963589
  39.0170574  16.4105177  57.1461344  38.6574268  15.6946099  56.6223288
  38.2635283  16.7626917  57.6198387  17.6776735  89.3877763  76.8192291
  17.1847478  88.6044366  76.5750217  17.4220125  90.0435597  76.1705256
  69.4002914  26.9825315  24.1206598  69.7020149  27.0825839  23.2177830
  68.6768579  26.3583350  24.0636563  57.7277184  26.8476415  51.4166546
  57.0964003  27.5486851  51.2547588  58.5746431  27.2920632  51.4545822
  52.4898052  15.5455458  15.7854021  51.9638681  14.7890139  15.5260193
  52.0861816  15.8505893  16.5979719  62.1081305  24.2214537  26.3011122
  62.1417999  23.2781243  26.4599514  61.3666439  24.5261002  26.8242049
  28.3971635  91.1353893  32.9322147  28.6703388  90.9446890  33.8295674
  28.3266250  90.2764673  32.5156713  36.9708292 101.0261632  69.3058014
  36.7537252 100.1087824  69.4716644  36.4268772 101.5162736  69.9223614
  60.3166246  12.2801852   2.4071220  59.5524645  11.8603659   2.0121002
  60.3373766  13.1545305   2.0181218  37.0791149   4.6419704  29.4326758
  36.6869593   4.0774086  28.7665558  37.4794674   4.0352112  30.0554037
  30.4006124  28.1673241  39.5010328  31.0907888  28.0097365  40.1452780
  30.4806614  27.4416995  38.8819242  96.5690072  78.0094297  38.8862848
  96.3491758  78.1476123  39.8075962  97.4321850  78.4101159  38.7833071
  81.0013390  25.4188085  51.5665197  81.5385056  24.6361828  51.4433241
  81.2592506  26.0012388  50.8520365  86.8838557 100.9561211  46.0440254
  87.4658962 101.1370500  46.7820787  86.3616343 100.2062694  46.3290453
  54.0016508  25.7354832  41.2956524  54.4000816  24.9615097  40.8975935
  54.4183636  26.4743161  40.8521318  46.5181494  45.9448290  32.4640203
  47.2777748  45.6173277  32.9456234  45.7667494  45.6879997  32.9985023
  92.0264467  88.3339293  33.1529689  91.4955231  89.1231687  33.2599902
  91.4557119  87.6207227  33.4390259 104.5630630 100.0621665  43.9019394
 105.4533680  99.7318103  44.0221691 104.4270953 100.6578716  44.6387434
  52.2110224  44.0753031  42.9703569  52.7966356  43.6288643  43.5819006
  51.6224575  43.3882999  42.6575565  78.9066839  11.7447770  25.6880999
  79.3938875  12.3663521  26.2289405  79.5423365  11.0607183  25.4777646
  58.5050774  45.3700876  42.9748964  57.7296877  45.3387880  43.5352755
  59.1826487  44.9185324  43.4781075  54.9559736  47.4994516  42.0167160
  55.2226353  48.4120512  41.9058895  55.6598568  46.9932938  41.6110277
  43.3952856   4.0456158  50.5991411  42.7206516   4.3073291  51.2257242
  43.6871767   3.1872278  50.9060621  37.8462362  32.0934057  49.1089630
  37.4955869  32.2983837  49.9757147  37.2655678  32.5513697  48.5012388
  59.0825510  21.7518783   7.4521452  58.9442492  22.0584655   6.5559816
  59.9891758  21.4450550   7.4630874  58.9838934  36.3476896   4.5779306
  58.0578756  36.3536310   4.3356657  59.1288662  37.1989179   4.9909997
  80.3495407  16.1263669  39.4943285  80.0134945  16.7219257  40.1641130
  79.9084473  15.2951765  39.6698070  93.3165359  47.3242283  73.8366127
  93.9530182  46.8286991  74.3519592  92.8661346  47.8746367  74.4772577
  82.0121098  14.1724598  47.5803328  81.2914848  13.6873794  47.1783066
  82.8010654  13.7186205  47.2840023  91.3930130  54.0084076  18.2771742
  90.8548355  53.3302259  17.8689206  90.9736156  54.1705942  19.1221797
  69.3952799  37.3041391  18.0573976  69.1966486  36.4118671  18.3413517
  69.1338205  37.3263359  17.1368659  74.2915535  39.5917654  18.9449441
  74.1319847  40.1089573  18.1554604  73.8157177  40.0544977  19.6346474
  58.0790186  26.2447643  19.4257319  58.7235165  26.7963934  18.9823782
  57.5865889  25.8335447  18.7153506  62.3629999  19.8674095  16.5469658
  62.8402138  20.0417423  15.7357264  61.4974213  20.2496982  16.4025474
  51.5193558  26.3236094  44.0350437  52.1103668  25.6370163  44.3441200
  51.5821218  27.0103693  44.6988630  57.8020430   0.2825383  27.3790598
  58.4903812   0.7775277  26.9347572  56.9858503   0.6485370  27.0383167
  33.4415531  12.3830330  51.9071054  32.5815201  12.1319044  52.2440195
  33.2507849  12.8937638  51.1203432  66.3501263  33.0121827  40.3597450
  67.2775078  33.1610370  40.1752615  66.2410164  32.0638704  40.2888393
  64.5749760  13.8835907  54.4228268  63.9714050  13.2199717  54.0888453
  65.4160213  13.6665237  54.0206432  42.8069258  29.4706631  46.6724682
  42.8637648  30.4029441  46.4630604  43.5450125  29.0755200  46.2084436
  20.8995414  19.6671546  14.9237525  21.5913677  20.3170204  15.0473773
  20.0896788  20.1773834  14.9192476  18.9082253  34.9782324  69.5255089
  19.2607248  34.9694943  70.4153919  18.7311101  35.9018302  69.3471050
  35.9400344  43.2251310  49.8064280  35.5814862  42.7417278  49.0621185
  36.4402819  43.9385271  49.4101381  57.5262594  32.9258513  37.6795840
  57.1271181  32.1250796  37.3394608  56.9413900  33.2043576  38.3842802
  53.6926222  42.9530764  45.1019287  53.9642334  42.3091984  45.7560492
  52.8456783  43.2703304  45.4154110  16.0723392  93.1455190  21.8620896
  15.6321136  93.5378850  21.1081100  16.9978658  93.3533794  21.7339420
  10.7312024  46.0818338  63.9740038  10.1119661  46.1509895  64.7006369
  10.2531517  46.4238596  63.2185459  22.9388515  93.8551719  37.4470639
  23.0778400  94.5866222  36.8454862  22.2970954  94.1821802  38.0774975
  47.0997238  24.2901587  30.0326777  46.2576532  24.7359180  29.9407673
  46.8756914  23.3602881  30.0698447  65.6873369  18.4867215  67.6881075
  64.8029518  18.8196886  67.5357008  65.6354809  17.5576770  67.4635649
  45.8829403  29.7557378  30.1850438  45.3797245  29.1044402  30.6737304
  45.4312420  29.8257113  29.3440318  20.9264461  95.4676677  39.1030288
  20.2822773  95.8287586  39.7120357  21.5616647  96.1731083  38.9802027
  59.2187548  27.5438738  38.2109475  60.0180101  27.1237445  37.8932762
  58.7224865  27.7453184  37.4176192  60.0912666  28.9048934  66.0047245
  61.0416698  28.8927841  65.8914709  59.9290323  28.3038998  66.7318535
  64.9914265  22.8744030  20.0805330  65.6713390  23.3058047  19.5629954
  64.4311619  22.4480176  19.4320512  77.3303509  28.9665318  55.7225466
  76.6265631  28.5443211  56.2151432  77.8067207  28.2421541  55.3168631
  58.5369349  30.5570006  49.2396832  59.2846823  30.9152555  48.7613964
  58.4597969  31.1130857  50.0149584  32.8748313  93.3174718  52.3718119
  33.1627504  92.5441266  52.8568602  33.6103145  93.5265882  51.7959929
  44.4892025  25.3710103  18.9075541  44.0736055  24.6181130  18.4872484
  44.3912792  25.2060485  19.8453343  26.6166019  31.3849926  43.3144951
  25.8504820  31.9577050  43.3504534  27.3600149  31.9836640  43.2426596
  82.1947765  26.9104028  34.1932011  81.9825363  26.6984749  35.1021957
  81.3446331  27.0377564  33.7721753  61.4872885  18.3159602  34.2212510
  61.7138529  17.7988827  34.9942517  60.6608200  17.9414666  33.9163923
 100.0930595  34.5554781  30.1146650 100.5190372  34.9441743  29.3506694
  99.6593571  33.7728024  29.7747278  19.3075363  93.3621437  32.6394248
  18.8219015  92.7397878  32.0980740  18.7962095  93.4279943  33.4459233
  82.9372311   5.0466275  24.4733000  83.7560940   4.8095042  24.9085689
  82.2597790   4.8743615  25.1272249  60.1524401   9.4458956  28.2457495
  59.7035933   9.1286582  29.0294147  61.0815954   9.3071878  28.4292245
  29.3822122   2.8467265  45.8308935  28.9793968   3.7150347  45.8274555
  30.2991223   3.0071741  45.6078196  15.4151384   0.8801209  74.4067329
  16.2335531   1.2630020  74.0907746  14.8827497   1.6324984  74.6650487
  56.9700003  19.5846546   4.2676333  57.0131588  18.6755383   4.5640737
  56.8667459  20.0940323   5.0714386  70.3676605  41.6602564  15.8465230
  70.8835030  40.8600140  15.9452581  70.6672621  42.2275209  16.5569293
  63.2972670  27.3312736  24.9136782  62.4836302  27.1573305  24.4404221
  63.9886618  27.0696425  24.3056059  11.6149704  99.4931633  22.5839424
  11.8167440  99.5562037  21.6503763  12.3049871  99.9992975  23.0128264
  34.5395803  49.9996090  49.1806746  33.9009833  50.5939484  49.5746136
  34.0778708  49.6098423  48.4382915  36.5424387  91.3570447  38.7981462
  35.8575479  91.8175472  38.3132792  37.0917884  92.0539839  39.1569209
  88.5945988  27.4587226  46.7168379  87.9740047  27.5486565  45.9936428
  88.2904053  26.6899967  47.1992874  91.4304447   7.3320276  79.0492296
  91.3583183   7.4000114  80.0012875  90.6728745   6.8082935  78.7884283
  23.3162379  39.2860031  47.2099733  23.4902811  39.3840694  46.2738514
  24.1410041  39.5244765  47.6332045  69.7643757  27.4851775  36.4516521
  69.9864912  27.9521036  35.6461239  69.7542429  26.5621376  36.1984229
  54.6437597  40.1300859  46.5677786  54.1190290  39.7624564  45.8566284
  54.0153265  40.6138039  47.1038008  56.9654465  13.9391148  23.4442544
  57.3158455  14.5438230  22.7902055  57.7352667  13.4861875  23.7884450
  54.3591452  16.4125872  48.3748579  53.6954832  16.6227019  47.7178717
  54.7739172  17.2521162  48.5733223  27.4684429  30.0333667  70.7526922
  27.7193642  29.4728661  71.4869308  26.7842603  30.6009817  71.1075687
  78.8179159  72.5876945  81.0985470  78.8976478  73.5090821  81.3453722
  77.9732704  72.5316661  80.6517058  49.3538237  24.8410463  50.9181404
  48.6562920  24.3533897  50.4800987  49.0688801  25.7540083  50.8788824
  54.4233322   1.4908476  24.9866104  54.8546839   2.1218131  25.5628490
  54.8231316   1.6371430  24.1292930  49.4508410  46.6031170  24.1224051
  48.5992432  47.0306015  24.2133379  50.0621414  47.3203039  23.9545274
  73.7902737  14.1612387  27.4540353  74.1409683  14.9776018  27.0979500
  73.3239031  13.7607229  26.7203355  59.3095684  25.2372193  28.1411004
  59.6921301  25.0749683  29.0033937  58.8147306  26.0496354  28.2476330
  28.3265487  99.3237285  52.8845501  27.8615181  99.8072729  52.2017908
  28.4175865  98.4386785  52.5315189  55.0640917   5.3153950  25.1331449
  54.4982147   5.7721007  25.7555866  55.8972120   5.2173668  25.5941582
  25.3308487  38.0420446  56.5900898  25.3205967  38.9759183  56.7998743
  24.4420576  37.7434945  56.7828321  17.5913060  47.7306271  42.9731083
  17.5773418  48.4062433  42.2951841  16.7336833  47.3102331  42.9099941
  61.1512804   3.4996185  23.9406753  61.8450642   4.1393661  23.7806201
  60.3719378   4.0288579  24.1102767  38.3204985  29.1282964  38.0559874
  39.0054369  29.1447020  38.7244344  38.7296104  28.6994863  37.3043346
  24.3078987  93.8238931  56.6347790  24.6059124  94.4474769  57.2970152
  24.3217317  92.9767043  57.0801020  51.1364365  51.1492872  39.9398303
  50.8838272  51.7303753  39.2223668  51.8996859  50.6765938  39.6078014
  38.8668084  17.5765705  54.5429516  39.5610237  17.0679235  54.9619722
  38.9991546  18.4697235  54.8607492  64.3434572  26.7057633   1.2827532
  63.6080599  27.3108172   1.3793683  63.9849615  25.8522606   1.5261586
  27.2544948  98.8558895  35.4777670  26.4269344  99.1612247  35.8494449
  27.9012481  99.0236018  36.1631966  29.1999602  14.3309772  41.7093277
  28.5490513  14.9927783  41.4757299  28.9022446  13.9893460  42.5524664
  23.7295008  23.2994485  59.1738844  23.6302185  22.8278255  60.0008965
  24.3852401  23.9717889  59.3588114  49.4316006  46.8128538  30.4944777
  50.0279951  47.4045181  30.9532571  48.7572813  46.6038513  31.1408901
  35.2086353  42.6834011   0.9287020  35.1120210  43.5930586   0.6468867
  34.5125556  42.5572062   1.5735093  66.3498449  30.3823256  40.2409744
  65.5701351  30.1927638  40.7628489  66.4709282  29.6024704  39.6993136
   7.0824146  42.5118256  65.5812073   6.6495699  43.3066654  65.2695847
   7.9844719  42.7819967  65.7530594  66.7374229  39.1248250  30.1486850
  66.1600733  39.3215656  30.8863807  67.5584221  38.8466382  30.5546427
  49.8019505  47.3221636  42.3823643  50.7007408  47.2806931  42.7089930
  49.6382380  48.2558537  42.2495031  39.3231940  13.1831944  29.5142889
  40.0894070  13.1133425  30.0837374  38.8126683  13.9021027  29.8868036
  76.1975384  24.3616533  43.0330849  76.8939734  24.8287582  42.5715446
  75.4339981  24.9338579  42.9567862  64.6843910  18.5838032  73.4608889
  64.6508789  19.5255625  73.6288118  64.8833656  18.5139275  72.5272083
  30.7067585  16.0999060  50.7334423  29.9679637  15.5323684  50.5136347
  30.4260039  16.5638387  51.5222263  25.6959383  88.9046104  58.6226463
  25.3385488  88.5281558  57.8184175  25.5063669  88.2524926  59.2972136
  58.4515858  26.8564320  54.2770243  59.1668081  26.9670582  53.6505699
  58.8881063  26.6746926  55.1092815  49.6825695  28.4632778  61.3893843
  48.7823009  28.1928182  61.2088203  50.1549530  28.2808495  60.5771017
  79.9480677  22.3671055  29.7177339  80.5664730  22.8749871  30.2429557
  79.3016911  22.0502830  30.3486490  99.0371990  53.3149672  47.7612972
  99.3433571  53.3451509  48.6677122  98.4626865  52.5500822  47.7278900
  30.7295966  59.5402670  46.1839676  30.3015304  60.3260136  46.5239620
  31.1131239  59.1235304  46.9556332  28.7770557  34.8611927  31.2288904
  29.5106673  35.1505351  30.6863713  28.0334568  35.3804874  30.9229112
  51.9247103  15.2931345  38.5625958  51.0130787  15.4479098  38.8099885
  51.8826008  15.0361490  37.6414990  26.9013111  96.2722714  56.0773802
  26.4723341  97.1175704  55.9444141  26.9608585  95.8933259  55.2004051
  76.8851614  21.6413403  26.1302161  76.6135836  21.6066289  25.2130079
  77.3642969  20.8244300  26.2692213  52.6340008  27.3888564  49.4670677
  53.0623865  27.4746776  50.3187418  53.3155155  27.0446301  48.8897657
  80.4914141  84.2853683  79.4973081  79.6809339  83.7788337  79.4446474
  80.5943966  84.6639650  78.6242157  72.2818995  37.0137835  26.3289952
  72.6634598  37.8634286  26.5497875  73.0011034  36.3920331  26.4403677
  79.8986435  24.3443632  27.6277351  79.4327784  23.7747073  28.2398582
  80.6336689  23.8143778  27.3193860  50.5609941  27.9949164  17.4539077
  50.0587368  27.5226784  16.7898560  49.9118328  28.2477641  18.1103313
  77.8067370  93.9831734  22.8312135  76.9749685  94.3575848  22.5410247
  78.4536930  94.3334956  22.2188783  41.1610460  14.5954990  54.6304226
  40.2171373  14.5587873  54.7850895  41.4887905  13.7543404  54.9486446
  50.5840778  22.5631881  54.0000391  50.8989716  22.7985477  54.8727846
  51.0783291  23.1286120  53.4065390  54.1667700   9.6789092  80.4792881
  54.6806526  10.4608786  80.6809807  54.2402887   9.5823044  79.5298195
  40.3327990  34.1375136  53.1404638  39.7398376  34.8862386  53.0768919
  40.9821892  34.2872667  52.4533701  20.8959079  12.8330541  36.8337846
  20.4519773  13.4928417  36.3010192  21.8011212  12.8435290  36.5228009
  67.9611349  30.0058079  18.3465230  67.0306301  29.8512769  18.5093355
  68.2131767  30.6592155  18.9990306  41.3138676  33.3992743  55.6471252
  41.0237408  33.5441923  54.7465420  40.6146336  33.7687111  56.1864042
  28.7883925  28.1899977  36.0109377  28.1439090  27.5627708  36.3387465
  29.5283461  28.1097674  36.6128230  98.2693291  30.7770181  15.1772571
  97.4577141  31.2639666  15.3200996  98.9343739  31.2753320  15.6522536
  32.0388937  24.5424819  29.1080236  32.1557426  25.3923869  28.6834717
  31.6689110  24.7519875  29.9656081  91.2433910   5.1566905  68.8689661
  90.8738804   5.2927905  67.9965162  90.7942200   4.3792441  69.2007065
  13.8018020  46.4663267  77.3969751  14.1849216  45.5964314  77.2841364
  14.0086825  46.7037385  78.3008939  28.6088657   7.5570643  48.4402514
  29.0176082   7.6796550  49.2970705  27.8329945   8.1172025  48.4626627
   5.6346218  99.9102882   3.3862674   6.5498725  99.9147374   3.6664909
   5.2469818  99.1655982   3.8460526  85.5007458  11.0299039  55.6576443
  86.2334061  10.7462144  56.2044239  85.6848240  11.9501281  55.4691410
  95.9571075  79.6505802  85.7787630  96.3172245  79.5157664  84.9021953
  96.7147302  79.8822969  86.3159239  59.5765543  35.8419728  42.0637608
  59.9280548  36.1890769  41.2438822  59.9998236  34.9892974  42.1638584
   1.8885557  94.7423369  28.7956524   1.5911142  93.9598823  28.3314061
   1.9305150  95.4198200  28.1207538  52.6335907  49.1074324  12.0355260
  53.1446838  49.9116659  12.1261954  52.5264502  48.9969635  11.0907781
  61.0772324  14.4979954  53.0676413  60.8568382  15.0663602  53.8056278
  60.2369356  14.3138707  52.6478434  48.9123154  33.5203791  51.3071537
  48.4839344  34.0191483  50.6114912  48.9883471  34.1391301  52.0335150
  58.5853767  48.2674551  38.3429074  59.3085766  48.0280638  37.7633286
  57.8971243  48.5745811  37.7528119  51.4670181  52.8705215  27.5705218
  51.6817522  53.3139324  26.7498469  50.5107069  52.8299809  27.5777507
  60.8536673  48.5359335  34.5034289  60.1186943  48.4370899  33.8982201
  60.8576727  47.7237797  35.0100112  34.0837455  62.0425797  22.8481174
  34.2336178  61.6087389  23.6880875  34.6792841  61.6024590  22.2415996
  61.6250038  83.6265945  31.4975309  61.8493748  84.0541840  32.3240066
  61.6926384  82.6905823  31.6860294  67.1151733  59.1211843  26.5666533
  67.1380615  60.0671768  26.4224029  66.2394142  58.9530659  26.9145203
  63.9302778  58.9962959  24.4715786  64.1004658  59.3162966  25.3575063
  63.0592155  59.3314457  24.2590737  99.9111843  67.2933286  84.4260391
  99.7285080  67.9538744  85.0942757  99.3149090  67.5072795  83.7084633
  63.6619949  53.2987881  42.9870701  63.8808775  53.9489365  42.3195171
  64.4625616  52.7847481  43.0923605  31.4361373  11.7402397  85.1029435
  31.8527023  12.5292193  84.7562128  30.8610240  11.4433847  84.3977129
  54.1183186  50.1808786  39.4255185  54.7541571  50.7154417  38.9499378
  54.4910526  50.0887203  40.3023386  89.2089558  76.4085579  32.1151972
  90.0599003  76.0566282  32.3764753  89.3715668  76.8247223  31.2686777
  74.7101116  55.4148769   2.7084363  74.1763878  54.7457266   3.1369308
  75.3147554  55.7109404   3.3888653  61.9436598  19.2496896  20.8338594
  62.2366476  19.0364993  21.7198277  60.9978390  19.1037452  20.8527517
  84.6350002  84.2260742  41.2293720  84.4668770  83.5389709  40.5845070
  85.3848553  84.7061062  40.8779287  97.7812958  48.4596252  62.8102732
  98.6542034  48.8413763  62.9025984  97.3295021  48.6962318  63.6202955
  57.2275543  71.3829136  37.4770164  56.4000559  71.8217659  37.6742172
  57.6723480  71.3194084  38.3222151 100.7606983  59.1828299  60.3997850
 100.3852367  59.9867392  60.7589293 100.5583668  59.2207670  59.4649839
  81.7103672  70.3006124  20.0849152  82.1296215  70.2488041  20.9438539
  80.7878208  70.1120710  20.2569294  58.5470486  86.9150162  25.9634852
  57.8711510  87.3064995  25.4101849  59.2032719  87.6045704  26.0640979
  69.1753054  56.3156509  33.5583758  68.7356043  56.4926577  32.7267742
  69.6901512  57.1042061  33.7296867  78.9467669  74.6630907  43.9483404
  78.8453150  74.6450663  42.9967022  79.7924471  74.2437267  44.1070414
  64.8314428  56.0006285  36.3465047  65.4562283  56.6885614  36.1171126
  64.0587807  56.1918163  35.8148360  76.8202305  68.5369062  43.0633354
  76.0211229  68.2135868  43.4794235  77.4977016  68.4310913  43.7312222
  90.1506901  74.6098328  48.5839653  90.7145596  73.9982700  48.1103849
  89.3284702  74.6061087  48.0938959  60.2761412  56.8872595  14.5225775
  59.6863413  56.4294243  13.9236176  61.1400747  56.5201950  14.3351924
  48.3747292  96.9672108  49.7302103  47.4224186  97.0274639  49.6546555
  48.5254765  96.6700649  50.6275463  81.3554382  48.9922523  18.0992186
  81.9038391  49.1802073  17.3375368  81.5081882  48.0650473  18.2813895
  71.0125256  56.0116959  49.4342327  71.0805702  55.0969267  49.1607380
  70.0752640  56.2029409  49.3996525  82.3923588  97.5488281  33.7184405
  83.0142784  98.2691479  33.8213539  81.6447544  97.7984333  34.2615938
  76.5577459  55.1094246  31.4318967  75.6620789  54.7869396  31.5320063
  77.0382595  54.7110605  32.1575999  77.3067188  30.3404331  16.2958324
  76.8913078  29.9959207  15.5052781  77.6558065  31.1915994  16.0314715
  75.0198698  60.4050016  35.4216957  75.6565714  60.4211283  34.7071433
  74.3002367  59.8685265  35.0891995  83.7780190  53.7476635  10.4373050
  83.1090736  53.4164286   9.8381132  83.5331249  54.6605349  10.5886912
 102.6838493  67.5238228  51.7600107 101.8344975  67.3944235  51.3379908
 102.5420475  68.2514715  52.3655272  90.0512314  75.7176781  58.4851694
  89.8345757  74.7898722  58.5771990  90.9652996  75.7788515  58.7626123
 101.6955757  42.2784424  52.0829248 100.9686470  42.6676083  52.5690985
 102.3811626  42.9461575  52.1019697 107.3269137  14.7142356  41.4840460
 106.9715508  14.0090411  40.9430742 108.2495888  14.7657721  41.2345600
  81.3017750  98.5699558  22.4274254  81.7958164  99.3298721  22.1197271
  81.8057060  98.2422733  23.1723499  21.5462255  89.5013142  81.9603443
  21.2027931  89.9159241  81.1688995  22.4933338  89.4735909  81.8245220
  66.3590574  67.0031261  48.6056662  67.2541904  66.8520689  48.9092255
  66.4477968  67.6611662  47.9162121  82.7849007  65.7564068  51.2121630
  82.0716953  66.3847208  51.0991335  83.4958839  66.1014080  50.6720638
  81.6425037  94.6236134  33.6810374  81.3479233  94.3559837  34.5515704
  80.8354568  94.7318935  33.1778669   6.2715705  90.4758835  60.2245426
   7.1401485  90.1016045  60.0771761   6.4319976  91.4110851  60.3506565
  58.3641291  83.5061550  25.3547692  57.4404097  83.4725666  25.6034493
  58.4706640  82.7875137  24.7315168  68.6568689  75.3130674  64.9438143
  69.2222977  75.9661245  65.3561735  68.2702971  75.7688332  64.1961050
  44.5117855  90.5412102  15.4169655  44.8637533  90.1831150  16.2319040
  43.9188290  91.2381077  15.6979620  84.9318123  52.4020052  32.4700451
  85.0182438  52.2381735  33.4091520  85.7171535  52.0124722  32.0856810
  34.2568866  16.3137756  86.9339236  34.1167919  15.7373940  87.6851842
  35.1720420  16.1728607  86.6913010  53.8363981  53.3181238  29.2805243
  53.1293058  53.7594938  28.8099480  53.4261847  52.9981756  30.0840116
  92.3008633  45.5997324  58.0499554  91.7554665  44.8146820  58.0001736
  91.6996861  46.2919760  58.3249474  49.1522503  99.1216278  51.3733864
  49.0271521  98.5205841  50.6389999  49.4202518  98.5592937  52.1001482
  82.6013565  73.1363201   8.3632410  82.0877743  72.5468779   8.9155340
  82.7218914  73.9211321   8.8978171  86.6596413  47.3427010  52.0922470
  86.6293526  47.1339607  53.0259180  86.2944031  48.2254410  52.0322037
  85.8582401  82.4759197  32.7566051  85.5345917  83.1551456  32.1648836
  85.3039837  82.5510025  33.5333943  82.3744583  47.3777676  42.9190493
  81.5473652  47.4610806  43.3935976  82.1684551  46.8098259  42.1765947
  55.0014496  84.0096188  46.4655972  54.4150639  83.3464432  46.8297100
  54.4385958  84.7683334  46.3114023  13.6589225  78.6812878  40.6618023
  12.8363689  78.7109041  40.1731825  14.0275081  77.8216267  40.4584122
  81.7128468  71.3955593  46.7426729  81.9602203  70.6930876  46.1413670
  82.5259972  71.8765545  46.8965387 102.0977211  66.6882849  60.6547070
 101.4692020  67.0566368  60.0338125 101.9507027  67.1785021  61.4635944
  66.5156174  99.7770214  62.1610308  65.7737827  99.4453812  62.6669264
  66.3850164 100.7249928  62.1377850 106.7671013  35.8032870  37.7859759
 106.8430233  35.7617640  36.8326950 105.8282852  35.7242513  37.9551435
  20.0421039  12.1998160  43.6374855  20.5972187  11.4652675  43.3757305
  19.9594204  12.1110957  44.5869684  63.4117317  54.8016882   4.0321401
  62.6944113  54.6803617   3.4100741  63.8682461  53.9603901   4.0383527
  77.8273344  19.8122740  12.5218594  78.6724997  20.2242827  12.3424733
  77.3500776  19.8745978  11.6944706  82.9430580  50.1654434  21.0539675
  82.0165253  49.9758482  20.9062123  82.9426003  50.8845854  21.6856837
  73.0516291  68.5933256  61.9615650  73.8564396  68.0792284  61.8966532
  72.6846123  68.3571482  62.8134775  56.5362310  98.9363480  47.1551657
  56.1701870  98.3981514  46.4533138  55.7812262  99.3946743  47.5241232
  69.2557192  97.1267891  10.6360376  69.6180248  98.0060673  10.7448816
  68.3112335  97.2642326  10.5633056  73.2780170  48.2820606  31.6480970
  73.1972361  47.4520397  31.1782312  74.2094421  48.3485222  31.8584800
  71.9422436  64.8401594  15.2030456  71.0374832  64.5299387  15.1655650
  71.9862747  65.5306911  14.5416355  85.3450012  51.4838982  55.5269432
  84.5484447  51.9041538  55.8511686  85.4943562  51.8827963  54.6697330
   3.9830287  72.4400377  56.7701769   4.5381816  72.8844261  57.4109268
   3.1631835  72.2762585  57.2362804  72.1304512  71.6144085  31.8894124
  72.9271841  71.1099958  31.7250657  72.2485256  72.4196100  31.3854814
  99.8246582   6.0749190  29.7351575  99.2944010   5.8913367  28.9596868
  99.4041308   6.8342822  30.1385856  70.7232094  79.2549944  21.0485148
  71.2634563  79.9903727  20.7594037  70.9487581  79.1404772  21.9716859
  75.6297731  75.7574892  29.8984027  75.1771307  76.5389872  30.2155876
  75.2585602  75.6015825  29.0299964 102.5186348  70.0330639  59.7354889
 102.3580265  70.9766006  59.7222090 101.6456509  69.6411610  59.7122669
  86.8305588  55.0915432  20.3903246  87.2415924  54.2411184  20.2352214
  87.4217319  55.7219172  19.9787736  68.7223959  82.8514099  43.7253094
  68.7849569  82.0693588  44.2736864  67.8520060  83.2043648  43.9099026
  55.6644011  70.8964777  29.8305678  55.3598595  70.0320196  29.5545197
  55.3015471  71.0089493  30.7091570  61.4332962  90.2592182  34.2048192
  61.0170507  90.1920986  33.3454776  61.9030857  89.4317245  34.3086743
  59.2993450  66.4481401  23.3518791  59.0082836  66.8372536  22.5271940
  60.0482082  66.9819164  23.6174345  67.5812626  17.0502353  16.9284832
  68.1116581  16.4034832  17.3939121  66.7988110  17.1528816  17.4702108
  65.4916430  73.2031727  30.0671840  64.8373270  72.7807665  29.5107007
  66.1798525  73.4780264  29.4613338   5.8864577  78.6114359  12.4326038
   5.7730659  77.6612902  12.4080646   5.0229247  78.9614439  12.2134435
  69.9493647  74.1935492  42.5575876  69.7020340  75.0512075  42.2119284
  70.1758194  73.6792469  41.7827034  68.6426258  67.2860432   6.3972747
  68.4890938  68.1555748   6.7668301  68.6305141  67.4228525   5.4499793
  80.8431872  12.1577304  21.9329357  80.8567770  11.6652434  21.1122680
  81.0457619  11.5077060  22.6057386  29.4971458   0.8120292  47.8137875
  29.0071670   1.3163321  47.1643019  30.2816860   1.3344424  47.9805517
 106.8181237   0.3203814  34.9821043 107.4299820   0.6385081  35.6459260
 107.3448952   0.2472728  34.1862416  62.9217911  72.6266623  60.9052181
  63.4686279  73.2663012  61.3613653  62.6803160  73.0588865  60.0860071
  61.1157990  62.9679012  55.1298571  61.4170265  62.0944929  55.3801489
  60.1715755  62.9494476  55.2858496  41.6463947  76.6264582  47.0732975
  42.2233534  75.8910465  46.8670845  40.9136534  76.5340805  46.4643764
  65.4359341  62.7939463  36.2696743  64.5320272  63.1086111  36.2568307
  65.8573103  63.3040285  36.9614029  67.9579830  76.8090868  36.7902899
  68.3995962  76.5957403  35.9682846  67.0978260  76.3960695  36.7142797
  71.8540192  44.1028023  55.0050354  72.0023632  43.1794739  54.8008394
  71.3386345  44.4312191  54.2683172  98.8889702  10.3779834  12.8740788
  99.6620902  10.0235980  13.3133113  98.9002188  11.3114779  13.0854881
  55.2248812  73.8902283  31.5090013  55.7212448  73.1640720  31.1314416
  54.3205309  73.7270594  31.2411141   4.0789588  67.0108843  45.2491570
   3.2980331  66.7533207  44.7592211   4.7846015  66.4895296  44.8664141
 103.0177212  78.9352465  31.5431523 102.1249199  79.0418291  31.8714285
 103.5209465  78.6502695  32.3059034   8.0548755   5.6400531  29.6460247
   7.1064369   5.7689231  29.6368289   8.2029812   4.9083369  29.0469551
  96.4425659  79.5529652   9.2802924  96.7582989  80.0172615  10.0555146
  96.1398888  78.7083054   9.6137160  88.6723709  63.8587189  52.7701569
  88.0785847  64.1419744  52.0748758  89.5291805  64.1923380  52.5040722
  51.5304947  95.7621288  72.7184200  50.8390522  95.8992100  73.3659935
  51.4805269  96.5295982  72.1485710  76.6401529  62.6290512  25.0728226
  77.0576668  61.7912483  24.8728156  76.0170746  62.4256563  25.7704115
  93.1862068  73.4849119  59.6834469  92.6993084  74.2712688  59.4368649
  93.3427048  73.0306578  58.8555574  87.1320343  66.9770908  29.7066498
  86.6147518  67.3481560  30.4214692  86.5187263  66.9149303  28.9743757
  89.2727661  78.6128426  29.6449804  89.7092915  79.1831732  29.0122104
  88.9648533  79.2064190  30.3298831  69.2969608  66.6864204  70.1061296
  70.0654125  66.9854259  70.5922508  68.7963676  67.4841690  69.9351549
  75.4324961  69.2952156  56.4851236  75.6989622  68.7838411  57.2491407
  74.4757843  69.2693424  56.5014076  73.1488895  94.5675564   3.6841831
  72.3065519  94.2142010   3.3981135  73.0041695  95.5117702   3.7454188
  87.4647903  56.1654091  47.6515818  88.2056713  56.6658401  47.3096848
  87.8643227  55.4079962  48.0792904  51.8250608  82.5622654  29.3308616
  51.4605904  82.3382187  30.1871300  52.3702097  83.3314419  29.4964147
  86.5207767  60.0021458  51.1062431  86.2835217  60.9256840  51.1900330
  85.9238529  59.6609735  50.4402781   4.9910052  74.2494440  47.8226852
   4.4086250  74.9282265  47.4816275   4.5007499  73.8529301  48.5428715
  98.1834507  87.0365238  41.0240841  98.8681126  87.6778507  41.2142658
  98.6593342  86.2509060  40.7546902  86.2546730  41.7390728  60.2316904
  85.5748177  41.5433931  59.5869160  86.0204124  41.2106276  60.9946442
  61.2698555  93.8999748  33.6880755  62.0885372  93.9053440  34.1840219
  60.5872393  93.8139915  34.3535614  94.1883667  15.7763141  58.7492418
  94.9582823  16.0744040  58.2648897  93.6002835  16.5315478  58.7525797
  55.4129410  75.3835869  60.6951380  54.5680714  74.9337053  60.6901598
  56.0134792  74.7608662  61.1047792   5.7942184  99.3522358  44.0422249
   5.2619155  99.4288921  43.2503796   5.6861003  98.4414959  44.3162632
  72.6605463  48.7980795  24.7913766  72.9531097  48.2677555  25.5325890
  73.0787325  49.6485806  24.9255276  72.5994873  71.6257572  55.9468651
  72.3036766  71.5554047  56.8544912  72.6312447  70.7215071  55.6345272
  97.2253513 100.0487137  62.7434778  96.5981865  99.3401432  62.5991488
  97.3794556 100.4133701  61.8719816  59.1936159  61.4412498  16.9128811
  58.3206654  61.7789745  16.7125678  59.6947050  62.2133780  17.1754885
  78.2926941  59.6730042  55.4546261  78.7694883  58.8865995  55.1891613
  78.9744711  60.3292179  55.5988312  83.3437157  74.6389818  41.0179329
  83.0932045  74.7974110  40.1077795  84.2379665  74.3017292  40.9649944
  86.1829185  34.3541098  61.7507744  85.3883266  34.5304942  61.2470531
  85.8650112  34.0569687  62.6033449  72.3034811  55.4607821  38.7594771
  71.8221188  55.5031824  37.9332042  72.8177643  54.6559715  38.6960340
  78.5907269  30.9299088  53.6938477  78.8166380  30.1932311  53.1259537
  78.3049011  30.5229688  54.5117331   0.2019103  59.5795250  40.9279919
   0.6163200  59.4626474  41.7828846   0.1233276  60.5281973  40.8276081
  92.7568340  69.9806166  57.7045298  92.0765018  69.5333052  58.2078028
  92.7230072  70.8874035  58.0092096  75.2518129  75.9520054  43.1120872
  75.6986475  76.3445377  42.3620892  74.3209743  76.0842037  42.9323816
  72.1912289  49.1951561   4.1039449  71.8057251  48.4976244   4.6341032
  72.9911327  48.8098812   3.7462452  75.1546669  56.3968134  38.4690571
  75.5308962  57.1807957  38.0689859  75.4334974  56.4373970  39.3838453
  59.1869736  72.5279856  23.5448027  59.5133686  71.6301823  23.4844160
  58.2394075  72.4461174  23.4368730 103.9482498  39.4829464  30.9534454
 104.5111752  40.0749350  30.4545426 103.0915165  39.9098349  30.9528422
  96.5824795  62.0888853  39.5673943  95.6765270  62.0713282  39.2588949
  96.6519165  61.3323545  40.1496935  95.8937073  68.2285118  62.8540802
  96.3579750  67.9051638  62.0819807  96.5587234  68.2491922  63.5422325
  95.0107574  85.2039242  31.7863512  95.6585217  85.5759239  32.3848867
  94.5119190  85.9587955  31.4740205  71.8997335  77.6272631  50.0113535
  70.9990168  77.3046970  50.0412035  72.2599697  77.2575045  49.2052889
  60.5088997  61.9366360  14.2554796  61.4249611  61.6693306  14.3304312
  60.0509930  61.4083767  14.9093103  92.6779938  55.1901484  25.9109640
  92.6091290  55.4097271  26.8400908  92.8233242  54.2441225  25.8985591
  78.9214325  67.5178862   0.9212669  79.4906378  66.7563343   1.0320634
  79.5240402  68.2554007   0.8254869  68.9276648  57.4994707  20.2557731
  68.1756163  56.9693756  20.5196786  69.0470457  58.1203747  20.9744263
  44.2643730  16.1955200  86.2202961  43.9412776  16.8414436  86.8484854
  43.6142961  16.1986958  85.5177161  77.1162319  52.0198917  35.9839702
  77.3539352  51.0966539  36.0697341  76.9478035  52.3081827  36.8810511
  62.8917074  76.7343569  50.2350235  62.4140120  77.4455023  50.6620026
  63.8135052  76.9741201  50.3300428  77.8677464  66.9938612  17.1134448
  77.8526545  67.0808315  16.1603236  78.3569193  67.7589607  17.4160480
  62.0983219  64.3381548  29.6963692  61.5393782  64.9639559  30.1570106
  62.9875708  64.6642685  29.8346376  65.3022099  69.2535305  37.7752686
  65.7629061  68.5243082  37.3602724  65.3345490  69.9571896  37.1271586
  83.5069180  68.2637215  54.5815563  82.6549625  68.4784842  54.9614048
  83.3972836  67.3793507  54.2321348  74.2064047  70.6250763  28.5520720
  73.7739229  71.4788866  28.5661793  74.3786955  70.4286146  29.4729137
  84.6322060  86.1711788  28.6494565  84.9217415  85.2936840  28.8992524
  83.6967278  86.0732555  28.4719348  74.0054226  69.7421074  26.0304809
  73.2368374  69.2217875  26.2645102  74.3261385  70.0842953  26.8649149
 102.0646000  62.9459763  12.8480995 101.3468647  63.3687210  12.3765397
 102.6198769  62.5790405  12.1601629  71.7451000  73.5947943  64.5282650
  71.8899488  74.0719748  65.3453016  72.4624252  72.9621696  64.4899702
  63.5310125  40.3777170   4.6818218  63.7162018  40.2318144   3.7541103
  63.0389214  39.6026325   4.9526125  57.9412174  84.9665070  29.8442507
  57.3394156  85.2698040  30.5240130  57.4314070  85.0119114  29.0353870
  57.1335745  92.2012138  30.9658027  57.8510857  92.3716450  30.3555870
  56.9006443  91.2856388  30.8119059  97.8419018  59.1944361  54.7746515
  97.3799133  59.2966509  53.9425707  97.1679020  58.9027643  55.3885651
  72.1099186  79.3493271  27.7098465  71.8914986  79.4388580  26.7822099
  71.4608431  79.8884201  28.1618524  62.6224136  82.0454788  25.4238391
  63.1844521  82.2471237  26.1719584  63.1343126  81.4303970  24.8986077
  17.7423461  63.7395906  19.2397594  18.3062633  63.0862522  19.6537364
  17.9506095  63.6795044  18.3074260  80.5747509  72.6963568  69.2724466
  81.2417126  73.0255413  68.6699200  80.0263309  72.1256971  68.7341022
  43.5049295  75.9243345  28.1185150  43.7564135  75.0347233  28.3666635
  43.9388990  76.0702467  27.2779131  98.9220333  36.1883545  46.2091970
  99.6817589  36.5313864  45.7387018  99.0098381  36.5404391  47.0949507
 107.5887394  96.1082935  58.4715271 107.8016376  96.9219017  58.9286423
 106.6476917  95.9968567  58.6066246  77.8482246  85.3048038  39.7356439
  77.8315783  84.9325752  38.8539433  76.9665432  85.1534843  40.0761890
  69.2094135  66.4960384  48.8543797  69.8146486  66.9336796  49.4530392
  69.6359825  66.5519381  47.9993057  81.5582657  87.7132320  62.5654078
  81.2380028  86.9187546  62.9925823  81.9860077  87.4007130  61.7681694
  74.5798922  69.1564512  34.0897703  75.0357008  68.5387850  34.6615744
  74.7252655  70.0109243  34.4959474  96.4717293  84.5043945  24.6003604
  96.2395382  85.3559113  24.9708176  95.6800842  83.9757156  24.7005248
 106.9613703  20.0519793  39.1412210 107.6068457  19.9462645  39.8400903
 106.7236908  20.9786647  39.1728735 100.5608273  69.4288063  74.5100403
 100.3958702  70.2513599  74.0491438  99.7015095  69.0114498  74.5701838
  84.2160511  63.3311701  48.2458639  84.8659134  63.0543709  47.5998878
  84.5835876  63.0595446  49.0869141  87.9080200  93.0222511  14.8534358
  87.4963093  92.2414684  14.4831586  88.7851810  92.7337551  15.1056170
  89.6076584  99.3844509  40.6157494  89.7792053  98.5497189  40.1798248
  89.1381836  99.1452789  41.4148903  84.1607094  75.0112867  31.8667078
  83.8141823  75.7862568  32.3089409  85.0337315  75.2728367  31.5740442
  82.5721741  54.6291113  53.8978624  82.5750065  55.5826616  53.8143730
  82.2438335  54.3158627  53.0550718  33.3718292  17.2207008  70.9960824
  33.2583372  17.7419935  71.7908185  33.7934248  17.8166328  70.3769260
  93.1075764  80.4969978  50.0628805  92.3392773  80.3846455  49.5031261
  92.8667641  81.2044716  50.6609774  40.0653545   9.6565288  52.5579739
  40.9318916   9.2510646  52.5884295  39.5336048   9.1303962  53.1551838
  40.0824308  89.1659832  33.3434224  41.0371876  89.1599464  33.2753706
  39.8964429  89.7867298  34.0479136  61.3861990  66.1956692  15.8263063
  61.5413809  65.3525448  15.4005289  60.4872751  66.4224339  15.5880904
  94.1364479  91.0091972  63.7445688  94.5204067  91.8782806  63.8607359
  93.4797382  90.9428692  64.4377995  50.4262439  20.8623164  74.3705702
  50.1202099  20.5881350  75.2350950  49.7425930  21.4505809  74.0499449
  93.8060188  48.8453484  22.1683192  93.7114906  48.7836170  21.2178016
  93.1089973  48.2883930  22.5150084 107.5270176  70.7989168  40.6103945
 106.9319820  71.2107658  41.2369251 108.2509899  71.4191437  40.5243492
  81.1926746  75.9161425  30.0624681  80.3048134  75.9748697  30.4152822
  81.3109207  74.9870539  29.8648739   9.3543800  59.9031734  40.2493763
   8.7493404  59.5105171  39.6201086   9.7485526  59.1566420  40.7005358
  87.9807568  77.6522493  56.2337065  88.6840916  78.2321882  56.5256262
  88.3065891  77.2725344  55.4176855   1.7388097  15.2642768  51.1230469
   1.8190567  15.0855010  50.1861191   2.4649231  15.8571094  51.3168192
 105.1042652  73.0798006  16.7952561 105.6361198  73.8270235  16.5213430
 105.1094246  73.1198883  17.7516019  83.4814644  68.4080601  38.1308317
  82.9687119  69.1731262  37.8700948  83.4799004  68.4334517  39.0876937
  96.7130184  83.9971733  51.3894939  97.0027924  83.5189915  52.1664143
  95.7600689  84.0333462  51.4721012  63.0415964  82.6839733  40.2288866
  63.8565254  82.7841473  39.7368622  62.6437855  83.5544491  40.2131796
  60.2405262  92.8883362  49.9514246  59.6657467  92.1323490  50.0712109
  61.1221457  92.5166798  49.9222851  89.1232967  32.1152997  73.0381680
  89.0530014  32.8696680  73.6231613  88.2174492  31.8489885  72.8808355
   4.8847659  97.9705429  37.2055817   5.2325996  98.5532188  36.5305018
   4.0024455  98.3005428  37.3754120  48.3700085  91.3311481  42.3814631
  48.1715584  91.0670567  41.4830685  48.2257652  92.2773743  42.3903608
 102.6362427   7.3545115  13.7414992 102.4675807   6.9088023  12.9113579
 102.2051390   6.8080943  14.3986261  53.4559536  69.4697571  25.3911877
  53.1361532  70.0327492  24.6862078  53.4646034  68.5913515  25.0109744
  81.5220642  67.8770447  16.0437548  82.4128437  68.2124424  16.1450016
  80.9845257  68.6590385  15.9181547  63.0730009  70.4731989  57.4584579
  62.5848055  69.6599770  57.5871611  63.5560608  70.5944872  58.2758808
  79.9261808 100.6826496  47.9719687  80.0058270 101.5196228  48.4295225
  79.9876738 100.9100628  47.0442104  87.2718811  78.3026457  24.4357872
  87.6540947  77.6116753  24.9768066  86.3998222  77.9772425  24.2125201
  77.4263430  97.0289326  48.7735081  77.0043802  96.8294239  49.6091938
  76.7413902  97.4495316  48.2537317  57.2710896  79.6452475  43.1955194
  57.8324652  80.2983570  43.6132908  56.6024208  79.4491768  43.8517809
 103.8950539  84.2878437  62.0452785 104.6161747  84.6349239  62.5704098
 103.4044075  83.7314606  62.6502037  89.8524857  82.2069263  63.0827141
  89.6271801  83.1353092  63.1424904  89.1356087  81.7572021  63.5300064
  90.4235323   0.4203361  45.5345011  89.5959576   0.9010642  45.5502701
  90.2112874  -0.4342515  45.9098339  67.9783058  75.7887888  47.3680592
  68.7698364  75.2519035  47.3298788  67.6913118  75.8574486  46.4574814
   2.8671781   9.8637717  44.8696852   2.9680816   8.9160293  44.7811937
   3.6885015  10.1562159  45.2648306  85.1702404  88.2227612  71.4581823
  84.2475605  87.9843807  71.3683653  85.3855038  88.6614037  70.6350851
  11.0553257   3.2630961  79.8287535  10.8054153   2.3957770  80.1473904
  11.1667339   3.7868255  80.6221867  69.6966362  35.2304006   9.4161689
  69.8748684  35.3717184  10.3459513  68.7557936  35.3822827   9.3268615
 107.8255367  70.4371166  59.9242496 106.9422436  70.1011229  59.7721481
 108.3212757  69.6776438  60.2303076  14.0934078   1.4813750  64.9498320
  14.6950428   1.3743823  65.6865883  13.4179012   2.0756476  65.2765799
  83.7189865  86.8584633  56.9252920  83.8478661  85.9176350  57.0455933
  84.1195583  87.0485401  56.0769749  29.1354839   2.3856013  52.5106049
  28.3574573   2.3723166  53.0680275  28.8298885   2.0573848  51.6649580
  89.6155548  13.7938392  63.2518148  90.2483082  14.1870916  63.8528156
  88.7627125  13.9918208  63.6387157  99.9135303  74.4336033  52.6838112
  99.8095512  74.4691658  51.7329359 100.7758427  74.8165798  52.8449488
  83.2087612  72.6088715   5.7526892  83.0931091  72.5865936   6.7026150
  83.9244938  73.2289171   5.6130230  10.1560767  61.3928461  42.4198627
   9.5860274  61.1000919  41.7088270  10.1200755  62.3484421  42.3777056
  82.2671127  75.9416199  35.3240299  82.4024200  76.6018200  34.6442795
  82.7657223  76.2648249  36.0744643  52.5884839  10.8725112  22.4892783
  52.3822041  11.5678256  21.8646049  51.7478772  10.6556552  22.8924990
  85.7811165  97.2602081  13.0563486  85.2178478  96.4867973  13.0845058
  86.6348267  96.9457150  13.3538604  59.2923784  74.7378445  72.9831123
  58.9218140  74.0183115  72.4720526  59.0553379  75.5258512  72.4941397
  91.9869804  88.9813900  57.6622391  92.5279903  88.8689709  58.4438372
  92.1113300  89.8976135  57.4146271  14.3347820  87.0578289  37.3649669
  14.8249133  86.2360573  37.3386216  15.0079902  87.7369690  37.4072433
  84.9939442  87.6812077  44.5209265  85.3086281  87.9455948  45.3853941
  85.1185513  88.4563255  43.9733028  92.9127026  51.1654806  73.2583475
  92.6069069  50.5622149  73.9356947  92.9922390  52.0078135  73.7059927
 100.8825397  93.7336731  49.6698141 100.2795315  94.3200684  50.1267052
 101.7525768  94.0699863  49.8846579  83.6697960  56.9717407  51.7653036
  84.6255207  56.9194365  51.7564487  83.3973598  56.5112925  50.9715796
  95.8622742  88.9408493  38.3659029  95.9645939  89.6604538  38.9887476
  96.7199516  88.8617229  37.9483342  66.6274691  79.3180132  35.6290936
  67.2990131  78.8584757  36.1331630  65.9633780  78.6518669  35.4517126
 104.4332027  98.2020760  78.7087154 105.2128220  98.7315273  78.5410738
 104.5042229  97.9565620  79.6311665  76.2474394  56.8852329  18.4455180
  75.8302832  56.8960762  17.5840688  76.6636276  57.7439165  18.5209191
  69.1627598  85.4885101   1.2397399  69.9526024  85.8241367   1.6636866
  68.5975885  86.2552071   1.1449477  89.7657689   1.4596503  40.5706787
  89.5120104   0.7379096  41.1459541  90.1927670   2.0897716  41.1510611
   1.5421088  94.4741154  37.9110336   2.1771033  94.6866322  37.2270370
   1.0166534  93.7660980  37.5384307  95.9825039  80.6724167  33.1430197
  95.3225517  80.9530544  32.5090313  96.8097210  80.9969521  32.7872038
  95.9438705  69.6174955  52.9634476  95.8584213  69.7967911  52.0270777
  95.3469563  70.2380514  53.3815813 100.6372174  13.4062903  45.0224066
 100.5223616  13.1382316  45.9341002  99.7506960  13.4139483  44.6615076
  97.3023701  56.7802858  30.2590489  96.9652081  56.6217136  29.3773413
  98.2512283  56.8364859  30.1461267  73.1843273  87.5596558  57.4713844
  72.5470821  88.2592903  57.6151103  74.0010635  88.0169807  57.2713226
  66.3325834  83.0068111  41.2925291  67.0792675  82.4164581  41.1916113
  66.5424347  83.7559223  40.7348347   1.5461485   5.3679126  64.6125603
   1.5252296   4.9864524  65.4902220   2.2761146   5.9865802  64.6376324
 107.0173168  76.1679220  60.4505730 106.1579990  76.3351297  60.0634718
 106.8248367  75.7448435  61.2873459  97.0332050  48.3272076  21.2418938
  97.5028419  49.1243839  20.9965634  96.2286568  48.6407232  21.6549754
  53.7590885  74.3918228  56.3903189  54.4855642  74.6626759  56.9516611
  53.1823540  75.1551628  56.3599825  22.7067844  16.5734427  35.9368420
  22.6368133  17.5094455  35.7491183  22.1302978  16.4361709  36.6885376
  37.1986953  19.6698516  36.1770010  37.9679290  19.5678943  36.7374730
  37.5541584  19.9319785  35.3277826  67.2852659  91.9283199  33.6102891
  67.5243235  91.0348797  33.8569546  67.8656054  92.1381950  32.8785849
  89.0168953  57.4134827  28.7464666  88.2553864  56.9212151  28.4398603
  89.3269157  56.9247532  29.5088696 101.9251060  77.7892590  73.5324287
 102.7412415  77.7829361  74.0325403 101.2383366  77.7036095  74.1936731
  56.3351441  31.4415080  13.6991006  57.1537590  31.8587024  13.9675409
  55.9186077  31.1807544  14.5205289   3.0130466  53.7443972  48.1678915
   2.3728831  54.4543409  48.2168579   3.8168128  54.1670990  47.8653765
  76.0127401  70.9362316  74.3508625  75.6381226  71.7309523  74.7307396
  76.9215536  71.1677217  74.1592789  89.8941708  96.1921406  40.6248760
  89.0514851  96.3281059  41.0580397  89.7912979  95.3644085  40.1552916
  37.2034359   4.7762734  14.7917253  37.0214462   4.9775082  13.8737852
  36.3451147   4.5847756  15.1696760 107.5006390  59.8400545  68.3241653
 106.6920853  59.5323086  68.7337637 107.4340820  60.7945824  68.3502388
  85.8488846  56.8705320  54.9615431  85.6572437  56.1595774  54.3499470
  86.5702629  57.3495007  54.5535851  55.1578283  69.0690422  52.2695017
  55.9287691  68.5731411  51.9938707  55.4553080  69.5726919  53.0271769
  71.5467644  48.3745337  55.0701046  70.9099436  48.3420277  55.7839918
  71.8905926  49.2674637  55.0963306  79.2247200  70.9411430  43.6927366
  79.1178226  70.1236582  44.1790724  79.4289589  70.6636047  42.7997112
  64.0321016  64.6928596  54.9848652  63.3586216  64.2399836  55.4923677
  64.6013260  63.9932823  54.6642303  23.2196132  33.9822810  51.0447788
  23.9797680  33.7915271  51.5943336  23.2041351  34.9371951  50.9804773
  68.1809330  71.4364290  54.7580433  68.7929010  71.1134481  55.4194117
  67.3648834  70.9698820  54.9386501   4.1630212   8.0457919  59.7296047
   4.9350349   7.5583213  59.4422150   3.5332290   7.3703330  59.9812746
 102.7640533  67.8386688  28.3333969 101.8181705  67.7674580  28.4617209
 103.1366920  67.1957970  28.9367986  77.6144409 101.0442543  34.6244764
  76.6668701 100.9482002  34.7199750  77.9722977 100.7240295  35.4524994
  80.6022739  85.9095764  24.1228271  80.6643391  85.1514721  23.5417485
  80.1563072  85.5780792  24.9022222  88.1127834  93.1303883  43.2030916
  87.6593018  93.7116623  43.8135910  88.6642075  92.5810432  43.7602139
  97.3427296  59.3909979  74.1061974  96.8898296  58.5675859  74.2881727
  97.9510880  59.1783953  73.3984327  60.7149410  96.5031242  43.7833405
  59.8832321  96.6300297  44.2398357  61.2382174  95.9707546  44.3825054
  97.0219231  68.9635754  42.0875025  96.8924618  69.0015221  41.1398602
  97.6097012  68.2196903  42.2193432 101.6931248  96.8327427  39.0815234
 102.3365688  96.9082260  38.3768821 100.9666252  97.3903847  38.8032079
   0.2457984  68.2658768  48.4633923   0.8138545  68.7969017  47.9052210
  -0.1163785  68.8863850  49.0958643  24.8937027  15.2450889  39.0017033
  24.9037639  15.9184401  39.6819496  24.0110676  15.2893107  38.6339617
  87.3515511  47.0588636  42.1657944  87.1572685  46.2072897  42.5573349
  87.4331474  46.8788481  41.2292194  70.3919077  95.5578232  41.3206100
  69.7980928  95.2652454  40.6292248  71.2130213  95.7474899  40.8667088
 104.3926144  55.2773571  29.5383692 103.6118031  55.3264189  28.9868569
 104.5635319  56.1841679  29.7927570  62.4104500  58.1593084  36.6718960
  62.6397705  59.0571117  36.9118786  61.5978003  58.2447767  36.1733747
  62.9177999  73.4213924  49.9796867  63.5811138  72.7541304  50.1558065
  63.0004930  74.0389681  50.7063198  38.9821235  12.0135062  14.7139931
  39.0007297  11.2388270  14.1520715  38.8527767  12.7445834  14.1098189
  68.4202003  88.7560844  57.4018145  68.2648087  88.9067268  58.3342266
  67.8859806  89.4162846  56.9602442 107.7611160  55.9129143  42.3380280
 108.3977127  56.5925932  42.1166563 107.6770687  55.3938246  41.5382051
 104.7264822   0.3196948  30.7595682 104.3786248  -0.0489385  31.5715623
 105.1295765   1.1462634  31.0251617  16.3639633   8.6832087  47.4633503
  16.5939514   8.0373996  48.1313848  16.4996998   9.5288032  47.8908873
  69.1008711  97.9332256  32.6197839  68.5993290  97.1188641  32.6585698
  69.8029232  97.7525997  31.9947028 100.3842163  77.2185135  60.8199692
  99.7734356  77.6993561  60.2614307 100.5509472  76.4035082  60.3464746
  74.7911978  79.9233866  32.2913551  74.8986292  79.8876286  33.2418346
  74.6831274  80.8544827  32.0973945  84.4988060  80.3920364  43.6843395
  85.1424217  79.7162390  43.4715223  84.9498367  80.9657955  44.3036938
  63.6997366  74.8423624  75.9248209  64.6510983  74.7585630  75.8606243
  63.5256147  74.8809242  76.8652630  25.6582912  55.7906771  46.9253159
  24.9376090  55.8775902  46.3013840  26.0628589  56.6579247  46.9462585
 103.1316193   2.6584952  66.7415094 103.0646332   2.1635383  65.9249544
 103.9943083   3.0712836  66.7012930  78.2829666  90.1812172  54.9450445
  77.6136875  90.7455063  55.3321886  78.1543064  90.2702141  54.0007162
  81.9626904  67.7290678  66.7787552  81.0467434  67.5727177  66.5489292
  82.1747112  68.5647106  66.3628387   3.9200862  52.3775959  11.6148722
   3.2365688  52.9179430  11.2185574   4.0932925  52.7922773  12.4600184
  83.2764721  77.5307131  33.2689714  82.5869560  77.9444981  32.7497530
  83.9995480  78.1576300  33.2498980  74.2552090  55.3861761  44.6761322
  73.8106060  56.1616039  45.0185823  75.1870823  55.5914736  44.7516346
  89.7114658 101.3545227  67.7387333  90.3269100 101.0362816  68.3991814
  89.5648766 100.6020069  67.1656132  98.5258675  98.5513973  43.2450628
  99.4639683  98.7394714  43.2738256  98.4650898  97.7025318  42.8069353
  44.2570392  10.5933803  50.6693745  45.0269882  10.3856795  50.1399660
  44.5899860  10.6482261  51.5651274  25.5942527   2.7007049  57.2855425
  25.8521835   3.6056750  57.4608421  26.4188091   2.2147124  57.2733498
  37.4640552  11.7534583  35.7101083  36.8863098  11.0843318  35.3430843
  37.0688240  12.5835269  35.4436064 101.1151505  89.1479397  47.7244997
 101.7325497  89.6128368  48.2892275 101.3284206  88.2228661  47.8469276
  11.9098743  97.7268696  58.2965565  11.4928420  97.8688908  57.4467659
  11.3713630  97.0575523  58.7187529  53.6433077  92.6093578  59.8421097
  53.1667519  92.0390034  59.2389297  54.2234325  93.1219578  59.2791510
  80.6312275  76.7039394  57.6871586  81.3888073  76.4757490  57.1484327
  81.0065079  76.9820213  58.5226631  61.7648792  80.2762985  17.8409290
  61.9374561  80.2919483  16.8995452  61.3340282  81.1122131  18.0193722
 104.8615360  97.2469139  38.2014918 105.2771187  98.0909157  38.0249286
 105.5214024  96.7519569  38.6871123  74.2021465  94.1740990  79.0090322
  75.1037216  94.4600010  78.8618898  74.2006302  93.8383102  79.9054003
  97.4624729  73.2125187  49.5365524  97.7012062  72.5746489  48.8639736
  98.2826710  73.6603117  49.7438669  68.9246893  67.7226496  28.4325171
  68.6710501  66.8915272  28.8339353  68.2519674  67.8843164  27.7710509
  63.5280657  66.9188309  33.0805635  62.9841089  66.1486721  32.9156637
  63.8965321  66.7698240  33.9513469  65.4835558 101.5753651  36.1691213
  65.3685379 101.7190647  37.1084571  64.6137714 101.3261986  35.8566666
  93.9227581  62.9203224  35.7281470  94.8108482  62.6726675  35.4708695
  93.6061382  63.4617901  35.0050974  97.7229214  38.1850338  56.8556499
  97.8274727  37.2614622  57.0843840  97.9490662  38.6573124  57.6569271
  80.9870529  92.6063347  48.4707403  80.4568291  93.3369255  48.7890720
  80.7636261  92.5347233  47.5427389  94.9376869  77.3891354  59.2814779
  95.2705193  78.1838608  59.6984482  95.0415611  77.5492859  58.3435059
  70.6671667  77.1478987  19.2933738  70.9022141  77.8457785  19.9048841
  71.5025520  76.8617105  18.9239681  24.5975010  19.6313136  45.2862263
  25.3834335  20.1145690  45.5412102  23.9409534  20.3091948  45.1260424
 106.3909817  89.2347050   3.1404668 106.0890102  90.1408100   3.2038778
 107.0124722  89.1383076   3.8620526  75.6610060  88.9391136  85.3260040
  75.3750467  88.6441517  84.4614506  76.4495087  89.4540501  85.1546955
 104.8402318  17.8059047  22.3881745 104.9837454  18.6683696  22.7777767
 105.0703963  17.9184096  21.4658952  11.2885650  56.7548513  22.7761889
  11.3545306  56.8106937  23.7294793  10.6572421  57.4343252  22.5395799
  40.1857424  81.1875534  16.3229883  40.1353407  80.8954620  15.4128397
  40.9855127  80.7839012  16.6601372 104.0165043  70.6780338  37.5481963
 104.7579098  70.1987314  37.9180813 104.3419170  71.0157585  36.7137575
  81.6861343  72.0759201  56.3795710  81.3112354  72.5656033  57.1116209
  81.9117069  72.7456284  55.7339382  81.1783314  98.4833717  64.5707321
  81.8106079  99.1907406  64.6975851  80.4011154  98.7677383  65.0516748
  87.6394176  67.5739145  46.1034679  88.2560539  68.2315350  45.7817030
  87.4147034  67.0573521  45.3295851  73.3273029  65.9690237  37.0096803
  74.1328144  66.1621428  37.4893522  73.2054329  65.0256109  37.1162152
 105.4666328  59.2684460  39.6973825 105.4978371  60.2098417  39.5270061
 106.3390541  59.0560150  40.0290298  65.1495981  60.9900618  70.1427460
  65.8466625  61.2750340  69.5518780  65.2719736  60.0437641  70.2187347
  80.7810879  78.3410406  76.0061216  80.3021908  78.2181358  75.1864958
  81.6649818  78.5862970  75.7326126  99.5935059  43.0816793  20.2410769
 100.0024128  42.4600649  20.8432627 100.2072048  43.8151503  20.2007771
  82.5054932 100.6775475  35.3316164  82.6823902 101.5548801  35.6710744
  81.9184875 100.8217621  34.5894146  60.1074839  73.4100771  61.5129280
  61.0249758  73.1648397  61.6324949  59.7629738  73.4896994  62.4024248
   1.0008605  80.6533241  55.0273037   0.2084811  80.6148338  55.5629158
   1.6582473  81.0481453  55.6001854  78.7896013  97.4842834  12.9875767
  78.1315470  97.6189518  13.6695290  79.0148592  96.5561962  13.0520344
  49.2563144   5.7482706  79.7155541  49.1564933   4.8003422  79.8032987
  48.6100475   6.1140858  80.3194982 102.7565193  52.3339224  83.4841633
 102.5094223  53.1697369  83.8798714 102.4316597  52.3890591  82.5854588
  50.9509651  22.0521818  78.0461710  50.1718704  21.5460812  77.8157168
  51.2256614  21.6973148  78.8916564   4.7924216  72.0450735  40.3505564
   5.6715949  72.3810863  40.1762724   4.5603545  71.5594149  39.5590281
  94.6691895  79.1315413  44.2837763  94.4582272  79.8610830  43.7011147
  95.4533005  79.4180632  44.7520828 107.2554779  67.9821205  16.7611539
 108.0271053  68.4696770  16.4728463 107.6046753  67.2946119  17.3282743
  12.8549178  70.0018167  65.7386637  13.5636409  69.9097252  65.1019096
  12.4321826  70.8292055  65.5085325 101.7278481  80.8170223  35.1856446
 100.8277702  81.1407089  35.1492357 102.1644688  81.2396812  34.4460821
  72.9561520  68.5141897  56.6143227  72.9228306  67.6288652  56.2519455
  72.4032402  68.4745502  57.3946714  71.3925600  92.8842545  38.5715413
  70.6065226  92.6521587  39.0660238  72.1111345  92.7589893  39.1913676
 106.9373322  59.5495939  78.7765455 106.1733437  59.2564631  78.2799292
 106.9825077  60.4915810  78.6126804  73.9228439  64.2053270  54.4286871
  73.5979414  63.6316061  55.1225996  73.1353283  64.6070290  54.0616894
   3.9047797  70.7848263  37.7346349   2.9604705  70.8296204  37.5846195
   4.0231784  70.0119543  38.2867980  11.5711196  87.6498413  48.2331514
  11.7978080  87.0868683  48.9733553  11.8417438  87.1518517  47.4617910
  74.6371984  49.6506310  34.6657085  75.1780558  49.2551994  33.9820886
  75.2624702  50.0925064  35.2401733  69.3071079  92.7088833   9.8384982
  68.4969091  93.1753540  10.0439870  69.1507006  91.8135166  10.1386297
  93.8568974  44.5119619  19.9372149  94.5479584  44.6993542  19.3019581
  94.2185783  44.7981310  20.7759786  97.0648670  74.6758938  53.1051350
  96.7280483  74.1540384  52.3768139  98.0150414  74.5713329  53.0554295
  96.3238335  82.1549320  53.5080767  95.8433914  81.3522911  53.3051682
  95.7011795  82.6884174  54.0019655  72.8097010  97.4426270   3.7504414
  71.9776440  97.5217438   4.2169833  72.6245308  97.7756119   2.8723383
  69.8260212  66.1301756  64.7204399  69.5922995  65.2019548  64.7247601
  69.0774488  66.5675354  65.1261330  71.8079472  74.9727631  38.2284713
  71.2953329  74.6267128  38.9590240  71.6948700  75.9215927  38.2847500
  35.6776325   7.9062598  46.8341780  35.9639160   8.4762233  46.1204481
  35.7915012   8.4354251  47.6236391 104.1173267  85.2680969  25.2710986
 103.5853863  85.8958244  25.7602215 104.8021507  85.7995319  24.8651266
  91.8899918  91.4172459  26.5654707  91.7436028  90.5215454  26.2613010
  91.9474411  91.3403988  27.5178504  59.0121937  65.9001970  57.6855469
  59.7447252  65.3345442  57.9298162  59.2301130  66.2077570  56.8056870
  92.6179218  86.4153481  40.5601215  92.7780914  87.3134327  40.8499908
  93.4713936  85.9868717  40.6251431  96.4635372  55.5324411  23.5851884
  95.7489395  55.9445763  24.0706992  96.5130806  54.6446276  23.9395356
  69.1272783  68.6625242  66.6197538  68.4204626  68.6477566  65.9744453
  69.1542292  69.5694351  66.9247484  71.7164612  34.0644271   1.0551816
  70.8948422  33.6025721   1.2220842  71.8056011  34.6685988   1.7922479
  88.0955084   6.1492103  14.0215862  88.5874089   6.1201518  14.8422098
  88.0240639   5.2333587  13.7526131 100.0902653  94.4811058  37.5549841
 100.7284737  94.4471550  36.8424010 100.5517578  94.9207973  38.2690835
  98.1437397  68.0718279   3.2229650  97.3499966  67.6140451   3.4997961
  98.1783009  68.8495302   3.7799355  80.7749462  80.2777481  60.8437061
  79.9567032  79.9729061  60.4515553  80.5061436  80.7052517  61.6568661
  56.8156910  86.3209057  32.0357513  56.0209751  86.5797043  32.5023198
  57.5256443  86.5078640  32.6499510   6.4660589   8.3476870  32.1169639
   5.7148735   7.7787250  31.9489503   6.2279836   8.8313907  32.9079008
  22.4807159  16.9112723  44.8566151  23.4321682  16.8142264  44.8171949
  22.2607986  16.7451995  45.7732868  76.5545273  88.3076286  80.6434059
  76.6948700  87.3664761  80.5397034  77.4348545  88.6726189  80.7330894
  80.7335758  54.2125607  44.0504360  81.6564846  54.0298748  43.8741016
  80.2575779  53.5666800  43.5284233   6.6936485  32.6370185  52.8875399
   7.0534794  33.4445994  53.2543707   7.0167581  31.9463389  53.4661484
   2.1759589  83.3113003  38.4883785   2.8581794  83.6351681  37.9002357
   2.2314246  83.8804913  39.2559552   8.2860645  95.1514435   8.8460147
   8.0488856  95.6818485   9.6067023   8.7201675  95.7643509   8.2526135
  72.9095840  58.7695122  35.0738716  73.5159540  58.4149170  34.4236374
  72.0408249  58.5679245  34.7262359  13.7874110  76.0859346  39.7176528
  13.8627513  75.1319456  39.7390866  13.2907661  76.2691116  38.9201427
  87.6195526  84.1985226  30.8159208  87.1252918  84.3726063  30.0149035
  88.0924225  83.3864307  30.6338668  35.8086197  37.7202266  49.8241615
  35.9797374  38.0538600  48.9434576  36.2364666  36.8641799  49.8433065
  72.5545303  33.5729824  70.4719907  72.5306312  34.0516316  69.6434051
  72.3197547  32.6752983  70.2368837 102.3806381  87.1654606  26.4682579
 102.2787571  88.1150627  26.5323925 101.4926147  86.8220901  26.5669227
  55.0783245   9.4409411  62.2485781  55.4179660   9.7102969  61.3951588
  55.1473991  10.2256339  62.7923727 104.7085285  99.7409058  62.3124409
 105.3220749  99.0193844  62.1738911 104.8990822 100.0506687  63.1978607
  16.2111839 100.0826645  26.6963339  15.8063205  99.9975586  27.5595093
  17.1060069 100.3694630  26.8787265  17.5920860  10.9401076  15.8204424
  18.3843414  10.6806891  15.3500509  16.9696323  10.2333777  15.6492341
  92.1186352  52.5990391  36.5255642  91.3090134  52.1490383  36.2842345
  92.7439404  51.8938494  36.6926861  42.7007095   9.1672080  53.0429411
  42.9790012   8.6760848  52.2699070  43.5172741   9.4612067  53.4466934
 102.7924919  85.9425163  29.0077782 102.6567173  85.0013161  28.8984990
 102.4873829  86.3256073  28.1853509  86.8009949  79.6479273  46.3668823
  86.0415363  79.4873476  46.9269419  86.5954399  80.4653168  45.9131622
  89.6426678  69.3057394  65.8275890  89.2929935  70.1093102  65.4425764
  89.1578960  69.2017984  66.6463852  28.7117664  19.4668334  40.7788849
  29.6119587  19.1707271  40.6439638  28.4340946  19.7878497  39.9209356
  44.4854442   1.7642348  79.6442318  43.5466949   1.6483443  79.7910833
  44.6464149   2.6871818  79.8403978   4.8218195   3.6074393  35.5589008
   4.5596782   4.5122283  35.7287979   5.1661770   3.2965987  36.3961768
  89.3030357  94.3854141  33.0806804  89.3019867  94.6167374  32.1518540
  89.0399361  95.1896667  33.5281062  89.3054390  65.9805441  66.3283682
  89.5302486  65.0970650  66.6201782  89.8001575  66.5579748  66.9097996
  34.8497001  17.7865737  50.0905752  34.4726173  17.5131267  50.9267950
  34.0933506  18.0133384  49.5495033  13.1152042  86.3340855  61.1936378
  13.9202007  86.4636517  61.6950607  13.2547076  86.8270302  60.3850794
  73.0861044  89.5604801  52.0022249  73.3057642  89.1984272  51.1437941
  73.9322662  89.7716236  52.3967648  41.1503975  23.6352103  39.9485159
  40.3267757  23.4446280  39.4995642  41.1914531  22.9925197  40.6566763
  40.6827060  27.0923942  59.6987391  40.1677124  27.0055240  60.5009031
  40.3157703  26.4361995  59.1062927  32.3910515  13.8315146  74.0336180
  33.2772915  13.7452071  73.6823797  32.4271385  14.6128409  74.5853901
  68.2426500  76.9675207  28.4227014  69.1508722  77.0660925  28.7084389
  67.9046679  76.2403965  28.9454770  18.9616958  17.7261870  32.4773502
  18.4033481  17.1790259  31.9249916  18.4037010  18.4628528  32.7267313
   5.9948810  63.6321259  30.6610918   6.1259063  63.3791685  31.5749168
   5.3991206  64.3801737  30.7027006  81.5614891  98.4615421  55.9927797
  81.5328884  97.6995564  55.4141617  82.4549007  98.7941933  55.9067631
  94.7446728  49.6541405  27.7876544  93.9900112  49.0686893  27.8506255
  94.4220829  50.4961252  28.1089377  98.7803078  93.5499763  45.6329155
  99.0948200  92.7150345  45.2862310  99.4478226  93.8128853  46.2665796
   0.5493816  98.6175346  38.2154846   0.2965053  99.0473461  37.3984480
   0.7765372  97.7246094  37.9560471  80.7539845  66.7621660   6.3767713
  80.9438515  66.0239506   6.9557542  79.8306084  66.9589615   6.5345109
  84.0876484  57.7181339  13.6034799  84.9209309  57.4853325  13.1939983
  83.9939880  57.0971251  14.3258405  96.8337822  58.2055187  37.9140043
  96.2986565  57.4529600  38.1660342  96.2389660  58.7664080  37.4161863
  22.9561702   7.1510261  47.4941587  23.1700222   6.2223189  47.5835848
  23.0172149   7.4976581  48.3842993   8.4034816   3.1301253   3.6228451
   8.3058540   2.9185527   4.5512518   9.0211097   2.4778502   3.2922131
  17.7647773  20.2601378  47.5371075  17.3384086  19.8995154  48.3145285
  17.4075309  19.7505038  46.8098688  55.9931183  96.7041874  55.2711153
  56.7856693  96.5311718  54.7630215  55.8782482  97.6530933  55.2200365
 105.6349659  65.0432110  37.1215701 104.9588871  64.3688202  37.1874619
 105.4133034  65.5276775  36.3263392  14.9999706   5.6972354  38.8584161
  14.6769611   4.7970622  38.8981056  14.9980919   5.9114688  37.9254985
  76.0227060  96.4228249  37.0665979  75.2415371  96.2910080  37.6038408
  76.2382650  97.3484707  37.1804047 103.9580536  94.0074253  32.4371982
 103.9360714  94.6530342  33.1435513 103.0475903  93.9345646  32.1508932
  36.6588012  12.3052066  56.5627861  36.2299148  12.6962703  55.8016300
  36.0782139  12.5092452  57.2959518  79.7543287  72.5296307  48.3560753
  80.4318905  72.2382355  47.7459621  80.1179981  73.3179522  48.7592077
  62.7964298  11.1869281  33.0541062  62.2208015  10.4222339  33.0427980
  62.6144306  11.6113322  33.8925505 106.4850768   8.8099235  43.6927462
 106.9813403   8.8933986  42.8785038 106.8918808   8.0718272  44.1465759
 103.5137367  98.1592941  49.7621059 104.4314098  98.0223274  49.5268536
 103.5036373  98.1227112  50.7185507 103.8619041  62.2252798  31.2233901
 103.1189442  61.6937876  31.5093350 103.5596561  62.6461315  30.4185534
  78.1833029  81.1551189  25.3856421  77.6868057  80.3367710  25.3908610
  79.0415335  80.9123611  25.0381660  32.3646537  25.4732840  39.2870355
  32.1757976  25.8280890  40.1557589  33.1519882  25.9384673  39.0043044
 102.8224905   6.8267386  42.9081726 102.3099764   6.6082137  43.6865139
 102.9882868   7.7662032  42.9865599  31.2635700  17.3704856  39.0205407
  30.6215564  16.9415801  38.4547734  32.0697014  16.8713038  38.8894200
  20.3658755  61.5421867  60.4367018  20.0426944  60.9456682  61.1119413
  20.6481155  60.9678411  59.7248745  35.8129207  16.7753547  40.0954914
  36.0069362  17.0825618  39.2099333  36.6703502  16.5861552  40.4766035
  11.3484843  41.5042448  26.0620093  11.7724498  40.6461000  26.0537243
  10.5864604  41.4004278  25.4921246  27.4026004  37.3049300  40.3713608
  28.0129997  37.4626010  39.6510959  26.7313759  37.9795497  40.2685070
  10.1528446  26.7768519  42.7538681  10.7175056  27.1254199  43.4437132
   9.3996326  27.3673671  42.7396774  93.1036377  71.0232925  82.6245308
  92.2869778  70.9316349  83.1153393  92.9027271  71.6645622  81.9428825
 104.9724770  80.3592491  62.5500011 105.1653576  80.8450317  61.7481041
 104.3277264  79.7037792  62.2837400 102.3656559  91.2003994  37.9141736
 102.7866173  92.0271778  38.1496716 101.7264748  91.4397144  37.2430491
  17.3459236   6.3624423   9.3148285  16.9041244   5.5764335   8.9935338
  16.6374962   6.9842475   9.4813347  19.0213005  10.5839866  66.1171055
  19.9038498  10.9272330  66.2567997  18.4677402  11.1012881  66.7020845
  76.2087393  76.1380291  18.0473042  76.1394167  77.0878220  18.1438684
  76.3921309  76.0045815  17.1173632  94.1907406  94.1684818  52.7345371
  93.5624790  94.0596390  52.0206261  94.2563820  95.1159954  52.8534412
  34.8249427   9.6177619  18.6602461  35.5446998   9.0708487  18.9750051
  34.2110531   9.0002482  18.2627046  93.9496994  49.0757990  31.3203478
  94.2553234  48.2175493  31.6140199  93.1760597  48.8858414  30.7896566
  13.3279784  86.1530304  25.8817482  13.2347282  85.2276993  25.6552601
  13.5491450  86.5809631  25.0545883  94.3932819  73.1348515  72.1494722
  93.9141369  72.3192263  72.2957754  95.0512981  73.1540251  72.8443623
  68.7900162  80.3072548   4.9236828  68.9189482  81.0434818   4.3257034
  67.8564835  80.3301525   5.1339900  73.1749908  40.9449421  77.0923859
  72.6228897  40.7687508  76.3305658  73.9107315  40.3396355  77.0001143
  99.0718079  88.1297493  25.2688122  98.9671135  87.2799301  25.6966972
  99.8607159  88.5011482  25.6636739 101.5918446  84.3126202  15.0656843
 100.7503605  84.7523117  14.9439800 101.3819408  83.5309505  15.5767322
  84.6989346  93.8098335  48.5993576  85.0367546  94.2820835  49.3603373
  84.2088509  93.0763149  48.9708519  91.3728619  82.5084686  60.7041311
  90.6382370  82.3857212  61.3053751  92.1020603  82.7687836  61.2669230
  95.6046295  98.5996246   3.8675261  96.2626648  99.1112709   3.3969638
  95.9811211  97.7215576   3.9264831  98.4165764  67.2295618  14.1442466
  98.7716866  66.4193344  13.7786603  98.7141514  67.9135942  13.5444331
  21.0960754  86.3199711  45.6752491  20.8869823  87.2138023  45.4039907
  22.0225795  86.3525200  45.9135103 105.3922614   2.8044646  85.0455761
 105.7762726   2.8582137  85.9207153 104.4582566   2.9618304  85.1837826
   2.7102073  88.2174492  27.9969549   2.8481944  89.0644169  27.5728869
   3.4800704  87.7014828  27.7575731  97.4858284 101.1857891  37.4014664
  98.0688572 100.5266285  37.7780390  97.0443153 101.5744781  38.1565976
  97.0065022  66.2933540  75.1406288  97.4451447  66.0611248  75.9591007
  96.9444561  65.4681206  74.6596241  78.3223391  51.3621283  26.4540410
  78.6316442  52.0512486  25.8660960  79.0244198  50.7115078  26.4507389
  14.9688331  12.7311652  41.3908577  15.5585853  12.9918902  40.6834316
  14.3377868  12.1452182  40.9729099  90.3769207  45.6896877  61.3859224
  91.2501907  45.6097364  61.7696285  90.4534721  46.4142895  60.7651806
  31.1103908  17.4269622  55.9364843  30.9164230  18.3619159  55.8696604
  31.9849674  17.3908751  56.3238430   4.4935210  80.1489544  20.4960084
   5.3900989  80.4611111  20.6182432   4.5356830  79.2142868  20.6981182
  86.0253525  81.2982559  35.5907512  85.7096958  80.9305477  36.4162135
  86.8887520  81.6537189  35.8015156  20.0860969  29.6913569  56.0164213
  20.0564949  28.7640899  56.2520933  20.0056736  30.1532596  56.8509293
 103.9138031  85.6848907  43.7185955 103.6402512  86.2018681  44.4763136
 103.3476162  84.9133396  43.7380409  92.9917431  93.5729980  78.9393806
  92.3900032  93.4228611  78.2102680  92.4249935  93.8157654  79.6715641
  93.4160519  87.4208355  30.8153653  92.7694416  87.4729156  31.5192223
  93.2320786  86.5872574  30.3823161 107.4321365  72.5706434  33.5994577
 108.0479527  73.2447243  33.3120418 107.0034409  72.2790909  32.7948117
  13.5692199  73.7949610  55.1826286  13.7467750  74.3663836  55.9297466
  14.3329032  73.8986731  54.6149540  54.5450592  94.8291779  34.0419388
  55.2170610  95.0194168  34.6965075  53.7669134  95.2890968  34.3568969
  93.7777146  11.8295043  19.6317422  93.3586224  12.4973529  19.0889955
  93.2322606  11.7820113  20.4168892   7.3051151  92.2481441  47.7542639
   6.7765792  93.0348778  47.8881931   7.2981818  92.1133995  46.8066216
  14.4545539  61.8017292  56.7543745  15.2035030  61.2732172  56.4787149
  13.7020953  61.2173176  56.6621637  10.2520068  84.9151134  19.8739493
   9.5698245  84.2479610  19.9499094  10.6163963  84.7864532  18.9982224
 100.2136612  62.6700974  51.4256430  99.5792294  63.3797264  51.3248730
  99.9205494  62.1954346  52.2034693  83.1360245  75.9776688  56.9518185
  83.8294506  75.3485584  57.1508312  83.5201073  76.8302011  57.1565151
  10.9739296  26.6377776  24.4151473  11.7615120  26.4930957  23.8907361
  11.2214939  27.3240703  25.0347877  27.8122695  64.1512823  57.0472240
  28.6531814  64.3460226  57.4609661  27.6653655  64.8826647  56.4474440
  76.6021538  77.1219063  61.4599276  76.2170553  76.2896109  61.1856651
  76.6490269  77.0612621  62.4140549  66.6280890  86.9488716  56.0228300
  67.4857330  87.2377491  56.3346386  66.0057306  87.5276852  56.4631414
  65.9364605  79.5633984   5.8199465  65.4956293  78.7137747   5.8131993
  65.3135872  80.1597214   5.4044169  33.0175487  16.5935367  28.6569452
  32.7837173  16.5608066  27.7293253  32.2063438  16.3762706  29.1162562
  98.4246540  99.0899849   2.4428512  97.9963017  99.3481541   1.6267107
  98.9102459  98.2963753   2.2178471 100.8635139  82.1627808  61.6227150
 101.4354038  82.3313141  60.8738661 101.1373901  81.3039875  61.9447517
  81.6445637  91.4284420  51.8947697  82.0146942  91.9047832  52.6379681
  80.8914757  91.9538879  51.6245747  80.6499195  96.3945103  45.6353235
  80.5958557  97.1684837  46.1959219  80.8583164  95.6783390  46.2352276
  91.0376414  12.7485602  55.7322073  90.9201916  13.6672347  55.9740448
  91.6026314  12.3909324  56.4171267  99.5158005  51.4616680  39.0262961
  99.9883652  50.6566048  38.8146520  99.1532516  51.7535210  38.1898689
  53.4357826  13.9131015  55.1871872  52.9085819  14.0343898  54.3975163
  54.2949955  14.2675155  54.9583197  76.0985518  68.6891747   5.1657897
  76.5256929  68.2394648   4.4367191  75.1636028  68.5409737   5.0239003
  85.7669163  92.1840096  51.2785053  85.6527233  91.2902260  50.9554911
  85.7523155  92.0978928  52.2317123  65.4679298  87.6785183  63.5380793
  65.0254917  88.2892132  62.9485607  65.7022858  88.2083988  64.3000031
 107.1338844  69.9846554  50.4518747 107.5238419  70.5322599  51.1332655
 106.2152195  70.2522898  50.4260826  68.1149149  98.2269001  39.2397761
  68.0523205  98.9912415  38.6669874  68.4598351  97.5335693  38.6771417
  34.6747772  32.6962607   3.3658400  34.4320099  32.2066825   4.1517222
  33.9622966  33.3239596   3.2450524   5.7131179  95.6220913  72.6085997
   4.9166663  95.1789284  72.3161983   5.6475146  95.6272602  73.5635376
 104.5124435  60.0933027  47.4056435 103.6756229  60.5244541  47.2322321
 104.9460030  60.6597614  48.0439043  20.3979198  10.2360290  50.9298754
  20.3975002   9.5868915  50.2264214  21.3123027  10.5095714  51.0028219
  91.5084171 101.0913086  70.2790499  90.9543610 101.4310169  70.9818029
  92.3999023 101.1662483  70.6194448  52.2304622  30.4492991  10.8034575
  51.7836086  31.0758918  10.2342999  51.6855232  29.6631377  10.7686043
   4.7556956  81.9546700  35.5010152   5.3989490  81.4387131  35.0149584
   3.9692672  81.9321918  34.9557972  86.5263279  12.2769111  19.8672700
  85.5718525  12.3252528  19.8136663  86.8340119  12.9924052  19.3108201
  89.3181992  72.4308538  40.2823925  88.9480591  71.5760422  40.5026674
  90.1784706  72.2313786  39.9130940  86.5492630  99.4260788  14.7727013
  86.0904217  98.8107586  14.2007875  87.3411560  99.6587372  14.2879248
  80.5811214  85.6938457  63.8627386  80.3487492  85.8554459  64.7771358
  80.4472446  84.7534943  63.7441778   3.5663684  70.4547405  30.0664210
   4.1992553  70.0946808  29.4450998   3.8036330  70.0602865  30.9056735
  35.5292885   9.7091716   3.6098513  35.9084026  10.4827064   3.1925413
  36.2433616   9.3451064   4.1330975  98.3782443   5.4181998  27.5953674
  98.1508311   5.4268496  26.6656160  97.8178366   4.7401183  27.9727125
  43.5169117  32.9817241  63.5791922  43.0209247  33.7976592  63.6461449
  44.0867702  32.9840415  64.3482685  96.5094670  25.5542033  66.3263702
  97.4218567  25.4640429  66.0513353  96.2664755  24.6829169  66.6394758
  80.6934166  90.5582428  62.6916218  81.1390209  89.8245335  62.2681427
  81.3433552  91.2609100  62.6994801  68.2547760  84.5809364  58.6083698
  68.8604069  84.2542648  59.2737484  68.1241608  85.5017567  58.8347816
  27.6864235  12.9039519  17.8090215  26.7964451  12.5959533  17.6378417
  27.7719204  13.6961120  17.2785401   3.8253919  32.2624820   7.9180396
   4.2487756  31.5386527   8.3796161   3.9442293  32.0573466   6.9906616
  92.0752239  94.1392326  51.1790323  92.5450802  93.7449455  50.4441833
  91.4568615  93.4639263  51.4579868  90.0118732  95.0641251  76.3598967
  89.1599274  94.6367359  76.4479923  90.1720428  95.4580307  77.2174597
 104.3791866  77.3729086  40.3582430 103.5590363  77.6698542  39.9640226
 104.4791508  77.9154396  41.1404800  23.7399570   7.0131343  30.6905651
  23.8788883   6.7060702  31.5864682  24.6054451   6.9662993  30.2843976
  96.6581821  75.6054544  26.9745970  97.3655891  75.0819826  27.3511362
  95.8969307  75.0253630  26.9894505  82.4936676  78.1309271  17.8148782
  82.5349903  77.7177763  16.9524229  83.3699703  78.0100870  18.1805706
  95.7062340  52.8408718  24.5982456  95.9004879  52.2119665  23.9032793
  96.4963913  52.8526115  25.1383710  93.2941151  87.1623135  27.3497510
  93.2312107  86.8621826  28.2564998  94.2241669  87.0866966  27.1364069
  92.9514694  89.6713734  50.0425005  93.0455017  88.7188435  50.0511694
  93.8470364  90.0011349  50.1162338  84.8668480  84.7955704  59.6594334
  84.7518921  83.9493656  60.0918198  85.1537991  84.5747471  58.7733555
  49.4172525 100.7375622   3.1232381  50.2438307 100.2814770   3.2813025
  49.4888544 101.5459156   3.6308512  89.9169922  59.7205782  30.6029844
  89.4727039  60.4383707  30.1517439  89.7213650  58.9473772  30.0737166
  82.8138924  81.7106056  33.1366134  82.6058292  80.8048248  32.9074669
  81.9663525  82.1553135  33.1488323  32.2556106   1.9171184  57.9707813
  32.4681942   1.4381259  57.1697807  31.4025680   1.5734141  58.2361364
  99.4581032  79.4992733  16.9425309  99.8509884  79.2810917  17.7876770
  98.6168861  79.0425587  16.9444156   8.3553966  94.7959709  52.4236059
   9.0492805  94.6559620  51.7792845   7.7880462  94.0301514  52.3348427
  68.3578205  86.5554142  82.5968361  67.5383091  86.5430450  83.0912971
  68.1507397  87.0473671  81.8022728  18.9949123  12.8047793  30.6402087
  19.4692318  12.1734946  30.0991535  19.0260879  13.6201995  30.1398635
   3.6762508  87.1370125  63.5631847   3.2305797  87.8249454  64.0575027
   3.3468898  87.2325230  62.6695251  93.4957218  65.9280300  42.6655579
  93.0690956  66.0717106  41.8208218  92.7753258  65.7527351  43.2709742
   6.8694003  96.6276646  83.9397621   6.7672046  97.5580883  83.7395477
   7.1877750  96.6104412  84.8423004  84.8601151 101.5508461  12.0712185
  84.1525459 102.1947575  12.1021867  84.5726490 100.8507252  12.6572430
  11.3755305  52.5640345  59.8486948  10.9050639  51.7480850  59.6780539
  12.0010074  52.3402405  60.5378437  97.1572781  80.9901142  57.4067926
  97.9912281  81.2017632  56.9873190  97.2451115  81.3275528  58.2982206
  91.7027720  15.2296870  31.9871473  91.0204943  15.5256885  31.3845587
  92.0867022  16.0369533  32.3294401  16.9975646  90.6818104  47.9040098
  16.0584052  90.5159092  47.8221893  17.2882732  90.8592606  47.0094538
  84.7134590  54.3000698  24.4516206  85.4406643  54.8150110  24.1020012
  84.2957783  54.8781681  25.0900412 106.5686806   8.6792224  29.3260860
 106.8651064   7.9316371  29.8452091 107.1926793   8.7305396  28.6020517
  85.2654552  90.0756645  43.3845568  85.9318542  90.3401184  44.0187550
  85.0239563  90.8873463  42.9383612  23.9632018  96.6108513  39.3422914
  24.4858630  97.0931339  38.7016177  23.4457000  97.2837925  39.7845244
  42.7926723  16.9544166  42.8749275  42.9975692  16.2819331  43.5245514
  42.6473228  16.4674609  42.0637655  73.4324161  20.1902144  18.5689938
  74.1105167  20.1486438  17.8946924  73.0511371  21.0628074  18.4717727
  55.4939071  33.9796107  42.5724602  54.8772327  33.3406775  42.9298306
  54.9540416  34.7412246  42.3610210  55.5382538  81.3596446   2.5668317
  54.8592758  81.0184008   1.9847852  55.2886486  82.2713858   2.7173502
  68.3278608  69.6806288   7.7793789  67.5399590  70.0858545   7.4171209
  68.5419273  70.2148485   8.5442412  96.9565670  75.2775417  82.5620067
  96.5590564  75.4431854  83.4168619  96.2292282  74.9865089  82.0119989
   8.3945934   8.2584517  30.0782537   7.7394287   8.1820624  30.7719064
   8.5299389   7.3601478  29.7766590  37.8316013  16.6073554  31.3874722
  38.1506817  17.1793693  30.6894684  36.8780414  16.6654056  31.3275909
  25.0826923   4.2177051  28.3659196  25.9873668   4.4522422  28.5727859
  24.9050895   4.6582644  27.5348997  85.0346756  86.0873127  63.4093618
  84.2908669  86.6851997  63.3350849  84.9477291  85.7041359  64.2822027
 105.9345722  66.8380165  50.9716606 106.1486149  67.3306227  50.1793528
 105.0307274  67.0833921  51.1694002  64.7303295  61.5084410  30.5200529
  64.1707087  61.8202829  31.2312555  64.3227243  61.8534803  29.7256756
  20.6988041  47.6418155  18.5089993  20.5965988  47.0136779  19.2239964
  19.8536388  47.6328986  18.0597115 101.5287018  75.3541994  40.3165054
 101.6976643  75.3315353  41.2584019 101.9317341  74.5532084  39.9815273
  24.3592437  77.1779537  62.6216507  24.0427669  77.0874548  63.5204744
  25.2464183  77.5252676  62.7139235  63.8981199  91.0624218  31.9999504
  64.5601606  90.7703590  31.3733435  63.0756330  90.7081795  31.6619349
  97.9973563  76.0650355   0.8942601  97.3688801  76.6152031   0.4267510
  97.4622234  75.5504448   1.4984632  47.5214291  27.0097971  50.4428339
  46.7473745  26.4525700  50.3618097  47.4948549  27.3268795  51.3455963
  87.8617318  91.1025292  57.0696402  88.0460473  90.5748493  57.8466940
  87.7222176  90.4616398  56.3724804  39.6354079  18.2602811  19.7988868
  40.0308943  19.0734780  19.4849837  38.7586045  18.2565582  19.4149184
  32.8997254  17.5782621  12.8955913  32.6285505  17.2742033  13.7617576
  32.8872752  18.5330617  12.9621816   7.3545066  92.8217471  84.0450096
   7.1756355  93.3111937  84.8479271   6.5684978  92.2933257  83.9064884
  66.5400100  62.3062568  87.8236906  65.8875680  62.9949635  87.6962701
  66.9662642  62.5302356  88.6509581  36.4181948  28.3173633  19.9906361
  35.8474708  29.0854263  20.0148749  36.0595703  27.7313542  20.6571293
  42.4679422  10.6018293   0.9598210  42.9258299  10.5889904   0.1193398
  41.6795206  10.0798249   0.8110445  41.0604946 100.8980525  61.1187363
  40.7083456 100.2920411  61.7706347  41.1739389 101.7213385  61.5936708
 102.3383268  99.8804443   6.5314937 102.0195945 100.7830188   6.5316522
 102.9330190  99.8365762   5.7827282  65.2506161  19.4660580  40.3882885
  66.1243439  19.8519754  40.4507303  64.7007751  20.1718855  40.0481224
   2.9805652  76.4351661  59.4020367   2.3496167  76.8189389  60.0110149
   3.8353411  76.6705806  59.7628260  35.1583759  87.6550240   8.5978574
  34.4006435  88.1760044   8.8636684  34.9774782  86.7785794   8.9374936
  90.1440807  94.7696257  19.0766275  89.2224844  94.8866535  19.3072689
  90.2995511  95.4075695  18.3801448  47.1968937   6.4494216   1.2154861
  46.9148970   5.5418682   1.3297550  46.4237881   6.8993533   0.8747455
 105.8336027  56.2222106  35.3641272 104.9075921  56.4307935  35.4875374
 106.0095056  56.4448793  34.4499564  15.6072656  62.6892764  50.2865410
  16.4788906  62.7649338  49.8982477  15.6773702  61.9497926  50.8902645
   1.9222490  97.1604858  16.9789076   1.9635121  97.3139379  16.0349894
   1.9788209  98.0339760  17.3662663  34.5518351   5.5055022  14.4194055
  33.6928010   5.1789308  14.6870685  34.6269178   6.3593072  14.8455644
   8.0551044  97.8857220  34.9878740   8.8716690  97.6271606  35.4151917
   7.8856889  97.1891350  34.3536043   7.3062366  14.3660915  19.3128443
   7.1643150  13.4214127  19.2522514   8.2363188  14.4557261  19.5205557
   2.9632632  95.7869620  52.3152304   2.2942916  95.9244109  52.9859114
   2.4909774  95.8650095  51.4863205  40.4192266  45.5225801  79.4827449
  41.0767108  45.3259634  78.8154459  40.8734241  45.3857624  80.3141397
  42.9785252  12.9178095   2.2728953  43.0095768  12.1960616   1.6449246
  42.2000122  12.7421451   2.8013805  48.8379860  27.5786781  34.3460345
  48.0748177  27.8055120  34.8774028  48.4995031  26.9722581  33.6873126
  41.5149927  19.2299318  64.0879822  42.2947025  19.7809362  64.0196228
  41.7170095  18.6155236  64.7936201  19.6301484   7.4611080  46.1918020
  19.2158210   8.0690473  45.5794477  19.8683119   6.7053872  45.6547737
  10.4621212  70.3371484   2.0487718  10.3847400  69.5878727   1.4581528
   9.7398368  70.9138734   1.7999218 106.0187716   1.7960121  14.7816193
 106.4348797   1.0820300  14.2985916 106.3986502   2.5912318  14.4080555
  61.7721605  48.3852940  86.8780641  62.5815153  48.8269409  86.6209174
  61.3051414  49.0308764  87.4084878  30.1211301  93.4274174  35.8095932
  30.2112619  92.4805839  35.7018232  29.4997636  93.6877961  35.1296425
  39.3500113  36.3779831  24.1992950  38.7025809  36.4838719  24.8963284
  40.0813341  35.9245253  24.6185517  20.0983564  90.0952775  51.4026880
  20.7307283  90.7151265  51.7661810  19.4239751  90.6463439  51.0054874
  82.9993208  81.6696364  20.2070117  83.4755858  81.1178691  20.8274603
  83.2848450  82.5603265  20.4104280  75.3339051  59.5629127  40.8906651
  75.4956429  59.5028359  39.9491405  76.1037781  60.0136048  41.2376595
  41.8183652  80.9761841  47.8271294  42.3509065  80.3850014  48.3592319
  42.3546497  81.7636020  47.7343893  26.1214447  41.1530972  45.9222460
  27.0201778  40.9467459  45.6654787  26.1608577  41.2520981  46.8734980
  97.9215964 101.5540663  20.7915068  97.3544606 100.8306251  20.5246329
  97.3698219 102.3323233  20.7134509  64.7193861  85.5888575  69.1667050
  64.3018770  86.4489215  69.2137402  64.8402214  85.3309768  70.0805586
  11.4325416   5.6226897  38.3928585  11.1372089   6.2953329  37.7792120
  11.4205420   4.8121706  37.8837943  42.0939398  37.5652242  29.9415350
  41.8132782  37.0216036  30.6777000  41.9218063  38.4624839  30.2270627
  28.9217424  10.8240914  18.9366210  28.3353519  10.8167493  19.6931410
  28.4980679  11.4116156  18.3108819  49.5696402   5.6667370  26.0386348
  49.5167303   6.0351032  26.9205308  50.1622629   4.9201542  26.1260700
  92.6561355  67.5934070  75.6072479  92.6339531  66.6565090  75.8020884
  92.0044184  67.7097648  74.9159032   5.5778877 100.6267102  26.5354109
   5.0318662 101.2192846  27.0520782   5.4585449 100.9180111  25.6314588
   0.3335516  97.3610307  19.7596610  -0.2208837  97.4899439  18.9901078
   1.1449806  97.8236941  19.5504737  74.8867750  57.1721970  82.0966780
  74.3141222  56.5317487  82.5187295  74.4439459  58.0109774  82.2254503
  36.4723492  27.3780632  12.5421751  37.1278620  27.5951433  13.2050562
  36.9499636  26.8613648  11.8932223  43.0902330  89.7114987  40.6535625
  42.4801532  89.4812817  39.9528217  42.6625959  89.4057543  41.4534855
  33.2212329  22.8148890  50.9562778  33.1872702  22.0943928  51.5855360
  33.9142895  23.3874846  51.2849665   1.3640610  85.4519875  13.4586287
   0.9022156  86.1446948  12.9863095   0.6684963  84.9297173  13.8581979
  87.9041433  53.7481221  86.8125711  87.7232408  52.8098446  86.8686194
  87.4883985  54.1191124  87.5908737  16.6155446  24.9449086  27.8523278
  16.9789660  25.7734656  27.5398421  17.3417008  24.3247795  27.7862430
  69.1085386  29.3564820  15.1326561  69.0743971  28.4708428  14.7711158
  69.7051716  29.8292422  14.5523465  42.8272390   5.6746995  40.3100395
  41.8809557   5.5315888  40.2928877  43.1086588   5.3150439  41.1512804
  25.4808799  95.4468221   9.1504312  26.2685863  95.8390988   9.5270866
  25.2055637  96.0651267   8.4735751  54.0585899   3.2815129  30.1367426
  53.9364386   3.7658322  30.9532881  53.1779766   2.9955897  29.8938298
 105.9164556  86.7202372  48.9188290 106.6630729  86.6390318  49.5122957
 106.2165626  87.3215885  48.2372522  87.4961718  95.9532417  14.8753357
  86.5996643  96.0360915  15.2003622  87.5037678  95.1206423  14.4031584
  22.6335859  20.6220961  50.1784039  23.4522104  20.2402878  49.8616934
  22.3887491  21.2564516  49.5046997  44.0763140  21.3709378  55.8008337
  44.9834108  21.5999937  56.0031700  43.9804506  20.4719448  56.1152363
   2.4811522  72.8507168  35.0817323   2.4441926  72.3168952  35.8753943
   3.4118525  72.8878171  34.8611641  32.7956001  92.4231828  58.9838171
  32.0653192  92.8181250  59.4602060  32.3995964  91.7039043  58.4918261
  27.9096118  99.4853183  17.0458055  28.3120719 100.1295228  17.6282644
  28.0929748  98.6414845  17.4587882 101.3932594  99.1290034   2.9889795
 101.4979847  98.2952834   2.5305301 100.5602105  99.4752727   2.6690483
  97.3337396  96.4110560  30.9280252  97.7305992  97.2772700  31.0197163
  98.0264314  95.8019549  31.1837721  41.6783190   2.2471949  30.5839849
  41.9306040   1.3873070  30.9204030  42.1835136   2.3463215  29.7770238
  82.1690305  93.3927173  54.1616011  82.1961304  92.9616923  55.0158358
  83.0885168  93.5252596  53.9309311   2.3907153  96.4825625  42.1049070
   2.3376886  96.3790650  43.0550146   3.3188931  96.6408134  41.9326448
  44.9711990   2.1701621  48.6148357  45.2262068   1.2477104  48.5979557
  44.0194035   2.1537404  48.7150574  47.4828196  20.4578924  38.1847191
  47.1828318  19.6027589  37.8765225  47.0124865  20.5945945  39.0071106
  36.2782216  33.9480734  53.8821697  35.6482291  34.6254635  53.6362362
  35.7384682  33.2153106  54.1787386  42.2070885  33.7370682  35.1087809
  42.4981642  32.8993225  35.4689026  42.8260899  34.3769479  35.4603791
  28.4856629  10.0742972  23.7320852  28.2200837  10.7992864  24.2978501
  29.2866182  10.3823721  23.3080649   6.4440767  89.8422617  39.8766756
   5.7891265  89.6969540  40.5594301   7.2678033  89.5536871  40.2696514
  74.3448067  76.4185660  66.7268866  73.5215878  75.9886878  66.9587177
  74.1458344  76.8997782  65.9237212  19.0538895   6.0574895   4.7790539
  18.2774377   6.5300429   5.0791335  19.0446150   6.1613202   3.8275474
  38.5660839   0.6266917  19.1536725  37.9366279   1.3054758  18.9102185
  38.0320716  -0.1544640  19.2980993  15.1521409   4.6968397  43.3912086
  14.7749221   3.8225651  43.2933187  14.6952546   5.0719041  44.1440773
  62.6898766  25.7425833  29.8871088  63.1067324  25.4872417  29.0641475
  63.4150410  25.8307219  30.5056572   8.7070266  61.3393790  28.6618042
   7.8307430  61.6946799  28.5130715   8.6075107  60.7671983  29.4226837
  46.8985367  20.2029967  12.5585556  46.4045668  19.7120941  11.9018650
  47.6912785  19.6851122  12.6985037  15.0115816  99.9633018  39.0814972
  15.4519121 100.1305182  38.2482028  14.2932550  99.3713538  38.8582563
  94.7488832  99.7879117  83.7709573  95.5836153  99.4442409  84.0892991
  94.1649151  99.7376054  84.5277154  72.0946360   4.8475963  48.7291288
  72.5534248   5.5128115  48.2160664  71.2984657   5.2848846  49.0310001
  32.3485970   9.8057413   6.7149043  31.4906454   9.9496865   7.1141917
  32.1776843   9.8068482   5.7730877  60.3106872  94.6194572   6.7123771
  60.0689212  94.1134603   5.9366530  60.0076381  95.5074746   6.5231282
  14.3025009  83.2084746  11.3597023  14.2924968  83.0091245  10.4235446
  13.3844797  83.1558640  11.6256106 107.7593549 101.6660398  45.1326847
 107.8269513 100.7560445  45.4217720 107.8057249 102.1779430  45.9401703
  22.5337163  85.9338684  26.5919685  21.5836422  85.8735199  26.4922190
  22.8468172  85.0407691  26.4485216  21.4581251  19.5083797  11.5997100
  21.5627098  19.9052179  12.4644732  20.5322480  19.6312141  11.3902020
  24.0392971  35.3627253  66.0259771  24.8483896  34.8775458  65.8641052
  23.8954377  35.2808046  66.9687557  42.0441866  29.3652487  41.7258358
  42.6883173  30.0440693  41.9271612  42.1701145  28.7057018  42.4080181
  40.1476375  74.6835715  31.5893841  39.6657173  74.0338904  32.1011448
  40.9477035  74.2317040  31.3211679  81.5814114  28.5951805  28.4382176
  80.7841873  28.9191031  28.0189967  81.6156101  29.0562916  29.2763329
  61.4169168   0.8307774  23.6989832  61.8219948   0.5076771  22.8941560
  61.4417124   1.7838487  23.6137056 100.3449726  55.0924837  72.4255115
 100.3225994  55.4881691  71.5542108 101.1625290  54.5949128  72.4416786
  15.3505433  26.6771102  33.8683009  16.0205793  27.2575665  33.5072565
  15.7039452  25.7963800  33.7431836  62.6911306   9.0332228  28.5758710
  63.5761452   9.3937320  28.5209465  62.6745033   8.3379179  27.9182196
  63.4793472  12.4199724  22.7749109  63.2842875  11.6438389  22.2497439
  64.1213036  12.1189165  23.4179425   9.0669242  88.6734361  26.1888409
   8.5006944  88.6438269  25.4176450   8.9289657  89.5474894  26.5538526
  30.9284472  33.8771224  34.4864917  31.4182544  34.4814873  35.0442219
  30.3899336  34.4438863  33.9342093  30.8176470  11.1780047  34.4166446
  30.3894782  11.9624102  34.7595906  30.0963259  10.6137037  34.1382694
  45.4117489   7.5551200  11.5244353  44.8401880   7.3016566  10.7996547
  46.2943459   7.5252825  11.1551714  38.9133016  90.9731085  34.9549413
  38.1435672  91.5420539  34.9610877  38.9216081  90.5720026  35.8240080
  84.3191910  13.7930071  73.1664944  84.6397018  13.0320513  72.6822948
  84.1589165  14.4548297  72.4937868  95.8558877  78.0758245  70.1173544
  95.8683713  78.5793597  70.9313107  96.3296064  77.2707779  70.3264523
  62.5763702  21.0179210  10.5777335  61.9158173  20.8176422  11.2408996
  63.3983564  21.0674047  11.0657156  58.0433416   6.7242694  47.0574808
  57.5152397   6.0345143  46.6555071  58.9152479   6.3388252  47.1437263
  29.9265242  12.8161192  26.7645812  29.6356511  13.6621034  27.1050739
  30.0719452  12.9707801  25.8312201  55.2876568  11.2508643  27.4472117
  55.8828068  10.5014527  27.4269938  55.3610229  11.6385770  26.5751290
  43.5607624  16.1458039  51.0511827  43.1498909  16.9734764  50.8014345
  42.8602505  15.4979873  50.9747076  74.1898870  10.8824492  26.2987661
  75.1423502  10.7938027  26.3332748  73.8596535  10.0689471  26.6800714
  70.9328270   4.5767865   4.8143527  71.7513466   4.9219808   4.4578525
  70.4611206   4.2430410   4.0512419  73.6408830  45.7395690  84.9815869
  73.6770964  46.3863420  84.2768848  73.1711936  44.9972015  84.6014383
  72.2166681  14.5328569  38.6581850  72.4025297  14.3309140  37.7411771
  72.0451498  15.4745317  38.6660576  44.9462605   1.0952555   6.4528400
  45.2469397   2.0039880   6.4582175  44.0575457   1.1391134   6.1000019
  49.2878532   4.9406916  50.1569414  48.7221384   4.3678439  50.6746721
  49.4685459   5.6833029  50.7332277  64.0081501  30.3979540   2.9499733
  64.5942450  29.6465421   2.8599578  64.4485760  30.9714580   3.5771492
 107.0001086  74.7143657  53.6198473 107.6628025  74.7640116  54.3087626
 106.9371041  73.7814886  53.4148932  50.7880449  33.7260509  43.6642265
  50.4713821  32.8857565  43.9956808  51.1031294  34.1868567  44.4417953
  23.6718217  62.5349099  42.6999187  22.7254573  62.6246268  42.5877476
  23.9633314  62.0722396  41.9143057  28.5618496  14.9148059  19.3110406
  28.3288217  14.2154574  18.7004328  29.4100809  15.2313066  19.0002954
  46.9559526   7.8936714  42.7670097  46.1547947   7.8961128  42.2432041
  46.8861008   8.6752450  43.3151817  74.3788576  13.8030350  42.8145885
  75.0310373  13.2866025  42.3411036  74.8811913  14.2677200  43.4838820
  21.9108152   8.1659210  39.2403960  22.5620270   8.8391966  39.0432763
  22.3596144   7.5656223  39.8357558  38.0343652  43.5227108  29.5929980
  38.7310648  43.9270067  29.0759015  37.7794719  42.7500200  29.0888023
  30.9396553  14.2518544  58.9848137  30.2517271  14.6532917  59.5156908
  31.5932012  13.9601398  59.6204329  86.2655163  30.4836202  58.8071871
  85.6816292  30.9695077  58.2247591  86.1519051  29.5683289  58.5511303
  42.0215845  22.1414375  47.0615435  42.8204870  22.2363210  46.5429115
  41.3708353  21.8130946  46.4411020  30.2575294  64.4836599  29.2648935
  30.4007951  63.5442359  29.1500688  29.5189516  64.6852905  28.6903644
  97.9169639  97.7628902   9.1619319  97.2607454  98.4500463   9.2777967
  97.6670631  97.0847724   9.7895759  10.7270042  98.2448713  17.5499976
  10.3194038  97.4973465  17.9873776  11.4767210  98.4660346  18.1024873
  48.3150768  16.7533863  33.9123702  47.8229666  16.7039073  34.7318888
  48.9769459  17.4265099  34.0707040  45.4613829  22.1847129   2.1081673
  44.7545004  22.7234888   2.4635096  45.0208139  21.5638161   1.5279777
  12.2502978  58.3638077  86.5895483  12.6535686  57.5034493  86.7052415
  12.5417026  58.6504793  85.7240218  61.6884327  20.8697581   7.9608017
  62.2479916  21.0924196   8.7048101  61.1634398  20.1309299   8.2686102
  74.5165730   9.2093039   8.3734018  75.1489449   9.0191197   7.6804614
  74.6589947  10.1328588   8.5807490  85.3680420   3.0711257  64.0523338
  85.3582668   3.0704033  63.0951834  84.4980621   3.3838084  64.3005085
  91.7473888  14.1009152  37.5584483  91.8876648  14.9083769  38.0529785
  92.3701477  13.4786582  37.9342175  29.2889547  22.3402238   4.5313510
  29.6370220  21.4733267   4.7400838  29.9909878  22.9446006   4.7724089
  31.5343467 101.0654698  24.3143868  30.5780784 101.0884395  24.2789459
  31.8134586 101.3745875  23.4525418  21.8685714  82.4617607   8.2875651
  21.2096159  81.8875796   8.6778504  21.4478151  83.3208556   8.2536286
  93.8381290  38.9370179   4.8105901  92.9221821  39.1592956   4.9775037
  93.8238907  38.0026674   4.6031803  64.7903395   2.6748955  39.1949964
  64.1027546   3.3302748  39.3130612  65.5100155   3.1541047  38.7843180
  30.4228822  66.8240554   0.7363188  29.5871679  66.5055186   1.0774143
  31.0397045  66.1134655   0.9118694  10.6167737  91.2000484  41.7280054
  11.4980642  90.8540303  41.8688345  10.4089538  90.9652264  40.8236265
  34.1358280   6.2923861  36.8054080  34.1753435   7.1444345  37.2397852
  33.2024002   6.1435980  36.6543865   6.2839881  69.1846640  78.4438038
   7.1758453  69.2258412  78.0986547   6.2376443  69.9035937  79.0740633
  82.3034191  28.8703084  17.9871166  83.0776596  29.3437052  18.2915521
  82.2352982  28.1187510  18.5759711  11.3939420  93.2599784  29.0858197
  11.1364929  93.7389619  28.2980847  11.2347356  92.3410810  28.8701534
  82.0967007  17.1154857  42.7549267  81.6935825  17.7967012  42.2167110
  82.9126930  17.5075054  43.0658960  60.9752989  23.2077599  36.6166687
  61.8373728  22.8868151  36.8813515  60.5501223  22.4495625  36.2159276
  53.8448858  37.8337717  28.2628846  54.3498707  37.0914459  27.9309535
  54.3066168  38.6044288  27.9325390  74.1121602  62.9499536  81.7778241
  74.0371179  63.8965409  81.6571057  73.4902549  62.5786477  81.1520457
  26.6458178   4.8091277  59.0071392  26.6096330   5.6744343  58.5995007
  27.5580907   4.7107530  59.2797470  15.5484287  84.2338330  34.4742417
  15.2039567  84.5571096  33.6417389  16.2296716  83.6092348  34.2252016
  42.4889278  11.9025111  20.9493423  41.8304586  11.6233432  20.3131723
  42.1907187  11.5330732  21.7804980 104.8202896  13.6603272  24.9052143
 105.3891850  12.9999709  25.3008461 103.9630127  13.5069489  25.3024316
  61.2491417   1.6489099  48.3701277  60.7068443   1.6257283  49.1585445
  62.0704556   2.0488308  48.6560249  27.0873825  92.6407499  22.7606916
  27.6572696  91.8738241  22.8180027  26.3747398  92.3669822  22.1832633
  84.7812827  92.2163136  18.0468321  85.4632850  91.5885324  17.8080952
  84.4368144  91.8909980  18.8785434 102.4154329  67.6019269  63.8772386
 101.9604874  66.7833930  64.0753787 102.8265190  67.8537076  64.7041863
  68.8341093  26.9019461  39.1324091  69.3978834  26.1305833  39.1906166
  69.0802765  27.3166919  38.3055973  74.0531826  13.8495898  20.3839445
  73.5807657  13.0625045  20.6551504  74.7219658  13.5306489  19.7779453
  19.2651117   5.6529689  11.7565608  19.6833980   5.0274026  12.3481143
  19.4893301   5.3404987  10.8800220  20.9023658  94.8851771  56.1576700
  21.4037076  95.4254872  56.7683697  20.5787460  94.1588498  56.6905403
  42.5392675  13.8431609  36.8314743  43.4880018  13.7867272  36.7176867
  42.3535299  13.2753026  37.5793195  30.8595014  25.0406814  54.8950720
  31.7284989  25.0052476  54.4952965  30.9918332  25.5185175  55.7138443
   9.0821159  30.8338141  36.9068789   9.0157437  30.8220196  37.8617024
  10.0197160  30.7551074  36.7309737  53.4568787   5.3021955  40.0557804
  53.3271456   5.6047094  40.9546041  53.4039831   6.0973090  39.5254683
  81.9116354  73.2328218  81.5535474  81.9060135  73.5986798  80.6690430
  81.0907173  72.7445310  81.6159886 106.7073345  80.8083718  69.4568950
 106.1441231  80.7086819  70.2244180 106.3335800  81.5495198  68.9801997
  55.6077003  55.0106239  26.3248634  55.4908514  54.5041752  25.5210662
  54.7173405  55.2148056  26.6108704  66.0272026  17.4746263  34.8667812
  65.3692865  17.2627139  34.2046142  65.9055519  18.4090734  35.0348306
 106.7007931  90.9446842  33.1734276 106.1975535  90.1597673  33.3899641
 106.9085797  90.8471877  32.2441530   4.2507032  14.3461859  39.5084524
   3.5556462  14.9889243  39.6499300   4.2566246  14.2042565  38.5618520
  28.5823957  80.9876639  45.4829502  28.2625143  81.1159451  46.3759518
  28.3953945  80.0686891  45.2912474 104.3290098  68.9297039  53.7681055
 104.3343933  69.6542627  53.1426334 104.2787512  69.3533546  54.6249771
   9.0199033  68.4348208  47.4085903   8.3245889  68.2527597  46.7764330
   9.3932191  67.5762541  47.6079035  37.0611548  31.1703825  74.4503641
  37.5732827  31.8634844  74.0337515  37.6230454  30.8480120  75.1550579
  46.4395142  20.5082488  44.8382139  46.7959499  21.3904476  44.7337723
  46.4367008  20.3614926  45.7840919  17.9691307  61.3769157  30.7066679
  18.4663812  60.6932075  31.1555672  18.5928432  62.0949347  30.5986595
  54.8647881  38.5587287  25.2584815  55.0473738  38.8967538  26.1351991
  53.9152098  38.6351800  25.1652646  21.6606370  90.8544190  31.8829346
  21.5808527  90.5552668  30.9771895  20.7907764  90.7170624  32.2580457
  35.8244228  16.4130473  34.2534637  34.9338150  16.2145281  33.9642644
  36.0548663  17.2156763  33.7855816  64.2817211  30.0290394  36.6284800
  63.9700413  30.0544953  37.5331569  64.4474936  29.1017985  36.4582658
  48.0798618  86.0756380  63.3450079  48.6438934  85.4506654  62.8894758
  47.9463855  85.6906826  64.2111635 107.1188815  94.4708736  48.4180355
 107.8607949  93.9244223  48.1588268 106.4705427  93.8513608  48.7528372
 107.9061365  28.4868615  79.8828149 108.2474089  29.3275827  79.5779270
 107.4157858  28.1425064  79.1363519  56.9537067   9.7659969  48.6295891
  56.9452810   9.1686600  47.8816938  56.1009932  10.1998079  48.5992527
  25.6474153  93.7098307  47.3367834  26.3971511  93.1993825  47.6426649
  24.8856632  93.1773729  47.5658226  53.5890150  22.6433063  28.7069297
  53.0453539  23.4307671  28.7308621  54.3521404  22.8627825  29.2414379
 102.9072507  81.6849167   5.5010366 102.7293142  81.0575778   6.2017626
 102.0993193  82.1922321   5.4228860   8.1512443  63.6091883  33.4130859
   8.6246816  63.1202609  32.7400041   8.6622325  63.4742291  34.2111540
  35.8189368  37.5403142  14.2214429  34.9679852  37.6333165  14.6497655
  36.2790823  36.8827868  14.7431326  36.5677238  32.9714561  26.4769411
  36.8277717  33.4485674  27.2649574  36.4340615  32.0716834  26.7748928
  56.0498810   2.9540187  23.4257793  56.7139006   2.7408072  24.0814114
  56.3909245   2.5854856  22.6108527  96.8181372  33.5860806  87.9851452
  96.1296034  34.2406791  87.8683003  96.8121338  33.0840653  87.1701748
  32.8329921  31.0857677  34.7471428  32.7508712  30.8144426  35.6614017
  31.9547224  31.3790488  34.5045304  32.7072406  41.4591599  37.5623202
  32.8845739  42.3971319  37.4916768  33.4857535  41.0995817  37.9875922
  66.9623280  17.9391217  47.4083996  66.7082691  17.4936557  46.6001606
  66.1428690  18.0439866  47.8918457  70.0956559  62.9818302  77.4094361
  70.2572703  63.9044004  77.6068622  70.8622837  62.7066200  76.9066721
  65.2327585  28.1383467  10.0165534  65.1872301  27.2618747   9.6345127
  64.6193981  28.1116748  10.7509303  48.0642462  23.1753135  21.0743427
  47.4923229  23.6656713  21.6648340  48.9440680  23.3097839  21.4265776
  43.5865784  65.3027439  13.5744107  42.7180862  65.0656462  13.8995850
  43.4143400  65.8722782  12.8246152  39.8934595  86.6050775  42.1968031
  39.5596782  86.6930003  41.3040018  39.3282167  85.9461791  42.6000214
   9.5133201  53.4394986   2.1830741   9.8158733  53.9960916   2.9006389
   9.2059032  54.0539367   1.5165943  35.1202202  29.5185328  46.7591143
  34.5053768  30.1435590  46.3750029  34.8762417  28.6760974  46.3756895
  16.2651769 101.0542334  41.2080002  15.4656545 101.1444939  41.7265081
  15.9730665 100.6668972  40.3828478  16.0637752  91.0324342  16.2334776
  15.2221099  90.9413368  16.6801715  16.4889471  90.1825292  16.3480270
  83.5308429  88.5786147  35.5727291  84.2372855  88.8057453  36.1773634
  83.6641939  87.6491422  35.3869081  55.0672142  90.1624627  43.3837175
  54.5409957  90.0468249  42.5925493  54.7320072  90.9673078  43.7788057
  95.0072288  67.4419504  85.8374990  95.6693363  67.8475230  86.3972810
  95.2113628  67.7581578  84.9573999  78.2630396  16.2097567  78.3095211
  78.0970335  15.3093713  78.0302757  78.8868046  16.1257141  79.0306872
  28.5707370  94.5143075  49.4739389  28.5167924  94.0307046  48.6496496
  28.9959804  95.3393859  49.2401743  60.1646471  31.1719465  27.7672911
  59.5254612  30.6741309  28.2770514  60.7802296  31.5087438  28.4183288
  63.6866331  35.2899647  23.1832457  64.0165472  35.8732939  23.8667035
  63.2173777  35.8676195  22.5812912  63.6444807  22.8243756  48.6815119
  64.5399714  23.1405807  48.5617685  63.5757494  22.6494074  49.6200705
   9.3160057   8.7559372  25.8711457   9.3604857   9.5647055  25.3610992
   8.4554172   8.3904713  25.6660748  61.2401104  11.1966836  16.5238237
  61.3888168  10.6034935  15.7874513  61.8266153  11.9349515  16.3588846
  52.0715904   4.8893347  46.5544176  51.8105364   4.4017097  47.3356390
  51.4282370   5.5948043  46.4863110  76.9466352  21.8078566  30.1938915
  76.7749548  20.8729386  30.3065205  76.4957714  22.0379972  29.3814921
  65.6735945  14.6567702  19.9077618  65.0854397  15.0494635  19.2627013
  65.2620602  13.8216102  20.1299787  17.5400698  12.2739959  39.1403818
  17.3140383  12.6001418  40.0114536  18.4679210  12.0472360  39.2028546
  32.4001924  88.9242250  31.8602467  32.1168891  89.8044629  32.1075416
  31.8749420  88.3408422  32.4079776  58.7814903   6.4974290   7.5252378
  59.4390392   5.8042234   7.4675471  58.0714893   6.1119533   8.0386007
  30.3390336  26.1789250  37.5327802  30.0159955  25.5026221  36.9373870
  31.1332798  25.8037305  37.9130912  36.5206567  99.6565530  42.2487736
  35.7798807 100.1078270  41.8440056  36.8211500 100.2551473  42.9326010
  35.7709209  95.6724418  31.2543678  34.9630014  95.4173941  31.6998458
  35.6434242  95.3921730  30.3480411  51.4677334  35.3275704  40.1444435
  50.5368900  35.4314375  39.9470329  51.5338612  34.4564724  40.5356598
  31.7790166  98.4977070  54.2705059  32.4605171  98.8194711  53.6803770
  31.4547197  97.7012072  53.8502073  67.5815678   3.0774373  35.3686571
  67.0198393   2.3269774  35.5623102  68.1454659   2.7769354  34.6559477
   7.7108614  85.2029593  11.8980193   6.8313066  85.5740101  11.8277621
   7.6062433  84.4463307  12.4749076  29.1270900   1.5867148  -0.2463702
  28.1821656   1.6961764  -0.1397686  29.3656445   0.9221647   0.3999251
  22.5014917  99.6005020  28.4175038  22.2982208 100.4719023  28.0775404
  22.3950521  99.6823224  29.3652415  57.4987793   8.6434245  50.9015703
  56.9177389   8.9544684  50.2073956  56.9223547   8.1722271  51.5031815
  52.2516203   5.9247959  19.2804408  52.9641533   5.8382839  19.9137211
  52.0767879   5.0287575  18.9927208  21.8808404  91.8658436  47.1583652
  21.8260471  92.4911261  46.4356947  21.2189380  92.1628607  47.7827835
  35.5091230  98.9640585  32.3241925  35.1009790  99.2343340  31.5016341
  35.1871292  98.0745805  32.4704146  58.0420542  34.9138927  20.8917189
  57.9311180  35.8160591  21.1917472  58.0373478  34.9768281  19.9366009
  46.9682360  44.6671057  21.5212846  47.2753906  44.5954084  20.6175447
  46.5405941  43.8287830  21.6961312  45.3636599  12.2810364  23.5162973
  46.2607622  12.3691750  23.8382792  44.8179245  12.3890114  24.2952347
  13.1597892  90.0091106  42.2371626  13.3468524  89.7321708  41.3401985
  13.2860557  89.2192800  42.7629566  33.4831754  78.8696034  12.3725069
  34.2687170  78.4617788  12.7369750  33.7578670  79.1946179  11.5151036
 102.3356875  66.9436175   5.4893011 101.9473155  66.5444691   6.2678128
 102.2683342  67.8857834   5.6442696   8.3467752  34.1924071  31.4660645
   9.0440714  33.5529661  31.6114163   8.8036132  34.9852562  31.1851406
  53.3939552   1.9046369  21.3499093  53.1981230   1.4629328  22.1762133
  52.8394318   2.6848099  21.3580799  70.1484203  11.2478459  41.1552620
  70.1727390  11.4813662  42.0832205  69.8992777  12.0581698  40.7108116
  93.7112713  34.5456761  84.8657685  93.9603710  35.1853638  84.1986996
  94.4044113  33.8862091  84.8358890  37.0149223  97.1668310  35.4464984
  37.9513828  96.9701464  35.4223084  36.5907136  96.3416351  35.2112699
  47.0920897   3.4058759   1.5769045  47.7021885   3.6034477   2.2875206
  46.5410089   2.7037287   1.9226326  59.9698210  12.2933137  54.9166346
  59.7500992  12.0911312  54.0071964  60.8508873  11.9383574  55.0347710
  88.7149715  14.0253150  37.4478912  89.4704914  14.0007710  36.8606806
  88.7844181  14.8702192  37.8923512  66.8889809  13.1037569  61.1989594
  65.9900188  12.7749825  61.1953402  66.8498325  13.9023221  61.7252588
 100.8265026  89.3166668  23.1702423 100.8635982  88.5336835  22.6208854
  99.9135478  89.3675811  23.4533525  63.2380247  36.8218112   3.8598922
  62.6607752  37.4081182   4.3490303  62.8854322  35.9470963   4.0235651
  99.8611116  45.1161575  85.1342827  99.6892547  45.8292299  85.7492834
 100.2510404  45.5454128  84.3727547  22.0711080  97.2962637  27.2335386
  22.8478567  97.0812619  26.7171407  22.1043769  98.2478733  27.3313355
  21.1602298  79.7411663  70.2031136  21.5233604  79.6040136  69.3281555
  21.3723175  80.6512410  70.4105043  81.0829353  10.1779318  28.0361772
  80.8872795   9.5022732  28.6853600  82.0248985  10.3256047  28.1206083
  38.4039450   7.0265394  10.7170892  37.7134132   6.5111399  11.1339331
  39.2183018   6.6508776  11.0516572  88.1724401 100.3693632  21.6966748
  87.6600393 100.5250040  20.9032917  88.3486720  99.4285733  21.6872644
   6.9801466  79.4742400  29.6164250   7.0511762  79.6180088  28.6727548
   7.1146146  78.5328967  29.7260785  98.0964549 101.7137608  49.9470329
  98.2068857 100.9573229  49.3709803  97.1846183 101.6650959  50.2341175
 102.4304446  91.1169452  43.0778265 102.0141204  91.0058159  43.9325523
 102.6845630  90.2313561  42.8182316  24.3453161  94.9867297  17.6193130
  24.1847507  95.7849354  17.1160054  25.2658550  94.7815616  17.4557745
   1.1288150  49.2776317  82.9105907   0.1921733  49.4743552  82.8953391
   1.5457328  50.1134768  83.1198203  51.4763975  34.8903370  22.4138284
  51.2586546  34.6806097  23.3220339  50.9848022  34.2526078  21.8962669
  55.8046333  92.9276396  50.7671309  55.8603374  92.1077550  50.2762985
  55.4512397  92.6729883  51.6194820 102.1818336  88.1311173  10.5101752
 102.2079619  87.9551429  11.4506984 101.5457614  88.8402874  10.4167759
  17.2183076  93.3419747   0.5495939  16.7355100  92.5645430   0.2689917
  17.9793970  92.9959828   1.0157105  43.3813755  86.0609514  11.8238997
  43.5884038  86.7998762  12.3960543  43.9933673  85.3742201  12.0886576
  89.1084146  53.4093910  83.6839702  89.6923637  53.9209198  84.2439493
  89.6280241  52.6469412  83.4291959  75.1403498  52.9345697  87.7635785
  74.8805284  52.9925776  86.8441440  74.8952937  52.0473217  88.0262008
  76.4737034  32.6265454  14.6534193  75.8923340  33.0923700  14.0523767
  76.2071037  31.7099714  14.5823562  96.5964269  49.6967277  71.0001737
  96.5712166  49.2177529  71.8285340  95.7695961  49.4767032  70.5710226
  56.7669964  21.3646293  52.9259348  56.5582943  20.5191040  52.5287437
  57.2365856  21.8413734  52.2415113  88.7901783  51.1192588  73.1044405
  89.2755270  51.4556554  73.8577693  89.0174579  50.1901245  73.0685824
  61.1303091  10.9671772  41.8864202  61.6780663  11.6750491  42.2257042
  60.2404976  11.2084949  42.1437693 107.8164395  74.4772012   3.6968330
 108.2355245  74.1965158   4.5103523 106.8840273  74.5179064   3.9093977
  55.2728549 100.7102028  31.4776444  56.1050407 100.8157885  31.9386768
  55.4986660 100.8012094  30.5519247  64.2976475  16.4579737  55.1721954
  64.8539925  16.1948812  55.9053373  64.2885494  15.6959879  54.5929480
  32.2572184   3.4980544  30.4495144  32.8671646   2.8197330  30.7394743
  32.7233958   3.9563367  29.7503090  85.0720119  22.7434635  40.4220247
  85.4084587  22.0719528  41.0154104  84.8829651  22.2728181  39.6102428
  42.9385567  32.5873327  15.9445333  42.6150036  32.3968792  16.8250287
  43.1210232  31.7276335  15.5652499  61.8083143  28.7124014  29.8883533
  62.1718454  29.2526102  29.1867471  62.1227312  27.8286672  29.6975875
  35.4528403  62.3809385   2.1138389  36.2807059  62.8528214   2.0233303
  35.0517154  62.7497578   2.9007962  56.7416000  13.9432132  34.5498967
  56.2697983  13.9479494  35.3827310  56.5814924  14.8109818  34.1789842
  33.8498537   3.8920389  85.6619595  34.2597572   3.0599438  85.8982429
  34.4031993   4.2418419  84.9636164  22.9052154  90.3042454   6.5744591
  22.0839874  90.0230701   6.1710203  22.6987878  91.1492104   6.9740260
  71.9297687  88.1060655  67.8599787  71.3960830  88.3639485  68.6115789
  72.8215782  88.0586702  68.2044554   9.8319286  12.3068345  30.1708508
   9.5109236  11.9279444  30.9891605   9.9405664  11.5568697  29.5860600
  99.6504458  87.7258296   1.6792101  99.9725254  87.7907450   0.7801647
  98.8017615  87.2905237   1.5987453  86.8597412  29.8034620  54.2534113
  87.3081589  29.0226912  53.9285231  85.9639454  29.5119834  54.4231558
  37.7134109  77.5373220  19.6862125  37.6208544  76.6165590  19.9308753
  37.3950219  78.0208635  20.4484773  97.5141907  55.7701111  15.7548189
  98.3672523  55.3438997  15.6719553  97.2122288  55.8789587  14.8530424
  13.6389104 101.0055246  13.8086522  13.2761852 100.5134320  14.5452023
  12.8748600 101.2606934  13.2915974  21.6889691  23.4095502  40.5875874
  21.4863300  22.9333735  41.3928366  21.7091775  22.7348018  39.9089575
 105.3660107  28.2116556  57.8184271 105.7906151  27.4146938  58.1359100
 104.6852112  27.8992152  57.2225046  61.5004873   6.9099957  14.9507046
  60.6413794   7.0994550  15.3278959  62.0205259   6.5902507  15.6879652
  24.4568817  94.5094783  43.4551525  24.4354860  95.1709480  42.7636099
  24.8619071  94.9543393  44.1996574  79.8250055  43.9553308   8.8472521
  79.2841530  43.2511902   8.4896260  80.7248402  43.6724997   8.6843377
  78.1629562  25.0522089  21.8519163  77.8938007  24.2724276  22.3374319
  78.8951635  24.7566128  21.3108754  80.8871460  27.9892182  11.9093478
  81.6346455  28.5786271  12.0097804  80.9905148  27.6185036  11.0329247
  10.1084844  99.9745909  25.0870848  10.6410638  99.6839685  24.3467283
   9.3545572 100.4060737  24.6850300  78.1071472  42.7212667   1.1807200
  78.4950686  41.8867159   1.4439251  77.9162121  42.6133728   0.2489829
  94.0884018  32.1395469  11.7463815  94.3003941  31.6983294  12.5689507
  94.4272614  31.5561247  11.0673964  35.7717180  12.1477771  18.1356764
  35.4499841  11.2617719  18.3021498  36.7030382  12.1092486  18.3533764
  50.9311954  17.2790180  66.0631746  50.4205505  17.6695953  65.3540033
  50.4480068  17.5039517  66.8582624  87.8756523  20.8246922  22.9067063
  88.1011105  19.9538684  22.5794983  87.6296997  21.3182616  22.1243191
  87.5763416  36.4717484  23.2256508  88.5067844  36.6939974  23.1923509
  87.5610256  35.5293751  23.3927679  63.5206866  53.3233439  80.2694428
  63.2002878  54.1902974  80.5183762  62.8381204  52.9705560  79.6985900
  65.9221935   6.8288499  45.0050163  66.1312294   6.6550016  45.9227943
  66.7415190   6.6658098  44.5377254  43.3469296  46.2345600   2.7630752
  43.8127232  45.4498816   3.0521297  42.4311256  45.9620380   2.7059022
  55.9607792  24.7513604  18.3637643  55.9431171  23.8314104  18.0999291
  55.3862524  25.1912999  17.7371848  52.9265213   3.9976478  24.0807843
  53.8241673   4.3231371  24.1480231  52.5784445   4.4159064  23.2932997
  78.4583378  25.2448368  37.6213717  78.4268379  26.1583424  37.9055285
  77.9438877  24.7725105  38.2759547  37.6972604  45.8314562   0.3344784
  36.8334460  45.4866266   0.1083168  38.2552719  45.0563812   0.3986327
  65.8256340  20.2964616  56.1514807  65.7470083  20.4798412  57.0876551
  64.9855328  20.5692053  55.7826042  20.7498574  34.1493678  38.5243320
  20.5126929  35.0605869  38.3520961  20.8805537  34.1108704  39.4717860
  53.4831429   7.8826463  53.6243010  53.1877804   7.6206470  54.4962788
  52.6951838   8.2150495  53.1943464  93.2919693  46.8336153   5.5272275
  92.6605415  47.1355867   6.1801761  92.8819561  46.0619688   5.1364791
  76.1096660  99.8436657  41.4797354  75.2779666  99.3758605  41.4044952
  76.7388431  99.2893920  41.0180521  46.8845856  17.4332851  87.9852947
  46.9345999  16.5990584  87.5186106  47.7933884  17.6412099  88.2022677
  89.9077511   1.4843038  27.8831458  89.6886921   0.9324143  28.6339211
  89.1794968   2.1022277  27.8195262  64.2102623  17.6555896  15.0884461
  63.5872269  17.4738264  14.3848681  65.0406313  17.8117692  14.6386385
  73.2813215  32.7490211  33.4045124  74.1899681  32.4664593  33.5081768
  73.2697868  33.2169771  32.5695777  28.9356518  53.6299944  71.4689636
  29.0577674  52.8823709  70.8838272  28.9883685  53.2566595  72.3487806
  43.0276958  92.4332465  16.4814317  43.0756513  93.2713706  16.0215628
  43.0444995  92.6678468  17.4092853  58.7529087  62.2350836   9.8971105
  58.2272911  61.4805651   9.6313024  59.5245075  61.8538284  10.3160596
  59.1061926  59.1949844  13.5627949  59.5921373  58.3882284  13.7337577
  59.7179365  59.7436047  13.0718589  57.9951811  11.0351026   6.8674302
  57.5946903  10.5340338   6.1569583  58.0656672  11.9252467   6.5225995
  40.8633327  16.0093009  36.4582181  40.0278711  15.6392086  36.1731529
  41.4588499  15.2605474  36.4892197  86.4211750  29.7000933  38.6927724
  86.4765549  30.0490260  39.5823860  87.2112846  29.1688204  38.5942531
  77.0436716  23.9917898  34.6896195  76.5322256  23.3622551  34.1813469
  76.4931154  24.1920924  35.4465842  58.2241964  44.6292257  12.6224160
  58.6233425  44.7776890  11.7651689  58.8229132  45.0475788  13.2410812
  65.6219101  29.0764213  29.1531587  66.1370945  29.8754311  29.2645359
  64.9446249  29.3144441  28.5200214  88.2511330  26.0685182  26.8736649
  87.6485443  25.4041004  27.2078395  88.9953423  25.5693746  26.5371609
  42.5524131  86.9326372  27.0715570  42.8070728  87.0647008  26.1583543
  41.6752378  86.5525825  27.0230365  73.5423613   8.8473094  19.2092800
  74.0626431   8.8392806  18.4058666  73.6741066   7.9784232  19.5886385
  70.5437613   0.4399482  14.3787873  69.7628164  -0.0812117  14.1923738
  71.2084103  -0.2037825  14.6239150 106.9950332  34.8775887  48.6407137
 106.1117433  34.5189095  48.7266159 107.5288536  34.3429303  49.2284250
  44.6692181  25.1729846  14.2553616  43.8093328  25.1540256  13.8352835
  45.1129293  24.3904877  13.9281762  75.5974960  28.9600348  40.0146532
  75.7857084  28.4429836  40.7978916  76.4313889  29.3761563  39.7962570
  52.3378173  89.6559484  26.4719748  52.7300254  89.3600316  25.6504917
  53.0807392  89.9460465  27.0012617  47.6091854   3.3737980  76.2227422
  48.0736724   4.1431175  76.5523284  47.6430027   3.4633957  75.2703446
  43.2467699  38.0337739  50.5149174  43.3559370  38.0381465  49.5639706
  44.0611410  37.6566100  50.8477545  69.5819283  12.6948345  38.3258557
  68.7894964  13.1742764  38.5675526  70.2943754  13.3139563  38.4850407
  35.1372091 100.6344691  19.4090474  34.9423687 101.3520993  18.8063252
  35.5042926  99.9474383  18.8527465  73.4384727  20.8862782  24.5449996
  73.1632519  19.9749422  24.4452453  73.0395365  21.1682177  25.3681588
  67.7526522  19.7791064  36.6790009  68.4209824  20.3489447  37.0596004
  67.5047731  19.1910183  37.3924017 107.2953709  89.5329649  24.8365569
 107.0206030  90.0765104  24.0981174 108.2309326  89.3897981  24.6935272
  37.7443933  24.7989106  14.3986428  37.1306586  25.3063583  14.9297357
  37.9476285  25.3690267  13.6570930  67.5267315   2.2246978  52.8498888
  68.2269144   2.1967354  53.5019588  66.9722795   1.4736643  53.0614614
  48.4655563  86.9854016  30.2309227  48.9657966  87.7698035  30.4560971
  47.5503055  87.2571296  30.2995086 104.5262241  51.4325905   8.8481015
 105.2114773  51.6498995   8.2160991 103.7681770  51.9437551   8.5646939
  45.6930494   8.6286587  16.1691689  45.0538826   8.9851725  16.7860901
  45.4412937   7.7108145  16.0671270  76.6715574  16.6179895  24.5595288
  77.1667624  15.8896089  24.9343181  76.1126471  16.2118649  23.8970232
  79.4381475  47.7721167  12.4797487  78.7701321  47.3045540  12.9811192
  78.9521551  48.4438324  12.0013762  17.0344821  99.5362972  52.5152493
  16.7346088  98.7159783  52.1236086  16.5132944  99.6253596  53.3131599
  21.4846412  91.0591096  39.7608066  20.5371658  91.1710400  39.8382497
  21.5955059  90.1569492  39.4607306  43.7710524  31.4382553  36.1949205
  43.2919931  30.8657074  36.7940235  44.6871233  31.3462090  36.4567947
  46.7215967  42.4845791  24.6618867  46.2884045  42.7084303  25.4855776
  47.5259829  43.0034113  24.6655869  18.4614635   9.1051346  34.2475700
  18.9422941   9.5475268  33.5480547  18.9412093   9.3272310  35.0455379
  28.0016351  45.6072283  16.3625848  28.3265829  46.3699198  16.8410635
  27.2474217  45.9352016  15.8728623  40.6218624   5.6446391  37.1617174
  41.2646246   6.2647122  36.8173337  39.8174143   5.8424515  36.6821694
  84.5294476  16.3012743   9.1738921  84.5229816  17.2173643   9.4513249
  84.3466377  16.3340974   8.2348835  79.0288925  12.7780974  50.8082199
  78.6586618  13.6122608  50.5195475  79.9426460  12.9788661  51.0106516
  71.3944817  26.4707780  45.5396938  72.0835972  25.8228660  45.3928709
  71.3085985  26.9234157  44.7006607  70.0521231  56.4872980  23.8279295
  70.1787901  55.6621361  23.3596396  69.1053057  56.5477562  23.9548635
  81.6412544  14.4545245  36.5036917  81.0896587  15.1890337  36.2344861
  81.0696507  13.9124143  37.0473981  73.2146215  10.1389670  13.1449890
  72.7388716  10.3691912  13.9430451  72.5774527  10.2642250  12.4417424
  28.8161135  28.3557916  49.2416906  27.8910041  28.5986471  49.2794180
  29.1491842  28.5442448  50.1190615  63.4364653   9.6380407  39.1263032
  62.5078058   9.8205078  39.2695832  63.7493753   9.3116665  39.9699855
  97.3670006  38.3635664  26.7838717  97.3868942  37.4104309  26.8697023
  96.5947151  38.5395813  26.2464476  64.4995785  22.6275039  29.7031021
  64.2109203  23.3043003  29.0908504  64.7945881  21.9087744  29.1439700
  50.6898355  19.3660283  14.2398942  50.5322695  19.4749701  15.1777303
  50.4546881  20.2115321  13.8577139  62.6458597  34.4909716  38.3959627
  63.4459066  34.9794531  38.2022023  62.0047283  35.1632309  38.6267304
  78.0630445   1.6582140  42.5686789  78.9752054   1.9313651  42.6665783
  78.0871487   0.9805375  41.8931007  76.2793827  57.0064116  29.0235686
  75.4128456  57.0358276  28.6180043  76.4604235  56.0730410  29.1343427
  78.2613468   0.0364264  35.8515692  79.1252565   0.3142194  35.5470657
  77.6604414   0.3285860  35.1661587  68.5493279  31.6064143  20.5582786
  69.1662455  31.2501240  21.1975741  67.9355288  32.1233439  21.0800719
  57.6801395  41.8634701  13.7095952  57.9540586  42.7648354  13.5400474
  58.0036163  41.6765928  14.5908856  91.1493874  20.9440708  31.3528061
  90.2325153  20.9694529  31.6265416  91.6318989  20.7299209  32.1512818
  81.6787243  43.5002279  19.1731644  82.0358944  43.1339836  19.9821949
  82.4363518  43.5871220  18.5946476  42.9564333  15.1374507   5.0848889
  42.6855564  14.2225373   5.1609951  43.9129257  15.1036394   5.0703907
  64.5038271   5.0121695  42.6644707  64.9862671   5.4553950  43.3623505
  63.6058092   4.9577442  42.9913235  65.7107639  22.4864340  15.5547643
  65.1649046  23.2674575  15.6457078  66.5872574  22.8264380  15.3747916
  39.9368660  91.0294683  55.1629257  39.9025671  90.0811441  55.2883673
  39.0483324  91.3288421  55.3555775  73.2087183  78.9353752  13.4352612
  72.2883511  78.6889267  13.3434665  73.2859087  79.7576094  12.9513168
  81.0704041  28.2086062  24.8174763  80.3842449  27.5513387  24.7016501
  80.6314754  29.0439415  24.6569085  55.7216311  41.2476826  44.1789055
  55.0612879  41.8981647  43.9400673  55.4299927  40.9101295  45.0258064
  49.8565674  57.2540474  16.9861996  50.3727961  57.8991318  17.4695265
  49.3170834  57.7756262  16.3919365  68.2192755   8.7883478  49.1994143
  68.5224152   9.4719315  49.7969532  67.9153347   9.2636704  48.4261608
  91.8519592   5.1156110  40.1231766  92.3004627   5.6755227  39.4894719
  91.9287014   4.2334020  39.7597885  56.1391687  22.1650529  44.6284580
  56.2239647  23.0931687  44.8467302  56.7665434  22.0276356  43.9187050
  67.4337673  25.1664424   4.5829910  67.3914051  26.1074996   4.4131431
  68.2385969  25.0501895   5.0879377  28.7472621 101.2560686  24.7724438
  29.2707721 100.9144402  25.4973316  28.1577341 100.5376045  24.5433259
  63.0307436  15.5441535  29.9291348  63.9464569  15.7482934  30.1189446
  62.7043867  15.1382911  30.7322550 106.1824131  20.6684446  29.1364360
 105.4925537  20.0048852  29.1330695 106.1706543  21.0306716  28.2504988
  81.8814564  13.2328832   1.9482295  82.2619534  14.0924668   1.7677513
  81.4463520  13.3364582   2.7945065  75.5767051  92.9857648  26.4668274
  76.3490383  92.4288137  26.3691664  74.8880378  92.5267250  25.9859490
  66.7396069  16.1482632  37.1092153  66.6180372  16.5074050  36.2303114
  66.9408894  15.2237332  36.9644356  54.2916870  33.9964318  14.1281009
  54.2019606  33.4505773  13.3469319  53.6877775  33.6089945  14.7616756
  99.4266319  17.9874456   3.3049253 100.3656864  18.1432033   3.2042357
  99.2745399  18.0423796   4.2483670  79.0853167  29.2879224  34.0096092
  78.9685583  29.7463679  33.1774879  79.2466354  28.3777452  33.7610412
  37.1762013  17.2891915   0.4360112  36.8474936  17.9550767   1.0399797
  36.6688299  17.4208796  -0.3649039  33.4102678  28.7309146  15.1411736
  34.1345263  28.4932971  15.7201552  32.6232171  28.5079002  15.6382096
  50.2112675  30.9600639  70.3151894  51.0381031  30.4778123  70.3119755
  50.4712820  31.8812704  70.3139639  30.3986446   7.2858654  85.7766841
  30.8912126   8.0387960  85.4500168  30.3634254   7.4155985  86.7243981
  20.1156759  10.3858066  29.2388296  21.0114574  10.1386321  29.4684124
  20.2099991  10.9272718  28.4551525  40.6275606  10.5379283  46.5270901
  41.4083767  10.0334930  46.2988329  39.9663472  10.2546787  45.8955860
  57.5047103  98.4201942  26.9714856  57.2703926  98.9309216  26.1965752
  56.6750518  98.0523367  27.2757602  46.8394852  31.1073828  47.5949240
  46.0499907  31.4533401  47.1786976  46.6109848  30.2086306  47.8321266
  71.5161324  52.9002953  11.2749243  71.4595652  52.0666981  11.7419875
  70.6380558  53.0352259  10.9185433  14.7049562  84.7036964  42.7844810
  15.5788127  84.3354590  42.9149055  14.4506446  84.4126315  41.9087887
  74.8840618  20.1561952  12.4336123  75.2498150  20.1297164  11.5494418
  74.8787975  21.0855150  12.6628971  65.3498268   2.8404009  46.2617588
  64.6289396   2.8104824  46.8907785  65.5670452   1.9218710  46.1025381
  53.4043980  31.2234211  34.9647951  53.4364271  30.4295969  34.4308949
  54.2565870  31.6377306  34.8293233  30.8492263  97.7289146  84.4302338
  31.7956050  97.7600949  84.5703196  30.7513698  97.5173419  83.5018527
  71.5704584  20.5059338  39.5711899  70.8121634  19.9986637  39.8608351
  71.8374348  21.0010195  40.3456879  53.5660028  16.8378878  11.1295831
  53.8268852  17.1895194  11.9807756  52.6470137  17.0894814  11.0379696
 100.2782663  71.8915493  41.5510273 100.2828797  70.9456355  41.4045525
 100.7814701  72.2496159  40.8197260  51.7192650  13.0174518  79.8080254
  51.6880798  12.6604235  78.9204502  51.4568377  12.2876835  80.3691006
  68.2871771  23.2050586  38.4593678  67.8155422  23.6643863  37.7645206
  68.7956285  22.5355840  38.0016398  21.3354476  44.8824417  84.5865980
  21.8041690  45.7149249  84.6457663  21.5250667  44.4414240  85.4147154
  74.2519188   3.7008342  27.1271920  74.9347925   3.1480104  26.7473221
  74.7303057   4.3721551  27.6137161  42.2261286   4.5855060  31.8782401
  43.1274176   4.6521661  31.5628552  41.9016933   3.7660417  31.5048075
  49.3465614  34.1182756  12.6864755  48.4497833  34.1211462  12.3517847
  49.3407965  34.7646332  13.3924639  61.0887337  35.3591704  16.4313245
  61.3418961  35.5003786  15.5190742  61.7810202  34.8030448  16.7886734
  40.9560442  70.8874321   2.2273289  41.6191578  71.5345001   2.4677645
  41.3592052  70.3823376   1.5212297  68.9925766  11.0012043  34.8718476
  69.4391584  10.8459258  34.0395713  69.6774912  10.9026027  35.5332136
  61.0906506   2.9241487  33.5699987  61.6937637   3.6626443  33.6543322
  61.2243032   2.6065356  32.6769757  73.3257294  28.7785530   5.2913046
  73.9802456  28.9683580   4.6191329  73.1294394  29.6301842   5.6817234
  56.6128683  49.8118544  29.4477129  57.3025608  49.6227646  30.0839496
  56.9964695  49.5787954  28.6022758  81.9548416  29.0138340  31.2917948
  81.7490959  29.8805165  30.9414244  81.1398220  28.7204981  31.6991377
  34.8303390  19.1791141  25.2893114  34.0608573  18.8695276  24.8115182
  35.4096246  18.4181511  25.3292775  72.1429054  93.8479710  82.9585171
  71.9910137  94.7312654  82.6224327  71.5165798  93.3005316  82.4849510
  48.6272860  19.2100990  47.7840519  49.1172600  19.5753837  48.5207462
  48.7326813  19.8538554  47.0835495  54.0946627  43.5047626  31.6907859
  53.7317562  44.3805170  31.8233895  53.3288527  42.9451275  31.5620279
  57.8883505   1.2376199  41.7854404  57.2416258   1.5863080  41.1719322
  57.9938316   0.3218902  41.5274811  39.4508600  30.6801224  40.9071827
  39.0246391  31.4872074  41.1955881  40.3370953  30.7364035  41.2644720
  32.4834768  90.4620821  63.0458117  32.0406095  89.8288924  63.6107635
  32.3355047  91.3068790  63.4708452  94.4475842   3.7241855  66.9132710
  93.7318611   3.6279386  66.2850142  94.1124916   3.3326679  67.7199030
  67.9433815  98.0929754  60.4691553  68.8590995  97.8172780  60.5101919
  67.7842895  98.5213003  61.3102579 101.5919924  64.3798440  67.5755065
 101.4969396  64.8379939  68.4105485 102.4182463  63.9034098  67.6564067
  77.8027153  17.9322171  28.9888477  76.8552160  18.0467927  28.9157200
  78.1713438  18.6909354  28.5364199  34.5345680  98.4227387  49.4478941
  34.8045246  99.3408773  49.4284630  35.3529588  97.9309694  49.3798256
  91.5332031  23.5293245  32.8709602  91.6376400  23.4017158  31.9280720
  91.6960526  22.6651907  33.2490945  64.8440218  35.8001018  34.7655749
  65.3521967  36.5951324  34.6045947  65.2829409  35.3810716  35.5058432
  54.7330141   3.9357075  10.8915830  55.4447794   3.4034508  11.2470078
  54.8494530   4.7940943  11.2988245  54.2862940   5.7602847  14.3837917
  54.5266247   4.9812678  14.8853958  55.0846958   5.9969902  13.9118195
  55.4002857  11.2219083  60.3620577  56.1325550  11.7487550  60.6821299
  54.9409533  11.7969847  59.7500658  17.8397067   3.5538802   5.7636094
  17.5262149   2.9595128   5.0819331  18.0433639   4.3654171   5.2986747
  98.6753178  32.3064470  64.5618153  99.0771294  32.9460406  65.1497793
  99.2580414  32.2795677  63.8029051  34.7769499  69.8032999  49.2647696
  34.3451405  70.3265381  49.9400473  34.0601325  69.4707012  48.7246037
  55.6696796  14.4054532  37.1082020  56.0932398  15.1910937  37.4540305
  55.3204918  13.9616811  37.8810930  51.0042620  18.2588792  60.7732248
  51.8255997  18.4237671  60.3101397  50.9666109  18.9404869  61.4442110
  67.2035885  23.8984609  31.3542771  67.9926443  24.4337869  31.2703466
  66.9556284  23.6943102  30.4525733  45.2153206   9.8498762  22.1021080
  45.3185558   9.4765681  22.9774475  45.0954247  10.7872927  22.2541213
  39.1927314  26.3710451  61.8047905  38.9531493  27.2703052  62.0287609
  38.4843588  25.8376145  62.1651936  79.3598986  51.8644983  77.6274055
  79.0359306  51.6144522  78.4927106  79.7269678  51.0574284  77.2666687
  55.8363199  26.3124537  31.2915540  55.0611448  26.7683148  31.6194630
  55.7957649  26.4238095  30.3417182  34.0544836  78.5897190  71.4520121
  34.7295658  79.1850287  71.1262751  34.5234243  77.7774674  71.6432476
  80.5760574  28.3516860  60.4341650  80.3285027  29.2102623  60.7773829
  81.0943508  28.5462523  59.6533012 104.5908213  83.9700955  75.5718511
 104.7939443  83.1451624  75.1308769 104.3272447  83.7110990  76.4548450
  41.2319613  32.5211120  39.6057796  40.5328131  31.8681955  39.6392059
  41.1270428  32.9408836  38.7519574  53.1781244  20.7501292   0.8674558
  53.7753868  20.0323558   1.0779612  53.7204885  21.5369320   0.9223296
  64.1444159  20.6766677   6.6621274  63.2509327  20.9345222   6.8889171
  64.6180487  20.6973481   7.4936783  17.8229507  70.6180018  84.1586873
  17.7037890  71.4685028  84.5813948  16.9625266  70.4084783  83.7953520
  92.4368477  66.7039984  86.8853087  91.7634916  66.9758731  86.2616831
  93.2597637  66.7985480  86.4056179  87.8750229  30.0055909  16.5980005
  88.5294056  29.8768568  15.9113789  87.3246479  30.7184362  16.2737107
   5.6298057  90.0992436  16.3177299   4.7804872  89.7034652  16.5133166
   5.4162494  90.9004731  15.8395469   8.5387500  98.8684314  86.1329278
   7.8246673  99.4225448  85.8178554   9.3179973  99.4201177  86.0647410
  59.5901251  17.5504482  39.5920968  60.0484657  17.2279799  38.8160992
  58.6702681  17.5854480  39.3296814  42.1874563  94.7025485  10.2048612
  42.7148048  94.0502650   9.7437119  42.7972118  95.1139659  10.8173668
  29.9666635  99.7830196   3.0672342  30.8219568  99.3824390   3.2229260
  29.4806854  99.6328674   3.8781044  35.7419395  47.5254154  28.5353327
  36.4443779  47.9377222  28.0325294  35.6853223  46.6369629  28.1836557
  26.6387534  43.5767031  27.2024393  26.2830281  43.9036846  28.0287409
  27.0679140  42.7534580  27.4355125  76.4379168  14.5290554  14.8967218
  75.7217646  14.8081553  15.4672122  76.9968939  15.3021240  14.8183465
  78.4059429  12.0342374  43.4548903  77.4545860  11.9342053  43.4210110
  78.7328482  11.1540473  43.6409855  90.6606626  55.6663063  74.3921393
  90.0309515  55.6667041  75.1130384  90.1437998  55.4272231  73.6227709
  44.0416574   7.4854124  24.0256882  43.3586025   8.1474501  23.9190340
  44.7815895   7.9629618  24.4007587   1.4338859  14.5001292  64.3482876
   2.2031196  15.0622201  64.4408560   0.8494361  14.9876797  63.7678146
  17.5897066   2.2034584  73.5738831  17.6245681   2.7767979  74.3395859
  18.0968706   2.6648174  72.9059261  38.4352112  60.7137775   2.4448808
  37.9547215  60.0041771   2.0184673  39.3557048  60.4664183   2.3569295
  81.0929585  10.1024950  36.6824698  81.9777775   9.7547156  36.7937279
  80.6045151   9.7582197  37.4302173 105.0337219  20.1504302  33.7726879
 104.0989780  20.2648401  33.9441586 105.1217937  20.2811646  32.8285575
  89.7229004  27.9431772  61.2423372  90.1307011  28.3896565  60.5003166
  90.3737640  27.2992301  61.5215302  70.4477501   8.0938709  62.4516869
  71.0550308   8.2619399  61.7311335  70.2511740   8.9609063  62.8064203
  77.6608229  38.1018162  18.1349170  77.9987621  38.9823222  18.2984257
  78.4418774  37.5505471  18.0871260  57.7816153  21.1148596  37.4915242
  57.6326895  20.1878095  37.3054314  57.2147036  21.3030958  38.2394600
  45.9837715 100.3835323  45.7818699  45.8434860 101.2875855  46.0633612
  45.8092491  99.8594508  46.5636063  51.3070679  41.1972284  24.9060583
  51.9459438  41.8685055  24.6663523  51.1336565  41.3522959  25.8345604
  26.6441894  31.0911965   3.3214670  26.6201305  30.8092093   2.4070619
  27.5766134  31.1642838   3.5251182  40.2459383   7.4503708  43.8854265
  41.1519337   7.5128889  44.1879082  39.7757363   7.0524400  44.6180868
  62.1988440  43.7993145   9.2499447  61.4623070  44.3092585   8.9127535
  62.9619598  44.3602657   9.1113025   4.3201240  16.2489581  13.3049440
   4.2687972  16.6432989  14.1756296   4.5956405  15.3466249  13.4665489
  87.3614693  29.0286779   2.5431186  86.8085670  29.0076423   3.3242056
  88.0004215  28.3298326   2.6830664  52.4779224  57.6526356  11.6411102
  52.4574232  57.1054792  10.8559763  52.7430820  57.0565844  12.3415720
   3.9088948  64.4381290  86.2402670   3.6402257  64.7619718  87.1000192
   4.4975265  63.7082022  86.4324951  85.6623554  55.9052181   8.7979716
  85.5854702  56.6510344   8.2029247  84.8514938  55.9198952   9.3064165
  68.0315924  30.6220961  30.0338602  68.6285019  30.9989023  30.6803489
  67.2773886  31.2115049  30.0320625  98.3293724  36.5272808  18.8703167
  97.8881168  35.7566643  19.2276418  98.8299847  36.1930418  18.1260693
  57.5491047  58.9483786  19.3303955  58.0001116  59.6747208  19.7608030
  57.1324635  59.3448496  18.5652459  91.8646336  13.3135283   8.2582641
  91.6466999  12.3952985   8.4182274  92.0255184  13.6767352   9.1291428
  64.2616510  56.3780737  11.2383008  65.0023890  56.8810511  11.5767586
  64.0363693  56.8088913  10.4137528  69.1619730   2.0958714  38.1321263
  69.2401600   1.4689399  37.4130487  69.4397688   2.9301077  37.7538276
  76.5579128  43.5497713   3.5818839  75.7296181  43.6533451   3.1134528
  77.2292852  43.6608648   2.9087210  50.1969862   8.1743115  38.2953525
  49.9482965   7.6214778  37.5545692  50.7088518   8.8824612  37.9045200
 101.9941711  13.0227673  49.3326426 101.3181210  12.8920281  49.9975395
 102.7846909  13.2277966  49.8319244 102.1700478  34.3804097   3.9501566
 102.6731110  33.6914325   4.3842909 102.7466965  34.6956992   3.2542399
  72.4165058  17.4843335  14.8813152  73.3720779  17.5093234  14.9311638
  72.1539879  16.9113564  15.6017411  95.4033375  24.0994358  22.8839254
  94.4870281  24.0358567  22.6145291  95.5253696  23.3703041  23.4919620
  79.6588373  24.4146562  48.2461882  80.3541470  24.9943662  47.9352045
  79.0249777  25.0010276  48.6592579  54.6267462  25.1243162  20.8399606
  53.7331772  24.8411870  20.6460452  55.0333118  25.2391887  19.9810421
  80.5563641  42.7813911   4.5527223  80.0132942  42.0130491   4.7287011
  80.8235645  42.6816368   3.6390018  36.2787286  83.8588328   8.4784847
  35.7679788  84.2862970   9.1659731  35.6494133  83.2960577   8.0273974
  69.8661423  21.1537027  37.4682641  70.1345301  21.5894938  36.6593862
  70.6880045  20.8926797  37.8837633  89.1644764  24.8520303  32.0422935
  89.8347950  24.3132591  32.4625611  88.4166622  24.8121929  32.6384687
  87.3150063  50.4465103  18.5228026  87.5251293  49.9078846  17.7599370
  86.3992119  50.2440500  18.7140298  86.3239384  10.0953805  24.6906424
  86.7555237  10.6674552  25.3252268  86.3375664  10.5919540  23.8724375
  96.3287354   7.2381401   2.5571921  95.7425880   7.2209024   3.3137447
  96.0560131   6.4901400   2.0258246 101.7208195   2.1358033   8.4239513
 102.5254440   2.3199743   7.9392874 101.0323811   2.1489136   7.7590388
  97.2021866  24.2391706  26.1818218  96.4434814  23.6556482  26.1920357
  97.4895191  24.2424846  25.2687716  75.2602243  37.2712731  11.0892570
  74.7249126  37.9616690  10.6980705  76.0099745  37.1867776  10.5002177
  88.4085369  18.3914530  22.0097518  87.6201439  18.3880150  21.4669371
  89.1209126  18.2036054  21.3986301  66.2966871  24.0109539  48.9811707
  67.1358395  24.4621801  49.0731239  66.1905575  23.5326719  49.8034954
  82.1748257  26.2684655  27.1335983  81.3671684  25.8016372  27.3480535
  81.9372272  27.1942782  27.1850872  48.9602844  94.7473712  17.2534144
  49.8492519  94.8343474  17.5975215  48.8518135  95.5032963  16.6763163
  70.5305767  44.3022919   6.0275710  71.3638210  43.9341307   5.7336342
  69.8702097  43.6911106   5.7010603  81.7610264  59.7030830   3.7368655
  81.9278717  59.2396164   2.9161388  81.0367393  60.2952957   3.5345408
  31.3598100  94.0167177  43.1718874  30.4033653  94.0256775  43.1349993
  31.6298048  93.7006492  42.3096609  81.6677952  17.4252713  33.2848787
  80.9323788  17.2252619  33.8640141  81.3518143  17.1998250  32.4099112
  78.5754442   1.6747543  16.1683834  79.4469786   1.5762652  16.5517378
  78.6313725   1.2220205  15.3268754  72.5208664  38.6553931  21.7632437
  71.6705227  38.2285142  21.6587210  72.3225975  39.5916724  21.7458487
  39.8128510  52.0187616  10.7399964  40.2187443  52.7099514  11.2631965
  40.1523876  51.2052774  11.1130822  49.4844770  32.0034409   9.8484313
  49.1187429  32.4884319   9.1086656  49.5056391  32.6385570  10.5642605
  86.5281439  74.3673890  51.9778985  86.1135626  75.0955647  51.5151757
  85.8263159  73.7270086  52.0944279  33.7843935 100.8578590   8.0109030
  33.4411899 101.7323177   7.8271502  34.6970407 100.8936980   7.7245158
  69.4263506  18.9213324  40.4454803  68.6127901  18.5107195  40.1526546
  69.2624044  19.1524816  41.3597679  77.4998188  12.1046734  60.2816153
  78.3800173  12.4423671  60.1159430  77.3047543  11.5600646  59.5190001
  67.1724892  55.1795816  20.9839249  67.3381853  54.2383432  20.9305739
  66.4025974  55.3188801  20.4324770  42.3543588   0.2842175  82.5381189
  42.4104826   0.2991377  81.5826821  41.5737049   0.7999168  82.7402669
  71.0313177  17.1161819  38.5212278  70.3617525  17.6341379  38.0744243
  70.5896616  16.7725194  39.2978024  85.9459496  24.6829891  24.2468452
  85.1869678  24.1206408  24.0920711  86.4590549  24.6198845  23.4412575
  96.7065668  79.3914621  83.2135838  96.5641880  80.1133102  82.6012975
  97.6049757  79.1076868  83.0445528  93.6042690  19.5380735  70.8105135
  93.6030960  20.1395488  70.0658941  94.3312168  19.8355699  71.3575697
  67.8543329  39.0236807  11.1154318  68.6873579  38.5784435  10.9603024
  68.0944777  39.9400187  11.2528622   2.6336511  55.7936316  81.2403416
   2.3981841  56.7194664  81.1802006   3.4245856  55.7125404  80.7073456
  65.2483654  20.5033875  28.0963612  65.1061726  20.4764581  27.1501637
  65.9548712  19.8761928  28.2503319  62.8931324   6.7266975  47.8623551
  63.7095443   7.0265804  48.2620734  62.4074356   7.5305830  47.6777237
  13.9599975  83.0758374  73.5952610  13.9818843  84.0305918  73.5304719
  13.5228713  82.9023045  74.4289511   0.6113704  83.0457061  63.5208147
   1.0702880  83.3935373  62.7561944   1.3075336  82.7117508  64.0865606
 100.2390385  28.8276434  46.1599874 100.3149509  28.0024838  45.6808472
  99.3212891  29.0799880  46.0584784  61.5452433   8.5077518  42.3839808
  61.9153547   8.7518030  43.2323217  61.3225842   9.3420166  41.9708729
  82.9944611  24.3855906  34.4229150  83.0299664  25.2988577  34.1384602
  82.0703793  24.1473150  34.3485498  66.1575747  15.9614897  30.0683022
  66.7668962  16.2610686  29.3936038  66.7197227  15.6627989  30.7831478
 106.7794752  66.4271086  73.2506650 106.2782240  67.1794408  72.9360550
 106.8838835  66.5843588  74.1890686  58.0959415  50.7657576  21.7201257
  58.3551359  50.0712967  22.3257470  58.5657072  51.5404892  22.0289016
  90.8827209  30.4184270  28.5196471  91.6686821  29.9039960  28.7036467
  90.1780796  29.7720242  28.4763288  48.0956364  10.8968806   9.8572880
  49.0516186  10.8617413   9.8904514  47.8135586  10.5433846  10.7009137
  85.5703354  68.2507043  87.4247928  84.7162103  68.4434908  87.8114870
  85.8173418  69.0585809  86.9747311  86.8268967  30.0061178  41.3017607
  87.2243786  30.6527400  41.8849611  87.0057487  29.1640830  41.7203569
  62.6136351  44.9180031   2.4028070  62.4999142  44.1467524   2.9582065
  62.6649094  45.6501722   3.0172426  23.8933929  84.9945539  78.5971904
  23.5465415  85.5700772  79.2788779  24.7493632  84.7212546  78.9271390
  61.7829084  26.7148733   8.9801073  62.0821333  25.8263421   8.7872112
  62.4402475  27.2818279   8.5767424  49.0934801  52.4177551  13.6743379
  48.5022831  53.0515528  13.2681215  48.5236549  51.6976547  13.9444947
  47.2875786  12.8294587  45.6425381  47.5080681  13.7318099  45.8735752
  46.3475990  12.7621245  45.8102751  76.8135738   4.4011119  43.1422281
  76.2004805   4.4231588  43.8769817  77.2000122   3.5261542  43.1789112
  68.4844685  38.0140519  15.3444314  68.3778954  38.9268041  15.0765514
  69.3071175  37.7399492  14.9390376   0.0691207  91.3746493  83.6194277
   0.4085811  90.5178612  83.3607450   0.7712253  91.9868701  83.3992907
   0.2448781  81.7993038  81.8345791   0.8932097  81.9852083  82.5137973
  -0.5965106  81.9964045  82.2462237  87.8685188  20.9196115  32.2214317
  87.6629162  20.4911470  31.3905406  87.0246315  21.2378645  32.5420570
  70.7078409  56.1821747   9.2392784  70.0707340  55.5411243   9.5545268
  71.3897467  56.1924028   9.9109417  84.5613480  36.0447764  26.2641883
  84.6282101  35.4863358  27.0387220  83.7609100  35.7536602  25.8273959
  47.2060442  49.4548321   1.1678828  46.5744305  49.8504448   0.5672263
  46.8051147  48.6242723   1.4241229  94.8618603  50.6921291   6.8250364
  95.5616093  50.1605129   7.2044629  95.3026009  51.4844513   6.5181124
  94.1056824  10.5042255  29.4162035  94.7341442  10.4987037  28.6942315
  94.5803547  10.1136208  30.1499248 104.8383522  43.1842804  45.1008558
 104.4641209  42.6436424  45.7964849 105.6557560  43.5181332  45.4704905
  91.6428852  31.7527080   9.3848801  91.5526962  32.7039051   9.4425315
  92.3075294  31.6156149   8.7098330   8.6176952  37.3124719  30.4647279
   8.5856040  37.1630836  31.4096546   8.6850722  38.2630396  30.3746724
  78.8283300  92.5832844  27.0595551  78.4041166  91.8613434  26.5957856
  78.4107065  92.5929928  27.9207897  87.8806591  61.7523384  38.6258411
  87.3486042  62.2592449  38.0124879  87.9216576  60.8770227  38.2406521
  82.2226810  73.0048990  31.2327600  82.9978371  73.5282993  31.4362669
  81.9741917  73.2782221  30.3497052  74.0008163  63.2134581  43.0433130
  73.2733440  63.4230042  42.4575663  74.7667551  63.1769419  42.4703884
   4.1478236  41.4696312  23.7755084   3.7311252  40.6603050  24.0714502
   4.8395618  41.1793566  23.1809831  86.0207748  51.3956356  21.6701150
  86.3379002  51.8946791  20.9173751  85.1889515  51.8102074  21.8990850
  94.0519714  76.5647507  32.3425150  94.3460274  77.4211836  32.6528049
  93.1662273  76.4738846  32.6938558  98.5875702  31.5241766  21.4622927
  98.2430077  32.3510718  21.7995596  98.6792660  30.9692287  22.2367978
  76.2786913 101.7937851   7.4648839  75.4111338 101.6020775   7.1087551
  76.6060209 100.9466457   7.7672684  90.9389973  53.9549112  48.5925770
  91.3005161  54.3681049  49.3766737  91.0222626  54.6213865  47.9105854
  70.8751106  76.6283655   9.7557509  71.2650442  75.7724524   9.5780021
  69.9328518  76.4617586   9.7807539  16.8962272  95.0888579  87.6085551
  16.5174182  95.6307214  86.9163690  17.7545150  95.4785054  87.7750891
  32.2498170  74.6542437  36.6574955  31.4292900  75.0791986  36.4077306
  32.9323665  75.2328760  36.3175821  73.1742048  71.9198608  16.9833493
  73.1196404  72.2569513  17.8775656  73.4726095  72.6663399  16.4637768
  80.7523441  48.4011745  24.0053558  80.4639053  47.7255869  23.3916688
  81.6789246  48.5294008  23.8022780 100.4990959  52.8299141  32.9238844
  99.7876930  53.2409811  33.4149790 100.5056763  53.2877827  32.0833230
  64.0181923  74.2049599  67.5374842  64.9408531  74.4193077  67.3997259
  63.9796400  73.8792658  68.4367466 101.3699102  77.6609724  79.4249046
 101.9978094  77.1407240  79.9262219 101.1093569  78.3624023  80.0218475
  60.6056682   0.3497015  71.7310923  59.9088947  -0.1312555  72.1776646
  60.4513256   0.1860844  70.8006936  49.1017866  79.3267345  29.3891716
  48.7783575  79.9457502  30.0437307  49.2870760  79.8660946  28.6204100
  68.4831897   3.1527649  80.2466660  69.0930931   3.5941731  79.6555507
  67.6219360   3.2998739  79.8557353  89.3497086  67.2747707  23.1604052
  88.4422970  66.9872284  23.0596161  89.2838287  68.1337881  23.5775113
  83.3551121  42.7413702  48.2440472  83.2463455  43.3065367  49.0088940
  82.5709820  42.1924210  48.2384348 106.9254589  34.4351196  40.2533293
 106.8151283  35.0933647  39.5672011 106.6820049  33.6095262  39.8345733
  49.0593052  80.3099823  19.1310930  48.4201193  79.6131849  19.2799437
  48.5697746  81.1193657  19.2776716  99.5468712  79.9740076  27.0545244
  98.7595558  79.4304323  27.0846391 100.2112675  79.4114161  26.6566634
  82.7265358  57.1402645  42.6263618  82.6822567  56.3100958  42.1519184
  83.5753822  57.5099754  42.3834372 103.1681252  57.1835566  36.3322663
 102.5123596  56.9943666  35.6611323 102.7342415  56.9694090  37.1581745
 105.4302883  92.3145485  51.9939041 105.2277565  91.9575882  51.1291599
 105.5878162  93.2456970  51.8377495  48.3830539   1.5929549  23.4658408
  48.8751213   0.8991855  23.0267620  48.2224552   1.2525027  24.3459201
  52.8767920  86.5746403  45.4414988  51.9536066  86.4674091  45.6705427
  52.8669786  87.1261215  44.6591902  83.9526653  49.4186068   0.9783886
  83.5398865  49.4405699   1.8417309  84.7877407  48.9738131   1.1234222
  86.6915703  42.4487829   3.3480096  86.0159969  41.8867970   2.9685462
  87.1926689  42.7626276   2.5952536 106.5940475  52.2832394   3.9852455
 106.2490845  51.5572548   3.4654495 107.0859337  51.8610430   4.6895364
  61.9576836  26.1687613  20.9949803  61.1624908  25.6846142  21.2174654
  61.9923449  26.8795466  21.6351461  92.8662395  74.6523285  12.0417047
  93.4920120  75.1372433  11.5036571  92.0673752  74.6261120  11.5150523
  71.5207958  62.9166174  51.2435198  72.3955727  62.7250433  50.9054422
  71.4728212  63.8725376  51.2558317   5.0571140  27.4320531  20.8848548
   4.7751411  28.1574750  20.3276396   4.8593887  26.6469383  20.3742361
  70.4130363  48.9422846   9.6712488  70.8206797  49.4354391  10.3831863
  69.6551085  48.5201025  10.0756490  87.8532505  59.5497751  37.1118760
  88.1570721  58.7268639  36.7288136  87.0630932  59.7669268  36.6171646
 100.7378960  56.4195108  45.5175018 101.1263847  55.7685900  46.1019802
 100.7615566  56.0094786  44.6528912  86.6105652  37.6322556  25.4797888
  85.7370472  37.2727323  25.6345510  86.9399071  37.1447229  24.7247577
  84.8272991  74.0165520  25.3727031  83.9066792  73.7890053  25.5027676
  85.3086948  73.3750105  25.8951044  72.2092819  55.9181309  32.9574776
  71.9356823  56.0167694  32.0455313  71.4019585  56.0181761  33.4619069
  23.3808120  65.7130211  68.3303326  23.4170039  65.7028132  67.3738712
  23.1528171  66.6159170  68.5517662  62.3714781  27.2818589  18.5100329
  62.9809284  26.6434216  18.1396270  62.2394562  26.9913530  19.4124782
  12.1317371  32.5594544  41.1799145  11.5540202  33.0349183  41.7769146
  12.9773410  33.0001855  41.2631798  77.7804518  61.1181116  68.1004810
  77.5254011  61.9917107  67.8038168  78.7375164  61.1337042  68.0963659
  90.7586002  55.4740906  41.3421917  91.3675785  56.1570883  41.0613251
  91.2168407  54.6541262  41.1580515  81.1416817  60.4912519  45.9460020
  80.5643082  60.8870411  46.5988636  81.1855125  59.5676470  46.1935234
 102.0824623  42.0011234  41.9980192 102.8254604  41.6371870  42.4794149
 102.3156357  41.8882132  41.0765457  92.4006939  16.1222148  52.3410416
  93.0110455  15.5024445  51.9415665  91.6037178  15.6127381  52.4876928
  81.2336540  68.0757189  59.8679018  80.4816055  68.3264828  60.4043484
  81.9755173  68.5285759  60.2688694   5.2650817  51.0817957  42.4658728
   5.5360873  50.6555223  43.2789373   4.4431289  50.6506777  42.2318459
  69.4199705  26.8232203  14.0068090  69.7913408  26.0013461  14.3274987
  68.9635611  26.5814781  13.2009053  67.0269108  76.9019461  33.6599565
  66.5409088  76.3074398  33.0884719  66.6847324  76.7249870  34.5362139
  56.1747837  69.0324831   2.9925677  55.2622271  68.9882278   2.7070558
  56.3252306  69.9608278   3.1708008  52.0905972  57.1491718  -0.2671449
  52.2976446  56.3296795   0.1820746  51.3275719  57.4914360   0.1985579
 100.3501320  65.9207201   3.7088573 101.0111237  66.2869501   4.2963955
  99.8433399  66.6783237   3.4165722  63.3543960   5.6683765  83.2466137
  63.0118839   6.1907755  82.5213432  64.3044464   5.6942307  83.1326794
  98.3579731  64.7596550  50.6889343  97.6078987  65.3159761  50.8989811
  99.1206932  65.2828169  50.9355068  83.1799793  50.3186464  42.4514675
  82.8260803  49.4388199  42.5814581  84.0514946  50.1742172  42.0829248
  26.2509711 101.1167329  85.5415800  26.1576827 100.5090564  86.2752408
  26.7116244 101.8698686  85.9114693 103.4189224  12.4565816  20.8076859
 104.0121269  12.0864296  21.4613938 102.5433922  12.2459722  21.1322093
  83.6338329  51.9320583  23.2688546  83.4905338  51.1724520  23.8333893
  84.2618179  52.4720478  23.7487268 101.1979294  25.8832765  34.9987221
 101.1787128  26.8264675  35.1607513 100.8623981  25.4945993  35.8065462
  69.6366930  63.2249022  14.9050450  69.8479891  62.5214386  14.2912710
  68.6800671  63.2572746  14.9121439  65.6835365  43.5482836  13.5481715
  64.9581003  42.9664755  13.3212948  65.6267118  43.6423922  14.4990373
  75.8650104  13.0783735  65.6621664  75.1794902  13.7461363  65.6821245
  75.3961078  12.2582947  65.5077880  76.9616604  59.8943138  57.7387142
  77.3669481  59.6120310  56.9187832  76.5350819  59.1075945  58.0783176
  73.5734320  32.0542789   3.1657887  73.4723234  32.8531456   3.6833030
  72.7263880  31.6141438   3.2367158  96.7309952  78.1075191  63.1681204
  97.4581528  78.7220287  63.2673836  97.1481419  77.2789335  62.9321718
  91.6551971  86.3653755  56.7552900  92.5031567  86.4158821  56.3141108
  91.6760159  87.0759392  57.3963022 104.6543264  92.0974868  61.9875902
 103.8798523  91.6860955  62.3712271 105.2364731  91.3662618  61.7810768
  88.4555531  60.7444334  11.7621958  87.9078007  61.5246248  11.6755915
  87.8388977  60.0396299  11.9602454   9.5708553   0.9760993  21.0834956
   9.5635978   0.2391952  21.6943622  10.4989425   1.1365741  20.9128094
  88.9075184  82.0239544  29.9656868  88.4712505  82.4886322  29.2515564
  89.7911644  81.8565750  29.6379828  49.3266002  18.5918938  77.6082772
  48.6990825  17.8903566  77.7823204  48.8222496  19.3976675  77.7204770
  82.3535728  65.8033943  12.4989724  81.7118740  66.4655113  12.7559817
  82.2474384  65.1039839  13.1437886 106.6840839  20.9859753  26.5207195
 107.4493027  20.4391456  26.3428330 106.9876385  21.8804407  26.3657618
 102.8664207  81.7364120  30.7947016 103.3821678  80.9652996  30.5588627
 101.9710159  81.5123844  30.5411696  67.4646568  13.8627875  48.9879274
  68.3183336  13.4809804  48.7837458  67.4259329  13.8652074  49.9443388
  76.0934162  30.4688454   6.4354384  76.9828558  30.7088280   6.6953313
  75.7866812  31.2123728   5.9164840  83.8777447  44.2340946  78.5680103
  83.0665874  44.0074158  79.0228462  84.4824791  44.4835758  79.2667818
  81.0237503  65.9434605  40.2240992  80.8664322  65.0176620  40.0386810
  80.4650974  66.1351681  40.9773493  18.9174636  33.1775522  36.8243456
  18.1224330  33.5479832  37.2076678  19.6044238  33.3738446  37.4613643
  66.5330696  57.9097080  35.4606175  67.2573519  57.6284313  36.0196614
  66.4273262  58.8407707  35.6559777  82.4410820  80.7954121   9.7409272
  82.9600620  81.5838528   9.8998213  83.0885410  80.0955296   9.6561491
  67.9874325  54.0111113  34.1014266  68.3566713  54.8624992  33.8668394
  67.5665760  53.7031889  33.2987475  77.7956629  74.4936514  19.5308888
  77.4478960  75.1491594  18.9262402  77.4269390  74.7326851  20.3812647
   6.1914523  88.4791183  30.1078939   6.1780818  89.4241905  30.2592158
   7.0880969  88.2160091  30.3153443   7.9170020  76.6189194  38.3562899
   8.1627639  77.0520020  39.1737652   7.1966346  77.1472406  38.0125117
 100.9541035  93.4597206   1.4400490 101.8522739  93.5626221   1.1255039
 101.0430527  93.3488560   2.3866370  96.4750862  79.7184181  24.0091705
  96.6684246  79.4119692  23.1232047  96.6783428  78.9705610  24.5709777
  93.6458302  53.4730864  16.1503220  94.1938877  54.2013550  16.4427042
  92.8163815  53.5972738  16.6116512  36.4367088  17.1216714  37.1861291
  36.4566882  18.0337727  36.8964696  35.8816512  16.6786635  36.5443516
 106.6626263  23.9351439  25.9388399 107.0553493  24.6820259  26.3906932
 107.3407078  23.6390162  25.3315949  81.1065769  97.6550388  61.4839697
  81.5199947  96.8070984  61.3217354  81.1421490  97.7608681  62.4346352
  93.6072731  58.2798386  30.7457113  92.8470707  58.8429213  30.8915234
  93.8829899  58.0174923  31.6239977   0.3596385  40.3538561  27.5516367
   0.8964809  39.7084022  28.0114460   0.0021728  40.9067202  28.2464671
 100.2107430  69.6283627  45.2389145  99.3544674  69.2126417  45.3399086
 100.0434113  70.5596495  45.3836250  81.0311794  73.5887480  28.6759615
  81.5861511  73.9586830  27.9893827  80.1857090  73.4470606  28.2501340
   7.5572856  73.9370537  30.2674747   7.6503642  74.6172190  30.9345150
   8.2840141  74.0922308  29.6641374  99.3448734  39.3597603  28.6602831
  99.4879723  40.2157688  28.2565475  98.4792137  39.0913939  28.3523130
  78.2536411  58.5826111  17.2990155  79.0406656  58.5029411  17.8379798
  78.5148478  58.2449055  16.4423013  88.5902691  71.8085146  32.5833464
  89.2004776  71.3370132  33.1504107  89.1385365  72.4329901  32.1083021
  93.6639500  88.3612633  60.1813316  94.3370628  89.0409279  60.1464319
  94.1225338  87.5864887  60.5063820  65.6024456  58.5122633  44.3417645
  64.8811245  58.5162115  43.7125492  65.8953094  57.6012564  44.3646717
   7.5816425  75.6408787  47.4991369   6.8845924  75.2984381  48.0586767
   8.3911880  75.3687048  47.9313278  85.3034496  47.3484325  34.6527195
  86.0290146  46.9278431  34.1913223  85.2707958  46.9064522  35.5011415
  80.1815319  41.6662025  53.0545664  79.8453093  40.9052706  52.5811005
  80.3826523  41.3342094  53.9295340  97.2244358  64.8009634  36.5683889
  97.6542187  65.4221630  35.9804893  97.8509426  64.6724558  37.2805738
  95.5049229  86.6487122  40.0806379  95.5506706  87.3922539  39.4795656
  96.3213348  86.6925430  40.5784130  93.2981491  53.3429766  44.9884129
  94.1601181  53.1052876  44.6467113  93.2911968  52.9984760  45.8814430
  80.3931332  61.2585163  18.2377827  81.3150120  61.5160751  18.2440650
  80.4038429  60.3249359  18.4488535  11.3809188  43.6917877  37.2060347
  11.0108455  44.4283009  37.6926804  10.8776267  42.9328299  37.5008368
  98.0139923  59.4894361   7.1263981  98.9121056  59.6895075   7.3902166
  97.6511383  60.3321314   6.8535697  88.4489441  78.8928652  53.4641838
  88.7077713  78.0348635  53.1279135  89.2758179  79.3529463  53.6084986
  90.8490181  57.7083302   7.5422269  90.0459480  57.8878927   8.0311787
  90.5636692  57.1744967   6.8007219  97.8596210  45.8774137   9.7517055
  98.3128834  46.6495323  10.0902617  97.8369713  45.2696753  10.4908752
  90.3285789  33.0983210  46.9870567  89.5489025  33.0759072  46.4322186
  90.0256729  32.7832270  47.8386402  52.3585407  14.4218908  76.9065040
  51.4887897  14.0369879  77.0142513  52.2353260  15.1141344  76.2570017
  81.3781929  67.4609232  21.8615627  81.1060619  66.8312550  21.1939549
  80.5581379  67.7799797  22.2383165   3.3439716  75.6650257  53.7618589
   4.1884978  75.7088661  54.2102861   2.8607543  76.4249039  54.0863657
 106.2092590  25.5969930  11.1061633 106.9532776  26.1991835  11.1114609
 106.5265751  24.8201752  11.5666997  85.2709293  27.7523780  35.2310324
  86.1152935  28.1474733  35.0138283  85.0354767  27.2474027  34.4527054
  89.8570633  11.1176598  11.7245364  90.6251621  11.6058564  12.0210588
  89.8646259  10.3173006  12.2495115  75.7356882   5.2844626  22.3256993
  76.5118742   4.8062733  22.0339680  75.5032015   4.8773947  23.1602502
  70.4944126   8.8345896  74.6740454  70.2276031   9.5842157  75.2061206
  71.4132110   8.6936556  74.9024600  79.5612192  48.1412125  51.8055201
  80.2301788  47.4911070  52.0201826  79.4880819  48.6789608  52.5940084
   1.2671359  56.2045145  35.4869151   2.0417484  55.6630373  35.3352427
   0.6784900  55.9883928  34.7637129  83.4259605  52.9784250  13.0906558
  83.4731007  53.2097626  12.1630275  82.8235435  53.6199474  13.4671795
  63.6814260  84.6995258  45.9675026  63.1020069  83.9675426  45.7560682
  63.1063271  85.3529549  46.3656616  46.4268962   5.0637947  86.0768459
  47.2823612   5.1441322  86.4987001  46.5462390   5.4633795  85.2152648
   7.7181419  49.7205734  37.1681166   7.2943767  48.8680744  37.2676015
   7.0228942  50.2983761  36.8534541  70.5921602  59.4703007  28.4680653
  70.8248568  60.3954744  28.3897495  71.3390207  59.0029716  28.0938578
  79.4987726  23.5681605  10.2676046  78.9342546  22.8294039  10.0400257
  80.3716183  23.2999563   9.9804991   4.9375327  97.9277992  14.8905706
   5.2940067  98.3775902  15.6566322   5.4212554  98.2949162  14.1506588
  23.7083610  60.2480555  20.2541542  24.3183215  59.5660019  20.5351925
  22.8517707  59.8209286  20.2609301  80.5086899  63.3881664  39.7011948
  81.1077309  62.8201294  39.2167187  80.0308895  62.7941656  40.2800798
 100.1772213  74.4323015  49.9036121  99.5696545  74.9654770  49.3909645
 100.9962177  74.4599152  49.4089127  57.8898239  79.4105101  30.7931376
  58.2410192  80.2616215  31.0548615  57.9750252  79.3991470  29.8398042
  53.1208611  82.3486614  15.4037583  53.1723118  83.1805325  14.9330413
  53.0105257  81.6912079  14.7168684  81.7317104  47.3066759  27.5455928
  81.8208408  47.7865648  28.3689976  82.6015759  47.3489141  27.1483827
  13.8919528  36.5997005  28.7173676  13.7224181  35.6586289  28.7606525
  13.1773074  36.9950247  29.2165971  73.8510752  73.2296324  40.1021099
  74.0530157  72.5745249  39.4340658  73.6985683  74.0356255  39.6088076
   3.8789161  54.9778461  35.6654429   4.5217021  55.4317284  36.2104583
   3.5264571  54.2915535  36.2320185  78.4493256  51.8231153  13.4246433
  78.4871244  51.3616896  14.2624319  78.2958984  52.7377272  13.6616528
  94.2945957  60.1570463  16.3188660  94.9893951  60.8145285  16.2841749
  94.1758537  59.8858023  15.4086125  67.3667041  97.6947273  13.0334985
  67.5761215  96.7995126  13.2998955  66.8035404  97.5908405  12.2665048
  35.2072127 100.7736009  59.1393178  35.8422835 100.6972783  59.8514241
  35.6266864 101.3556188  58.5056561  95.2030754  54.9300528  40.6155968
  95.3893661  54.0041733  40.4597998  94.6521282  54.9351072  41.3983250
  98.1518936  38.8835478  47.6151037  97.5263596  38.1673574  47.7247047
  97.9151535  39.2822909  46.7777348  85.9237385  73.7456942   0.0464400
  86.6369152  73.1117916   0.1225069  85.1528454  73.2787418   0.3687761
  88.4845829  54.1845608  38.1931567  89.1372299  53.4843779  38.1984138
  88.9976025  54.9896526  38.1233549  91.1273575  54.9033022  20.8658671
  90.7952023  54.2434216  21.4745212  92.0733643  54.9090624  21.0117102
  10.4298107  92.0230109  20.9832907   9.6011344  92.5020922  20.9854960
  11.1009685  92.7053083  20.9992361  79.3119907  76.8919849  15.1993477
  78.8213730  76.3597012  15.8256042  78.7891865  76.8618727  14.3980992
  58.9852134  14.0135847  88.1807896  59.3167583  13.1953226  87.8109853
  58.2830802  14.2779242  87.5863451  75.8762407  88.1560230  42.9225636
  76.5282154  87.6797199  43.4366608  76.3286352  88.9504528  42.6389217
  97.4653625  59.1675901  26.8017340  98.2496643  59.7112417  26.7271972
  96.9128609  59.4426394  26.0700750 101.0967636  48.0587626   9.0785885
 101.4526653  48.9427900   9.1683912 100.4680443  47.9796600   9.7960085
  29.1453067   5.4519217  40.5559158  29.3069927   4.7270530  39.9520564
  28.3126632   5.2336734  40.9746170  81.4720249  52.8486156   9.4781870
  81.0464096  52.4242973  10.2231932  80.7489777  53.1877947   8.9505643
  68.6395168  39.6412587  19.4920194  68.7278461  39.3640542  20.4039335
  68.7746954  38.8411450  18.9842999  88.7204075  65.5819178  36.5495205
  88.0047321  65.6135273  37.1843719  89.2810059  66.3216448  36.7835379
  70.9129572  62.7747345  11.9802058  70.8103943  62.2259665  11.2026644
  70.9104061  63.6706066  11.6431129  82.5224018  59.8142481  38.4781003
  83.4209728  59.4900990  38.5391521  82.5937366  60.7524157  38.6541057
  93.6185646  65.2718830  14.4747925  93.0645180  64.6890593  14.9940026
  94.4764900  65.2256060  14.8967755  13.0669769  71.4234066  30.4222584
  13.4312232  71.1482716  29.5809150  13.8016303  71.3622141  31.0328150
  90.6742954  82.5316811  24.1011620  90.3355980  82.8726292  23.2733536
  90.1026917  81.7921066  24.3073797  96.2329769  53.0441666  68.8731861
  96.3433361  52.8717756  69.8082447  96.0238934  53.9769888  68.8246632
  83.9591026  63.5159016  22.8232646  83.7950897  63.8030243  23.7215376
  83.7752151  62.5765991  22.8347039  90.7968044  65.8750582  20.7729912
  91.6094208  65.3692198  20.7724810  91.0831642  66.7883348  20.7607245
   1.7809375  40.3801012  72.1237898   1.7681773  40.8525229  72.9561901
   1.4393790  39.5114875  72.3361015  84.3827724  34.9706984  23.1043553
  84.7499657  35.8543992  23.0826497  83.5899639  35.0275922  22.5710177
  89.8542023  96.7504311  69.9275160  89.7378540  95.8090401  70.0558805
  89.9279690  96.8555069  68.9789629  16.6861041  62.1568155  35.2684736
  15.9029754  62.4431515  35.7385278  16.7359622  62.7381659  34.5096731
   0.5702575  46.7078638   7.2691125   0.9384998  45.8439064   7.4540550
   0.7746490  47.2268581   8.0469954  96.8657684  74.6372271  46.5292692
  96.3243866  75.3183842  46.1303139  96.4371395  74.4489956  47.3641872
  10.3824504  45.5139971  58.3029222   9.8873981  44.8464775  57.8279781
  10.1006015  45.4191208  59.2127562  38.8541881   0.9242766  51.0015059
  38.9675419   1.6957133  50.4462910  39.3066971   1.1462634  51.8152523
  87.4924469  61.6310740  75.5408049  87.6718998  60.7707357  75.1615381
  88.0172348  61.6542673  76.3409853   3.0371650  79.5657682  18.3364964
   3.6745341  78.8933945  18.0958581   3.4495147  80.0389767  19.0591848
  76.1185256  35.8199917  78.0197590  76.9277183  35.3101479  78.0583685
  76.1772815  36.4192616  78.7638312  95.4241657  75.4080296  39.6914625
  95.6626129  76.3282967  39.5797014  96.2597752  74.9412441  39.6819568
  76.2629557 100.3902531  21.3459468  77.1058607 100.4988098  21.7863488
  76.1829185 101.1638069  20.7878780  91.1456490  49.8344946  55.9123087
  90.6029129  50.4847765  55.4664373  91.5384293  49.3241787  55.2041149
  89.1166019  78.6330223  81.2631702  89.6387196  78.2580853  80.5539036
  89.0307045  79.5584011  81.0339928 102.7610397  47.1091986   6.9755340
 102.1438980  47.3179626   7.6768148 102.4940014  46.2415981   6.6719013
  88.0648518  65.8622265  19.8747575  87.9620647  64.9182272  19.7542143
  88.8947868  65.9549856  20.3425503 103.4933090  77.8084755  10.7567477
 103.7835789  78.5189390  11.3287711 104.2572021  77.2370863  10.6780005
  93.8194466  63.7093449  71.6241693  94.2188072  62.8451347  71.5247154
  94.1136360  64.0116882  72.4833965   0.8487113  55.9036446  48.4574127
   0.5666431  56.8097973  48.3327007   0.0923904  55.3790522  48.1947041
 104.0358925  54.4671297   7.8046817 104.7375870  53.8355827   7.6465315
 104.3794250  55.2955914   7.4702191   9.6131213  97.4398422  23.2222295
   9.9315532  98.3214092  23.0281329  10.3827842  96.9736195  23.5485482
  94.4471550  92.1633720  49.2120028  94.8527336  91.4558792  49.7131920
  95.0439739  92.9042625  49.3174648  12.0173152  63.4956074  35.2236414
  12.7176746  63.1510353  35.7777262  12.0827945  62.9906607  34.4131017
  93.6954308  62.3461199  24.2974043  94.4280720  62.2727537  24.9090242
  93.5188675  61.4453459  24.0260029  48.0597782  57.3045158   8.0271351
  48.4641886  57.3900270   8.8904846  48.3073616  58.1060791   7.5662261
   2.1705993  82.5348759  29.3845105   2.8199752  83.0923176  28.9557862
   2.2211536  82.7760696  30.3094435  94.0204144  65.2198076  49.1591644
  93.6526680  64.9198961  48.3278751  93.2785225  65.6077194  49.6232080
   7.8472121  83.7726307  14.3485534   7.4701579  84.1976452  15.1188934
   7.2427543  83.0575848  14.1495907  70.7939720  72.4995041  44.4545126
  70.8030319  73.1066179  43.7145329  71.7018986  72.4767876  44.7568130
  91.2835312  53.0230331  40.5870628  90.5730343  52.4510765  40.2967358
  91.7564964  52.5055265  41.2387753  97.9188824  55.4244184  41.0709095
  97.1082878  55.5202770  40.5709314  98.0885887  56.2986135  41.4219284
  80.2415180  61.4814281  51.8699789  81.1181831  61.7977428  51.6517353
  80.1898289  61.5572739  52.8227663  92.4058151  82.3121738  15.5244589
  92.8929329  81.4889431  15.4893756  91.4907074  82.0538712  15.4145145
  53.0935089   7.4026244  22.5841594  53.5877983   8.1626552  22.8911877
  52.2205249   7.5170367  22.9596972  79.5606279 100.9607506  29.1448450
  79.2772770 100.2465439  28.5740161  80.4938507 100.7999611  29.2844200
   6.0027393  75.1135778  45.2873278   6.3063892  75.3544521  46.1625433
   5.7895644  75.9480572  44.8696709  88.7867069  79.7211790  69.5032263
  88.8829327  79.5828533  68.5609770  89.6836662  79.8124933  69.8247337
   5.3779586  49.6130276   5.4090565   5.5677016  48.7371302   5.7452649
   6.2348350  50.0340986   5.3405505  90.1456356  72.7470541  25.7391739
  90.6877518  72.7357054  26.5279794  90.5197811  72.0648956  25.1815796
  83.2648373  70.4202843  31.2348485  82.6722431  71.1714315  31.2638187
  84.0872574  70.7499313  31.5970564  95.9567261  86.5604019   8.2452351
  95.9479523  85.7165813   8.6970448  95.9256840  87.2089863   8.9485186
   4.6137603  99.2114639  41.6444397   5.3042300  98.9051342  41.0565233
   3.8352760  99.2684746  41.0904074 101.9016131   0.8491748  79.9585152
 102.8186472   1.0983699  80.0733376 101.7858895   0.7920592  79.0100527
  86.7106342  69.9777699  58.9429760  85.8955383  70.2487421  59.3653727
  87.0608616  69.2944002  59.5144463   0.6788428  51.6222906  34.5013404
   0.4835208  50.8892298  33.9176416   1.2949928  52.1637297  34.0079498
  92.3106861  62.8053856  18.8488710  93.0272579  63.4377193  18.7949014
  92.5775242  62.1994448  19.5401490  98.9925098  97.4903584   6.4798391
  99.8977947  97.7314949   6.6761500  98.5565376  97.4826527   7.3319530
  69.2666483  73.1181192  46.6932106  69.6047306  73.0039024  45.8050203
  69.9334526  72.7242756  47.2557926   2.5120052  87.9775047  33.3695960
   1.9825442  88.7552738  33.5456514   2.6164611  87.9692173  32.4181485
   3.3370860  36.7692113  39.9657249   4.0186961  36.5772176  39.3216920
   2.5349792  36.4206028  39.5767140  96.7276478  68.4343195  71.4526653
  96.2395191  69.2337608  71.6497850  96.0791206  67.7339363  71.5241480
  78.8581562  45.0701714  20.0822234  78.0404568  45.2438259  19.6159208
  78.8787270  44.1185570  20.1834202  61.6573811  64.9666548  27.1112895
  61.6312933  64.8015976  28.0537891  60.8044338  65.3526735  26.9120312
  94.5913029  34.7917509  54.7272015  94.5692635  33.8348413  54.7356606
  94.5027065  35.0415063  55.6469870  85.2555561  40.7177591  12.5652325
  85.7335663  39.8942184  12.6628232  84.5309734  40.5058384  11.9767570
   0.4345496  51.9622803  18.5720932   1.1754592  51.4705944  18.2178056
   0.3894599  52.7505445  18.0309427  84.1270057   9.6765696  71.2908166
  84.0744583   9.0792738  72.0369476  83.5154525   9.3137442  70.6500345
  66.8474817 100.2707958  55.4592752  65.9109688 100.1796818  55.6349945
  67.2703791  99.7359657  56.1310959 105.4454231  86.2825203  32.9945183
 104.7674656  85.8579254  32.4688482 105.3641891  85.8810711  33.8596630
  76.7829561  64.5936441  11.9167674  76.8235922  65.4716253  12.2958875
  76.0361910  64.1800880  12.3498309  82.6248074  64.2864943  14.7890496
  83.3494854  64.7666168  15.1897395  81.8963623  64.3988037  15.3997719
  64.8938084  90.4684734  34.5448112  64.7423124  91.2874889  35.0165033
  64.4733810  90.6001949  33.6950326  68.2313919  65.0041056  26.6508412
  67.5950098  64.3230724  26.8686676  67.8766441  65.4210901  25.8656597
 104.3609333  92.8944302  43.1426287 103.8042068  93.5141850  42.6712561
 103.8944721  92.0606613  43.0836916  29.6137317  56.5303898  47.0239830
  29.3832668  57.3362446  47.4862671  29.4005092  56.7101955  46.1083174
  21.7500003  69.5191669   8.9051300  21.0899242  69.4208050   8.2189369
  21.2880119  69.9552298   9.6211267  82.9834175  66.3852549  44.3308544
  83.4891033  65.9038830  44.9856853  83.4536934  66.2390041  43.5100746
  69.1422224  72.0164251   1.1785258  69.3328667  72.5748014   1.9322507
  68.5104990  72.5176430   0.6628315  61.7892599  47.6665354  12.2963417
  61.9492960  48.6071682  12.2199595  62.2890282  47.4004507  13.0681336
  63.6069775  96.7713737  23.3597302  64.3150234  97.3851395  23.5551691
  62.9913998  96.8770027  24.0850806  40.3775676  94.9986499  80.9632289
  40.2777179  95.7540935  81.5425092  41.0031112  95.2873939  80.2987295
 103.5626411  27.8410530  19.4304180 104.2820930  27.8985262  18.8016820
 103.9785957  27.5597143  20.2453160 100.4546452  79.3985415   4.2166281
 100.1360607  78.5336685   3.9583120 101.3847446  79.3884897   3.9906892
  34.2384044   1.8057101  21.8537140  34.3407146   1.8193667  22.8053331
  34.1674129   2.7278941  21.6072011   1.1643489  74.6559238  55.5328941
   1.8919738  75.0304794  56.0293913   1.2957366  73.7096548  55.5924463
  41.7756454  19.4467484  79.2672610  42.0742933  20.3227888  79.0231299
  40.8402959  19.4472395  79.0638953  75.3670645  49.1889238  21.0101700
  76.1239624  49.2444515  21.5934825  75.5251598  49.8617458  20.3479433
  82.3616600  74.0596819  38.4959555  82.7844810  74.8314476  38.1193542
  82.7439880  73.3215666  38.0213571  12.0728676   3.2770007  25.0532484
  11.6014187   3.8954680  25.6113338  11.3902275   2.8610270  24.5267487
 106.9851875  59.5136023  60.4854918 106.4577103  59.2786884  59.7220659
 106.8434525  60.4539680  60.5943775  36.9904415   8.6944907  42.9313707
  36.9754688   7.8060859  43.2873821  37.6643650   8.6689799  42.2520971
  11.7790492  83.8015842  41.8682480  12.4640830  83.6694336  41.2128878
  11.9069656  83.0897903  42.4953175  82.2913170  70.4569626  43.8596392
  81.8202686  71.2352610  43.5619783  82.6558399  70.0772524  43.0601549
  65.7570545   8.8151210  21.3408470  66.5117733   9.3498843  21.5871167
  66.0779373   7.9142802  21.3826823  55.4170704  74.7713089  26.0417318
  55.5870438  73.8296270  26.0177112  54.9208641  74.9456024  25.2419615
  69.9660826  92.6661015  54.3861198  69.5608521  93.4115696  54.8291683
  70.7579994  93.0262947  53.9869165  51.3081630  95.1129954  81.8035418
  51.2674697  95.5988114  82.6272905  50.5921729  94.4804853  81.8628901
  31.2149135   6.6788428  36.8220186  30.9500114   6.1040633  36.1039090
  30.3945247   6.9148200  37.2550344  66.1038733  82.6494408  24.6527028
  65.9923267  81.7171764  24.4664860  65.3807592  83.0740738  24.1911554
  97.9564571  46.0225010  58.5998154  98.0760860  46.7953348  59.1517591
  97.0252514  46.0281849  58.3783197  77.3552132  81.7170620  44.6931458
  76.4095736  81.8524551  44.7536707  77.7317047  82.4119091  45.2332211
  87.9813099  58.2820415  13.2607663  88.6391163  58.2077932  13.9521432
  87.8565693  57.3848152  12.9514921  97.7173138  86.5329838   3.4619698
  98.1535625  86.6570854   4.3048960  96.7848396  86.5065575   3.6764684
 105.2838993  75.4379749   9.9096358 104.5162392  74.8820448  10.0432909
 105.9448719  75.0801516  10.5023468  75.8954859  66.1647701  37.6687980
  75.9238529  66.1824608  38.6254120  75.8860397  67.0869303  37.4123621
 101.6378880  83.6524105  11.1159325 101.7863274  83.3891582  10.2076936
 102.5120163  83.8439178  11.4557135  76.5930176  86.3657475  21.2810040
  77.4674797  85.9811211  21.3411427  76.3441229  86.2525082  20.3636932
  83.3712387  87.9452133   2.3043287  83.0649662  88.7555981   1.8972604
  83.7984371  87.4668407   1.5937705  84.7959805  70.7914448  63.7030029
  85.4333782  71.3246202  63.2279396  85.1796246  69.9145889  63.7162066
  10.3549274  76.6916323  51.6872072  11.2349208  76.7793131  51.3209343
   9.9765094  77.5677776  51.6137028 106.3699055  51.3532400  40.5261612
 105.8279514  51.6598368  39.7991705 105.8162022  50.7245016  40.9891272
  70.9193277  65.5184889  26.6889811  71.2989044  64.9515867  27.3603797
  69.9801445  65.3372955  26.7254901  88.0629444  84.1270447  57.1885538
  88.6339855  83.3900166  56.9719076  88.2867050  84.3455410  58.0932236
 103.6729527  63.2569647  10.3585255 103.6227608  64.2123222  10.3269231
 104.4230556  63.0751228  10.9246600  80.1211739  82.1106625  33.7706161
  79.4347334  82.3512650  34.3928289  79.6679735  82.0368195  32.9307365
  46.9200412  48.1507145  76.7028421  46.6567508  49.0579449  76.8572503
  47.8656570  48.1471859  76.8512922   6.0880836  42.6624775  48.2515955
   5.9579833  42.0559359  47.5226164   5.7014068  42.2172308  49.0055656
  53.0044127  99.0203094  30.6924081  52.4167728  98.8049698  31.4166594
  53.7141705  99.5170975  31.0994458  83.6939812  54.9983597  36.3886905
  83.4589481  55.7856131  35.8975434  84.6215248  54.8630905  36.1947989
  96.0150814  60.6269312  19.6947956  96.9386959  60.8006048  19.5131361
  95.6043148  60.5879450  18.8310909  65.8681774  23.8985300  64.6587324
  66.3688993  23.8522744  63.8442564  65.0637388  24.3588495  64.4195175
  92.7189064  91.1171150  47.3832321  91.9097614  91.0301685  47.8871775
  93.3693314  91.4073658  48.0227089  90.6106472  73.0474663   7.8425485
  91.0916519  72.9090548   7.0266378  89.7399330  73.3295679   7.5623673
  97.4800301  99.6800518  54.2030811  97.3021126 100.5358410  54.5932007
  96.7912102  99.5675564  53.5480213  91.0513210  66.2212706  44.0201902
  90.6499481  67.0157003  44.3723488  90.3149033  65.7078457  43.6880684
 100.9752846  97.0138454  34.4557786 100.3754997  96.4148712  34.0111208
 100.9306145  97.8213978  33.9438224   7.2848972  84.1772747  26.8181729
   6.5106567  83.8086796  27.2435212   7.1329005  85.1223278  26.8214846
  72.2558165  78.6550426  52.4412918  72.7338791  77.8562689  52.6641035
  71.7572021  78.4249449  51.6572857  94.0801239  61.1013937   6.9736081
  94.7705173  61.5068674   6.4490336  94.1580105  61.5153742   7.8331363
  84.5409584  81.9769955  39.4445992  84.1540432  82.4219036  38.6905527
  85.3015804  81.5183735  39.0877438  87.8017227  12.7728306  86.1802885
  87.3826210  12.6025187  87.0238376  87.9619113  13.7165295  86.1786227
  93.7588310  51.7002249  32.6227045  94.1167068  50.8947992  32.2492814
  92.8370571  51.6948938  32.3647404  59.6388817  73.7955666  25.9875417
  59.4818020  73.0567646  25.3995562  60.4671144  73.5861683  26.4192986
  88.7698460  50.8162451  14.5551872  87.8223324  50.9513426  14.5409775
  88.9888287  50.5607843  13.6590731  18.2741530  91.9163650  83.5199991
  18.5107406  90.9950822  83.6271864  18.8909324  92.2476667  82.8672725
  69.5944738  45.9391356  13.0650997  70.4733229  46.1372805  12.7416921
  69.6785307  45.9649801  14.0182507  17.1534808  78.6688995  58.8281965
  17.3529227  77.8516150  58.3715725  17.4239715  78.5101461  59.7325516
  65.4364157  54.7534943   9.0534359  64.7675514  54.3780708   8.4807968
  65.1832628  55.6718159   9.1474336 103.6755085  59.7935104  17.1618044
 103.4386730  60.4970551  16.5575171 102.8620434  59.3063402  17.2928238
  86.1019516  66.2959337  24.4971514  86.3842583  67.0102167  23.9258909
  85.2128315  66.5354443  24.7585630  37.8614704  11.1512607  40.9285593
  38.1762020  10.6070273  40.2067661  37.0874397  11.5911620  40.5769873
  18.0293925  77.7860737  24.7473526  18.1048091  76.8507910  24.9365330
  18.2710250  77.8640032  23.8244367   6.1064124  38.3074223  77.3382145
   5.5869078  38.6021553  76.5902346   6.0834574  39.0428482  77.9504603
 100.3521061  76.2341404  26.2089229  99.5104027  76.2982321  25.7576513
 101.0018349  76.2407827  25.5060363 102.8590393  56.6735077  51.6518831
 102.3873711  57.5063753  51.6611958 103.7238884  56.8919086  51.3046360
 104.3221951  59.5692205   7.1340883 103.7842369  59.8755312   7.8641623
 104.8303509  60.3370142   6.8723643  72.9292965  66.9141674  25.0546908
  72.6431084  67.8195333  24.9337006  72.9929686  66.8079090  26.0038424
  99.6753979  81.9340134  19.6899772  98.8496208  81.5025616  19.4704926
 100.1336098  82.0139790  18.8533866  90.7637882  85.6258011  42.5808764
  91.1052704  84.7374439  42.6830673  91.2074375  85.9649849  41.8034744
  99.1237259  54.4374466  17.9861748  98.3238888  53.9614630  18.2096231
  99.2222214  54.3106174  17.0425403  11.5624134  16.2293761  28.2492542
  11.8204109  15.7475989  29.0351057  11.8349353  15.6676715  27.5236869
  99.9364185  74.9705315  85.0312424  99.4818878  74.3860245  84.4246197
 100.3736401  74.3830538  85.6476307  83.5622978  88.6782551  25.8317471
  84.3720245  89.0631962  25.4964948  83.4935665  89.0076828  26.7278385
 106.6445351  91.8739700  38.5133004 105.7603550  91.8436241  38.1478572
 106.6404629  91.2127590  39.2054105  98.7812519  89.3845081  33.5588217
  99.2237473  88.5651302  33.7803054  98.8508892  89.4443607  32.6060367
 101.8339252  66.1061716  18.3945799 102.6402760  65.8937550  17.9245639
 101.6452312  67.0119572  18.1492794 100.9683037  69.8457956  52.6975918
 100.1082325  69.7460747  53.1057215 101.4339542  70.4584646  53.2668352
  13.6637775   2.4750464  43.3138180  14.3642131   1.9331973  43.6771536
  12.9001514   2.2737258  43.8547277 102.8144741  99.9365711  36.1463356
 102.5733852 100.4797840  36.8966842 102.2011375  99.2022610  36.1753321
 106.5853691  80.1471996  29.1238832 106.6099834  80.7920265  29.8308587
 107.3745346  79.6208906  29.2521715  93.9003944  94.5267487  20.6083584
  94.1697407  94.1796017  19.7579610  94.0499783  93.8055801  21.2197232
  87.1872330  36.7826343  62.7022457  86.5221310  36.2347269  62.2855186
  87.5582504  36.2284541  63.3888817  72.8896713  66.5879250   1.8701833
  72.4069977  66.0800648   1.2180003  72.6999617  66.1524534   2.7012122
   1.7502864  68.3389330  63.8515425   1.5427859  69.2578220  64.0213013
   0.8975013  67.9108429  63.7758780  66.1472694  26.9333778  77.4906128
  66.2756816  27.5446116  76.7652589  66.4474861  26.0907923  77.1498102
  78.7262392  54.9369240  26.2338734  79.6173429  55.1270437  26.5271544
  78.2113314  54.9009371  27.0399809   2.1419604  46.4444160  21.9903803
   2.4980243  45.5559015  21.9905376   1.2304576  46.3371229  21.7185879
   2.3064979  83.5146332  31.9350481   3.1425365  83.9807415  31.9308186
   1.7188247  84.0814018  32.4346948  96.7594433  76.1547804  22.4435544
  96.2330723  75.4797125  22.0152545  97.2263813  76.5848351  21.7271376
  91.2278748  85.5582619  20.2926350  91.3921356  85.9975052  19.4581795
  92.0866585  85.5138588  20.7130527  16.2162383  84.6300602   7.7568996
  15.3245815  84.9192429   7.9507190  16.4586433  84.0836430   8.5044885
  68.5349361  51.4716374  77.0884615  67.5863544  51.4105831  77.2011786
  68.6482326  51.9488178  76.2664586  85.3992939  84.6091557  56.9998312
  85.3040981  84.5346737  56.0502958  86.3013649  84.3392277  57.1720123
  88.9447212  70.4270315  21.7054987  89.2874432  69.7165966  22.2477627
  88.5591412  71.0408688  22.3306155   5.7347472  89.0951824  10.3919220
   5.4778560  88.1758308  10.3210890   4.9138339  89.5618820  10.5485284
  95.2297783  74.5462418  48.8327456  95.8659172  74.0451622  49.3431139
  94.3797779  74.2869902  49.1884613  67.8028011  67.6306105  41.0926962
  67.2442865  67.3309278  41.8099737  67.9031610  68.5704517  41.2438869
  83.0950451  89.4173622  56.5998268  83.2876587  88.5024071  56.8047810
  82.3592377  89.3762016  55.9889889  70.0872278  79.3955708  29.9041486
  70.3773022  80.0353432  30.5543637  69.3643475  78.9335394  30.3286552
  83.7129021  58.1431723  28.8973594  83.2756710  57.2993803  29.0117168
  83.0001736  58.7818956  28.8804126  91.7909527  57.9603434  40.4409313
  91.0242367  58.2926130  39.9740601  92.5362110  58.2528925  39.9163008
  86.3332462  54.5060825  45.8581018  86.9470310  54.1660595  45.2070379
  86.8476963  55.1312208  46.3687515  70.6430674  69.0214968  34.6561432
  71.2846375  68.3582735  34.4016838  70.4086781  69.4552279  33.8356709
  66.4096069  76.8668127  54.4057465  65.5579996  76.9795513  54.8279858
  67.0326757  76.8231964  55.1310825  91.9105339  69.8560286  46.7209673
  92.5302410  70.0709009  46.0238171  91.4709854  70.6840658  46.9143152
  25.8295520  69.6094704  42.4857616  25.3473647  69.9513626  43.2386494
  25.2214988  69.6976614  41.7517805  65.3044081 100.5473518  39.7854257
  65.3208256 100.2652264  40.6999588  64.9676609  99.7897243  39.3070626
   9.6259864  85.2359676  66.3733053   8.8714774  85.5806541  65.8956623
   9.3959983  84.3257046  66.5597153  74.4609404  61.0907125  14.5769107
  73.5398912  60.9628344  14.3498755  74.6784306  60.3388119  15.1278913
  11.8427737  47.0699072   6.1975425  11.2047561  47.6065350   5.7272226
  11.8103297  46.2197161   5.7589608  70.1439381  54.4351435  14.2119932
  69.9610424  53.4981632  14.1423547  70.6813431  54.5163631  14.9999213
  32.4846156  71.4821308  82.0781433  32.9787906  70.8716517  82.6252627
  31.6364654  71.0570710  81.9508987  94.8651600  98.7756824  29.9018264
  95.0723457  98.4828091  29.0143967  94.3387413  99.5652676  29.7766852
 102.8923893  36.6676331   0.5884447 101.9365692  36.6855168   0.6367044
 103.0862808  36.7339706  -0.3465619  58.7373161  53.0052614  10.6121135
  59.6668863  53.2313585  10.6439710  58.7166882  52.1308756  10.2231967
  53.0583946  38.3621918  85.9350577  53.5713760  38.1904541  85.1453805
  53.3275215  37.6787506  86.5488334  96.6290569  77.3287058  10.8565593
  97.5762844  77.4625683  10.8238125  96.4756298  76.5654755  10.2996325
  15.0266154  41.2730837  26.1994767  15.6656631  41.5199423  25.5309677
  15.1980098  40.3458118  26.3638616 107.5405502  50.6176138  67.0400143
 106.5849781  50.6711912  67.0555592 107.7794743  50.3430939  67.9253340
 106.9537735  17.9010808  61.3410330 106.3428783  18.5748649  61.0425997
 107.7632713  18.0834091  60.8638620  60.2086973  45.4287434  26.9025278
  59.7841358  45.7125807  27.7121067  59.5782042  44.8332167  26.4974904
 107.1877058  16.4280265   1.7968297 107.3580559  15.6620257   1.2486932
 107.6907023  16.2678092   2.5953010  90.0499105  62.0876198  86.5315452
  89.8341417  62.8140431  87.1163402  90.0997114  61.3239556  87.1064961
  19.5005687  62.6041126  27.4349308  19.1823943  62.7449179  26.5432072
  18.7284930  62.3163176  27.9220676   6.0235007  64.5182753  17.6433563
   6.2313827  65.4432392  17.5112104   6.6947158  64.0488052  17.1480763
 104.6636868  82.4963284  55.1897860 105.3838730  82.0999813  54.6994019
 105.0549316  83.2593441  55.6151962  87.8032494  98.0515766  31.7504239
  88.6680984  98.2031631  31.3692594  87.5842571  98.8767910  32.1832013
  80.2094451  59.3745361  68.3272296  79.9548332  60.0191055  67.6669782
  80.5275337  58.6265980  67.8216213  90.0058079  67.8542519   5.6969851
  90.4459667  67.2850132   5.0657469  90.7155609  68.2216835   6.2237453
  60.8997528   2.3079341  39.2828369  60.4539005   2.7113288  38.5380435
  61.6961281   2.8269904  39.3950558  73.4064198  83.9829922  41.7631483
  73.4928131  83.0297375  41.7543459  72.9019547  84.1704655  42.5547314
   0.7418330  48.4497070  29.6895170   1.0820850  47.7717257  30.2732968
  -0.1951424  48.4836245  29.8822927  46.4768966  69.0272951   8.5746425
  47.1832355  69.0246725   7.9286414  45.7142146  69.3495369   8.0943161
  90.1018333  85.2963448  32.8916669  89.2262554  84.9340820  32.7561355
  90.4379463  84.8303795  33.6572623  15.8391460  93.2434845  66.7841959
  16.0026630  94.1842365  66.7173338  14.9922641  93.1783581  67.2255468
  26.0429462  61.3329172   1.4767684  26.0927661  60.5141401   1.9700754
  25.1165279  61.4216900   1.2529238  13.5515769  88.2719231  39.8314857
  14.1323360  87.8670979  39.1872239  12.7219184  88.3858204  39.3678856
  84.0048409  61.4018917  17.6141059  84.6202564  61.5145683  16.8896699
  83.3245182  62.0560217  17.4543798  65.4743377  19.0629850  83.8729426
  64.5681373  19.0594851  84.1811955  65.6295005  19.9658857  83.5955900
  20.7916061   3.3426135  26.0085583  20.4809372   3.2196181  25.1115727
  21.0154049   2.4612563  26.3074946  17.3493950  26.6918986   6.2503988
  17.1076767  27.4481337   6.7851186  16.5862838  26.5388053   5.6932151
  89.7615433  38.8504076  11.4018130  89.4707203  38.9348245  10.4937792
  90.4645348  39.4941759  11.4889860  92.0737362  70.8786106  15.8258092
  92.3698044  69.9701309  15.7689106  91.5869808  71.0231590  15.0143826
  96.2311172  76.3313293  13.4172070  96.3699722  76.8244600  12.6086450
  97.1124363  76.1032343  13.7129807  20.3068058   6.1534446  41.3194895
  20.1212398   5.2185767  41.2310886  19.9383632   6.5466254  40.5283594
   1.6453727  77.2913742   0.5684879   2.4332221  77.0002031   0.1094339
   1.5683063  78.2194042   0.3470036  41.0835258  10.4017299  22.7270460
  40.4836265  10.7733195  23.3737898  40.5486862  10.2889770  21.9412494
  11.9380649  76.6170979  20.1800990  11.0244067  76.7356920  19.9204850
  12.3885234  76.3798761  19.3695188 102.2411346  77.3435593  46.0670090
 101.9454861  78.1565762  45.6573534 102.4360847  77.5882769  46.9716311
  79.1706800  96.8313694  21.3207984  79.9947071  97.0104218  21.7737412
  79.0999126  97.5278854  20.6680465  30.1452152  13.0987494  24.1411614
  29.5081798  13.5761588  23.6096478  30.5821697  12.5131457  23.5228014
  82.5260258  81.3608360  63.9523745  82.8298664  80.5847168  63.4816837
  81.5713787  81.3139248  63.9005470   0.7371886  52.2698879  40.5320454
   0.6663116  53.0050564  39.9231625  -0.1692693  52.0296383  40.7240009
  91.7893410  82.7715778  26.4932775  92.7052975  82.6050758  26.2707210
  91.3546944  82.8868771  25.6482840  22.3248275  71.8327951   5.3846115
  22.6954539  72.6335716   5.7555842  22.6165183  71.8338394   4.4729394
  97.9523373  94.3240452  35.8932233  98.6755466  94.1938686  36.5066195
  97.6502419  95.2159500  36.0649204   7.3315890  88.5467911  44.9988222
   7.7055247  87.6659298  45.0208855   8.0155738  89.1066265  45.3662348
   3.3049663  98.4657478  33.2099128   3.9270671  98.3673859  33.9307117
   3.5004123  99.3269730  32.8406906  92.1770954  57.6942301  14.9319804
  92.6982784  58.0649090  14.2198038  92.6055717  58.0053234  15.7293868
  99.5634937  47.0686960  22.5192380  99.9471283  46.8788052  21.6630864
  98.7376785  47.5094414  22.3192215  90.5390072  90.7591438   5.9355593
  91.3143826  90.3334808   6.3014001  90.7848740  90.9718132   5.0352508
   4.4173701  87.7514267  38.2498169   5.1145156  87.6797009  37.5978351
   4.5382102  86.9881439  38.8146353  27.5828735  15.7298701  53.3818865
  28.3422462  16.3032763  53.4857655  26.8495456  16.3275855  53.2363176
 105.5320740  75.9073734  38.0868626 105.0850582  76.1082506  38.9090896
 105.3978157  76.6849804  37.5450706   9.8553069  88.9200783   4.0053421
   9.0245898  88.9369583   4.4805822  10.4550727  89.4262409   4.5533422
 107.7379036  71.0031605  53.0594444 107.0046425  70.9876299  53.6745167
 108.4085941  70.4593420  53.4725523  59.4927780  31.7262302  86.9515235
  59.2917625  31.0430847  86.3118821  60.4075996  31.5720020  87.1871716
  15.3655227  86.2435341  46.4654112  15.9035381  86.1185265  47.2471666
  15.9378131  85.9969330  45.7388449  50.6694690  29.3137299  79.2962622
  50.3335468  28.5399233  78.8439160  50.7102100  29.9884831  78.6185670
   8.2102569  86.9562721  17.2305024   8.3150943  87.3557186  16.3669765
   7.4044212  86.4443302  17.1613443  92.1380615 101.7910957   2.8473055
  91.2050629 101.7487621   3.0569211  92.4450779 100.8890057   2.9378936
 103.1803226  50.7232237  29.2270255 102.6874352  50.0800467  28.7174916
 103.5865593  51.2887192  28.5701990 103.8559341  35.2785754  57.2476864
 102.9488659  35.4594660  57.4941540 104.3585396  35.9895086  57.6454306
 101.8371582  73.4688520  27.2019005 102.1525860  72.9627562  26.4531612
 101.3488007  74.1940212  26.8121982  32.7114852  97.3114872  32.1138096
  32.5184901  96.3843632  31.9744539  31.9853194  97.6292801  32.6503992
  17.0425208  88.7796974  22.9047108  16.2873920  88.6936474  22.3228073
  17.6169093  89.4037628  22.4610329  99.1570663  62.3174334  -0.2528339
  98.2462311  62.3488808   0.0397553  99.6433735  62.7832270   0.4274417
 104.8031807  69.7878885  26.3769341 104.5147896  70.0052404  27.2634006
 105.0463867  70.6294394  25.9910917  91.2183475  55.2288961   8.6302400
  90.3307533  55.4367876   8.9221066  91.5139961  56.0202503   8.1801522
  80.6733894  84.1957951  27.6687074  81.3565636  83.5514164  27.4835873
  80.0210381  83.7139130  28.1771016  14.5760234  83.7829494  57.0355129
  15.3530009  83.4165287  56.6132832  14.3627151  84.5569324  56.5142822
  18.6235603  78.8455200  17.8052843  18.1061633  79.5735598  17.4610579
  19.2931064  78.6913443  17.1388304   2.3374923  62.6880026  28.9395833
   3.1673511  62.7621269  28.4683442   1.8037112  62.1093655  28.3950734
  80.5112457  93.4837246  30.7264781  81.1273289  92.7526760  30.6789827
  80.9946918  94.1753960  31.1782575   0.5319198  60.6858349  76.0021353
   0.8512481  59.7996235  75.8321571   0.9060081  60.9162092  76.8525600
  84.4949627  71.9556093  45.0783443  83.7109566  71.7007732  44.5919037
  85.1525784  71.3058662  44.8301363  72.5944090 100.5568027  29.4931936
  72.8012562 100.8592606  28.6089039  73.3196545 100.8748436  30.0308752
   9.1645892  69.7849178  23.9319658   8.6090644  69.2865610  23.3325863
  10.0120815  69.3412542  23.8978648  98.4060860  86.7899036  36.7916036
  98.5185051  86.3221455  37.6191282  98.5408974  87.7104664  37.0165944
  86.2559700  86.7632961  22.1475816  86.7864704  85.9890652  21.9595337
  86.8095207  87.3012066  22.7136850  32.5970356   9.9806540  35.8842897
  32.0401947   9.8015349  36.6419721  32.0145790  10.4042952  35.2538061
 102.9771328  50.2192307  36.1221480 103.6422825  49.9557877  35.4862213
 102.7241230  51.1020660  35.8523011  32.3490135   7.2207110  24.4423342
  31.4580433   7.3518889  24.7666693  32.4884025   7.9406970  23.8271785
   3.7434657  99.0083122  28.3747649   3.2160361  99.7645855  28.1176686
   4.2524512  98.7943268  27.5928593  20.0287803  47.8666782  55.5384874
  19.1758807  48.2178593  55.7943726  20.1429828  47.0910501  56.0876608
  37.8181831  26.2981933  18.4788907  37.1876518  26.9229739  18.8370943
  37.6947300  25.5064719  19.0024984  68.0357885  89.5100784  42.8039980
  67.4877644  88.7260246  42.7699280  68.2073975  89.7224045  41.8865585
  23.1881658  79.4054300  12.9988956  24.0716259  79.0793759  12.8273809
  23.1308786  80.2178700  12.4960113   4.4217721  61.9939572  11.7903662
   3.8298933  62.7396876  11.6913831   4.5301858  61.8981654  12.7365696
  38.0024910   5.1157945   4.1983864  38.7017918   5.3348792   3.5825861
  37.6401758   4.2941558   3.8669223  54.4269514   0.9685370   2.0937747
  55.1775122   0.3745922   2.0827577  54.3198109   1.2020400   3.0158535
  52.6783562   9.9347979  34.4450641  53.5478115  10.3337097  34.4789815
  52.2437859  10.2395284  35.2416301  41.2326956  16.8331182   6.6142112
  41.9028330  16.2269950   6.2983656  40.5155706  16.2683594   6.9023341
  84.7107506  19.1956711  10.1782131  84.4689369  19.9586904  10.7031512
  85.2298069  19.5547795   9.4585973  55.4628980  67.8299063  82.0422810
  54.9329293  67.0610719  82.2526586  55.2141023  68.4795170  82.6998067
  67.5121737  10.3889751  46.9914961  68.1057024  10.3552103  46.2412882
  66.7364216  10.8433592  46.6629028  70.6081104   5.3769749  32.8393102
  70.1938248   4.5745558  32.5219393  71.1917686   5.0844783  33.5393238
  32.6114408  99.8444393  10.6772316  32.8052513 100.5107183  10.0178814
  33.4403173  99.3820556  10.8013344  68.7141943  19.9374640  11.9344437
  69.3923044  19.2884326  12.1219444  68.7847567  20.5707717  12.6487088
  49.0078878  15.1013637   6.0525924  49.9227047  15.0509584   6.3297153
  48.8521051  14.2780793   5.5898124  11.4361651  64.7401350  80.9969532
  12.0933993  64.3991953  81.6036200  11.3023646  65.6467002  81.2734800
  20.6973815  26.5462828  14.6733820  21.4425850  25.9895992  14.4475389
  20.5004692  26.3252306  15.5836535 102.4049187  90.6740564  55.4860919
 102.9875898  91.2890332  55.0405258 101.5874290  91.1586755  55.6004733
  58.6020851  11.8043184  42.2775459  57.9470253  12.2896993  42.7790737
  58.1189108  11.0686219  41.9013453  47.2121517 101.0311285  51.6814661
  47.1021835 101.1503436  50.7381058  47.6630775 100.1910124  51.7657614
  77.4212217  30.5658031  23.3897567  77.6120281  29.8241615  22.8154826
  76.9526625  31.1864972  22.8317046  21.4621393  89.0691728  45.3371334
  22.3099844  89.0910143  45.7808828  21.3892929  89.9263854  44.9174786
  31.1712591  20.6491648  83.9237040  31.1720888  21.3377892  84.5885569
  31.2727586  21.1166082  83.0945921  66.2980032  21.8764257  32.9072380
  66.5118837  22.5941610  32.3111320  66.1780405  21.1180425  32.3356676
  14.7024242  83.3485717  26.5684891  15.3075210  82.9880638  27.2166586
  15.2528135  83.8885898  26.0013199  12.4878732  93.7575323  21.2899756
  13.3012620  93.4573657  20.8843470  12.4391452  94.6876413  21.0691738
  36.7730165  40.5537605  16.5172970  37.0405316  39.6440268  16.6478729
  35.9322238  40.6234264  16.9694579  88.6875534  31.0962217  81.6561752
  88.8171720  30.2234309  82.0272118  87.9398346  31.4519864  82.1363598
  69.8492813  87.8244489  86.7557627  70.1834988  87.7550095  87.6500271
  70.4274702  88.4591597  86.3325907  13.0185020  17.1623516  38.4146309
  13.1681466  16.4567184  37.7854085  13.6118948  17.8603649  38.1373334
  21.0987035  97.8048030  19.8826611  21.8519680  98.1311027  19.3903673
  20.4134456  97.6906300  19.2241633  52.3814774   1.8804280  11.3711596
  53.1944227   2.2162455  10.9935641  51.9145823   2.6615912  11.6678500
  94.3842602  49.1260212  61.4823788  94.6788788  48.2787716  61.8164438
  94.9989509  49.3327796  60.7783669  90.4368969  92.4017281  15.7016683
  91.1741527  92.9815776  15.5107212  90.6429895  91.5910596  15.2362931
 103.3015728  27.6389187  81.7146927 103.7007332  26.8516319  81.3444483
 103.2428169  28.2469123  80.9777242  14.7126563  55.4934641  76.3222068
  15.1845534  56.3232844  76.2519127  15.0224097  54.9779552  75.5775362
  19.4481174  86.0169251  26.8222523  19.8762933  86.8663842  26.7158699
  18.6422769  86.2130744  27.3001385 105.9561395  63.2908183  75.3520137
 105.3083658  63.3404773  74.6490496 105.8968162  64.1384702  75.7926947
  42.0990983  97.1571199  30.8094358  42.9469100  97.1899555  31.2525678
  41.9878809  96.2362487  30.5730891  79.5630789  39.2849653  63.9368027
  78.8174152  38.6848395  63.9288705  80.3192615  38.7250918  64.1127556
  38.7443113   2.4909945  30.6097913  39.6657705   2.4433997  30.3550792
  38.4567094   1.5785205  30.6399298  34.3498087  48.0152559  25.5630159
  34.3669415  48.4400845  24.7054267  35.2704716  47.9511547  25.8169866
  80.9263134  36.7111826  23.3382130  81.7262840  36.6421509  22.8171492
  80.4094791  37.3843455  22.8955364  44.1684532  19.3778956  46.4518356
  44.6945763  18.8169003  45.8819962  44.7156382  19.5140588  47.2253180
   1.9476477   2.9174601  81.2215090   1.7634312   3.6441122  80.6263023
   2.8165690   3.1105743  81.5735203   0.1976935  81.4416439  21.3793921
   0.6119601  81.3744456  20.5191016   0.8251158  81.0385973  21.9794989
  82.4072838  24.4926357  17.8225291  81.9226074  25.3076410  17.6917791
  82.0574379  23.8969874  17.1599269  28.3145134  64.5333702  31.8747854
  29.0753118  64.1910774  32.3440886  28.6821500  64.9563510  31.0987949
  55.0892544   1.9816580  18.8072503  54.6776915   2.2498646  19.6287823
  55.4234409   2.7954060  18.4299362  47.9644442  33.9785838  25.1401067
  47.0128012  33.8767290  25.1246190  48.2347345  33.5784006  25.9665632
 105.2617550  45.2009612  83.5184136 105.4027700  46.0554891  83.1108260
 106.0432768  44.6962654  83.2931652  16.3839666  99.4518954  16.3790751
  15.8903734  99.3049645  15.5722225  16.3414232 100.3981618  16.5169227
  33.2341456  44.9873590  42.7477646  33.8855624  45.5799150  42.3725796
  33.2799435  45.1469898  43.6904478  86.3710499  14.1242588   9.0958333
  85.6722450  14.7783983   9.0969932  85.9306622  13.3037055   8.8745290
  53.1032991   6.8934911  26.6678905  52.5783110   7.6659667  26.8774199
  52.6386547   6.1678499  27.0847607  48.9550869  92.1761663  35.1143360
  49.4405357  92.9020912  34.7224140  48.3661453  91.8795908  34.4204903
  10.1017515  93.1308491   4.3264276  10.0904409  92.5218821   5.0648469
   9.2385618  93.0352891   3.9239275  63.3535099  16.6999078   6.4413440
  63.3666801  16.6890109   7.3983914  62.8312063  15.9348488   6.2002701
  84.1576290  31.6493607   8.4330326  85.1070881  31.6439486   8.3116663
  83.9466858  30.7582188   8.7116033  20.9787170  71.8644411  34.2087364
  20.1939861  72.4104173  34.1603637  21.5575735  72.2166187  33.5326242
   7.3321565  61.2589377  78.4846318   6.5468438  61.4429408  77.9692083
   7.3879083  61.9864386  79.1042012  45.3560066  14.2283547  38.0044937
  44.7054625  14.5298958  38.6386037  45.8168602  13.5193026  38.4529233
  32.5028372  26.9780755  27.9930210  31.9061732  27.2498894  27.2956395
  33.2628798  27.5516343  27.8950429  39.7361922  26.3914204  40.7543612
  40.3281736  25.9108090  41.3329792  38.9246321  25.8840346  40.7670021
  49.5112801  31.8156147  30.6315637  48.9728451  31.2233400  31.1564708
  49.3490553  31.5483761  29.7268558  37.7623884  98.4770165  40.3061962
  37.2575704  98.8960791  41.0031700  38.6404745  98.3764411  40.6737280
  85.1743507  19.5851254  19.1805303  84.5430756  20.2530599  18.9129794
  85.8880615  20.0784087  19.5848989  49.1804306  87.4298281  18.6425936
  48.3406631  87.7803988  18.3457410  49.3445007  86.6821844  18.0678380
 101.4220103  61.5859277  58.5056448 102.3640855  61.5431840  58.6696625
 101.0333308  61.7071826  59.3719339  46.2094307  17.6592195  39.6312118
  45.4032135  17.2163105  39.8959374  46.6552067  17.8576136  40.4547119
  74.7803020  22.6159596  50.9467983  75.6713533  22.3036957  50.7894611
  74.5912504  23.1861711  50.2015781  67.1722794   9.3597072  36.6706467
  67.6351357   9.8940992  36.0253406  66.2489462   9.4425762  36.4322686
  26.5742476  30.2082127  68.1759339  27.3480590  30.1374333  67.6169747
  26.9091685  30.0896876  69.0647596   7.8903516  69.5473295  75.6932276
   7.9693587  70.1592749  74.9614399   6.9482739  69.4057613  75.7864159
  53.7002230  10.1561999  39.0307069  54.6134949   9.8749769  38.9752507
  53.6109877  10.8170462  38.3440137  47.4347878   0.5540483  13.1836843
  46.6217804   0.3004112  13.6206341  47.8588915   1.1545530  13.7966788
  91.3959408  34.3731761   8.1970918  91.5334129  34.4644690   9.1399586
  92.2036648  34.7039461   7.8041428  89.0964031  12.4170923  23.6868286
  88.2307625  12.3620737  23.2820225  88.9428520  12.2128701  24.6092963
  68.2595825  22.3099017   7.2900128  68.7853956  22.9572582   6.8202424
  68.8354015  21.9930387   7.9859042  32.9725877  98.0625514  17.8612697
  33.2824651  97.8571770  18.7433290  32.9659740  97.2197936  17.4074554
  48.1665794  79.9285180   4.4767925  48.2674400  79.0729959   4.0594903
  48.9334384  80.0103337   5.0437790  87.9818106  93.5592883  64.4318980
  88.0334329  92.6794236  64.0585226  88.6950350  94.0399688  64.0117973
  33.8143865  97.7326382  46.1619329  33.6268655  97.7508063  45.2234554
  34.7112123  98.0595032  46.2333536  43.6201421 101.0737916  10.7004583
  42.9573146 100.7982725  11.3336861  43.6805240 102.0222781  10.8142984
  11.6906055  82.5418227  61.4131468  11.2426074  83.3049100  61.7781561
  12.6205047  82.7630418  61.4638942  61.6465878  66.7101186  84.2285332
  62.5613880  66.6195815  83.9617461  61.4443135  67.6339596  84.0807646
  64.0488672  10.0512838  13.6290109  64.9491310  10.3404653  13.4802461
  64.0658903   9.1117471  13.4467709  65.1931953  20.4677320  58.9625216
  64.2735243  20.6839776  58.8086653  65.5038548  21.1512184  59.5562983
  16.5126030  86.7222065  26.9152713  15.6186620  86.7743821  26.5770698
  16.4885179  87.2185285  27.7333879  93.4036255  19.0051889  39.2333198
  93.2714462  18.7402523  40.1435757  93.4290504  19.9615753  39.2635107
  42.4264050  23.9730573  33.7254786  42.9844379  24.1302443  34.4871378
  42.8624582  23.2652164  33.2510829  72.2728968  17.7503753  27.9543638
  72.2566891  17.1719217  28.7168336  73.1960297  17.9797173  27.8472972
  73.0063868   1.9975428  13.7764633  72.9768705   2.3601912  14.6618140
  72.2512674   2.3848289  13.3337033  70.3323738  98.0244038   4.9463037
  70.3864757  97.4575550   5.7157111  69.5824710  98.5932953   5.1201773
  46.2475729  29.0244246  35.7133341  45.9735537  29.4226241  34.8871493
  46.4505053  29.7674441  36.2816381  11.6299240  99.1989262  30.2373075
  11.2932245 100.0943839  30.2053213  11.4976446  98.9255879  31.1450648
  63.0662012  13.0610502  39.0808558  63.4920263  13.2311583  38.2406378
  63.5046339  13.6498523  39.6951222   9.1498836  15.4717243   2.3189460
   8.4397109  16.0807955   2.5212461   9.4326194  15.7175446   1.4381143
  50.9162903  30.8891726  43.6598444  50.6978273  30.4985189  42.8137398
  50.8227015  30.1715302  44.2863131  60.9445524  43.9522552  19.5670593
  61.8962717  43.8499832  19.5697188  60.6220102  43.2055378  20.0716519
  95.0925541  33.7643337  16.2373006  95.9689140  33.8924980  15.8742559
  95.2456951  33.4132791  17.1145344  53.1157676  91.0651786  23.7126875
  52.7028553  91.8161810  24.1389871  53.5858909  91.4409072  22.9683495
  91.7717838  18.8901854  52.4130869  92.4617290  19.2908680  51.8842459
  91.9913673  17.9586184  52.4272537  63.1409065  81.8456192  21.6855836
  63.6031906  81.1702640  22.1819973  63.4790508  82.6713080  22.0321798
  45.2690649  15.2712774  14.4115281  45.5577564  16.1580789  14.6271038
  45.7061720  14.7139406  15.0553799  38.3605146  57.7717924  20.1839256
  39.1578364  58.2758474  20.0213289  38.5103679  57.3533916  21.0316992
  80.9956264   8.4230447  18.0953157  81.0361481   7.4872720  18.2925951
  80.5813980   8.4684336  17.2335792  50.3889362  80.6687338  23.1541657
  50.7922164  79.8586614  22.8421021  50.2174274  80.5088574  24.0822053
 101.6838455  44.9423695  20.1157165 101.2194538  45.7356215  19.8486388
 102.1855450  45.2066994  20.8868575  16.0141643  64.7024208  78.9930451
  16.6505988  65.3461164  78.6818474  15.8030589  64.9851530  79.8828369
  93.6649179  72.2876852  69.7486776  94.1430759  72.5876587  70.5217308
  93.1426191  71.5491551  70.0617486  31.7211763  92.6159240   8.3566910
  31.8862621  93.5292382   8.1225210  32.4019186  92.4057616   8.9959526
  82.7853394  40.2609634  24.8675990  81.8738747  39.9736047  24.9214268
  82.8816795  40.5854797  23.9722562  23.7158481 101.4327326  25.1747417
  24.1007701 100.5980742  25.4419780  24.3711702 101.8248546  24.5976567
 106.9150066  77.4735134  80.3120666 107.5479364  76.8968337  80.7399302
 107.4515056  78.0921214  79.8163652  64.3268776  43.0335188  22.8595495
  64.0610123  42.1235847  22.9920793  63.7522650  43.5373116  23.4359574
  72.5429344  17.4059689   3.8493606  72.1813583  16.5397060   3.6620581
  72.6492357  17.8122377   2.9891992  30.0053596  59.1562366   3.3430797
  29.6464825  58.5457659   3.9871010  30.9166169  58.8834095   3.2362750
  93.6099052  28.9446163  19.9082685  92.8795815  29.5631838  19.8927414
  93.7016392  28.6594725  18.9991438  60.1699448  22.8349876  23.3198643
  59.3916702  22.3949790  23.6617923  59.9508858  23.0365348  22.4101257
  52.8224269  66.0324509  13.1624424  52.5287239  66.5476329  12.4110711
  53.7741558  65.9927184  13.0683005  31.0746280  58.3569629  15.6289089
  30.7116691  58.0012328  16.4400470  31.5879575  59.1149909  15.9084105
  78.7700987   4.9107543  22.4229860  78.7265968   4.7446209  23.3646536
  78.8308382   5.8632618  22.3503757 103.5361576  24.4435430  16.3467097
 102.9943371  23.7240314  16.0227251 102.9172039  25.0363088  16.7730355
  96.7050648  12.8969562  86.8269062  97.2644615  13.5970509  86.4905071
  96.6502666  12.2676826  86.1077118  97.5569820  23.5156798  13.7849665
  97.6357841  24.4097757  13.4523797  97.1393204  23.6143470  14.6405697
  59.8858595   8.7059617   6.7771143  59.3664408   8.0701935   7.2692871
  59.2505836   9.1519821   6.2170058  68.8633633   6.3713932  35.1613760
  69.3081522   7.0120168  35.7163525  69.2162037   6.5274364  34.2853689
  70.7738066  51.6840219  22.2485018  70.6199169  51.0821199  21.5203071
  71.6794586  51.9719553  22.1339464  33.0009977  96.6568059  20.1489830
  32.0628444  96.6393328  20.3381658  33.3720676  97.2188459  20.8291698
  57.9990721  13.5384417   5.6342435  57.5074387  13.4618461   4.8165241
  58.9172602  13.5126913   5.3649873  66.2318802  37.8199506  22.2291350
  66.1438656  37.2393370  22.9850292  67.1766090  37.9017448  22.0986700
  55.6370831  18.4815550  30.6955266  56.0599089  18.4368265  29.8379421
  56.0606861  19.2199576  31.1331987  23.8535674  68.2336968  80.0443095
  24.3531402  68.9123374  80.4983008  23.0091556  68.2161492  80.4947394
  81.6886139  36.4632916   5.3156435  81.7461205  37.2922254   4.8404676
  82.4650669  35.9754682   5.0410956  82.2447968  27.6947355   5.2931863
  82.3235607  28.5529494   4.8766595  81.4785767  27.7737141   5.8614296
  95.1507950  32.0270228  50.3602934  95.8590221  31.5679121  50.8118010
  94.6019936  32.3722911  51.0644531  68.4316111  22.8780222  16.8445623
  68.8615704  22.7292466  17.6867223  68.6585236  22.1096730  16.3207483
  85.8829308   8.9968157   9.8372114  84.9374008   9.1297883   9.7699982
  86.2014008   9.0830207   8.9386672  97.4117708  62.0068973  84.4983807
  97.4252844  61.0839074  84.7516334  96.8784904  62.4318057  85.1701700
  93.6363983  18.4380102   5.9612179  94.0912724  17.7443278   6.4388418
  93.7322235  19.2127442   6.5151459  14.1525404  73.4557778  20.6833816
  15.0330297  73.7051255  20.4026794  13.9590112  74.0426452  21.4143848
  16.3147433   9.7565657   7.6128232  16.6017421  10.5639195   7.1861547
  16.8761333   9.6808028   8.3844036 107.1576977  29.3585753  42.5816059
 106.9141674  30.0383306  43.2099819 107.8563213  28.8696241  43.0164433
  88.4789085   6.8742573  64.4133282  88.2018375   7.1857238  63.5516691
  88.4352016   5.9202492  64.3486023  51.7433310  14.6623909   5.8941203
  51.7939377  13.7274647   6.0930789  52.2102880  15.0861382   6.6142732
  44.7035885  30.5992794  33.5646749  44.3936777  30.9800744  34.3863726
  43.9101982  30.4760671  33.0435371  72.3188734  15.3472841  29.4302297
  72.8737211  15.1395249  28.6784244  71.5172577  14.8455536  29.2822170
  56.9789306 100.1758660   1.0134156  57.7682010 100.3280286   1.5331574
  56.3270656 100.7677092   1.3889489  39.3209592  99.5208029  11.3351154
  38.8894454 100.2471960  10.8852470  39.0658561  98.7447087  10.8362854
  21.5084823  64.3172699  79.0134573  21.6007407  64.0841013  78.0896860
  22.2294410  64.9243849  79.1803980  64.5080233  27.3274040  40.5395842
  65.0039387  27.5584078  39.7541308  63.9316750  26.6167164  40.2585602
  86.1287785  16.1974216  33.0430651  86.6624355  16.6185689  33.7169123
  85.2264023  16.3369298  33.3302879  48.4613228  20.3336692  19.4506192
  48.8241339  19.4549406  19.3391061  48.1822729  20.3632212  20.3657627
  80.6066608  14.0136063  26.5628028  80.2211666  14.8896122  26.5783072
  81.4006996  14.1106224  26.0371375  94.4626427  35.9443212  14.7153127
  94.6152878  35.3804326  15.4735744  94.7289753  35.4135227  13.9646125
  59.7592497   3.3240888  41.8908930  59.3160582   2.5331044  42.1977377
  59.9673653   3.1418425  40.9745407  78.9698315  37.1851277   6.6079074
  79.4419432  36.9990206   5.7962996  79.6401596  37.5199723   7.2035319
  71.1601782  71.7451334  13.6657786  72.1084738  71.6409397  13.7439752
  70.8108091  71.3737535  14.4758713  67.9207325  33.5079169  23.3613729
  67.3170471  33.0497122  23.9460421  68.7872410  33.1895638  23.6144543
  44.6059410  97.2158072  11.7191935  44.6934120  97.9801399  11.1496532
  45.0583068  97.4646876  12.5252056  99.6759701  62.7177113  66.4955967
 100.1590490  63.3917492  66.9736594  98.7579584  62.9750317  66.5808695
  53.0841017  17.6620901  36.4514899  52.3286867  17.2103512  36.8276668
  52.7930164  18.5677230  36.3450480  78.3661548  83.8315768  16.1488950
  78.6620990  83.4102578  15.3419626  78.5205165  84.7648139  16.0023546
  29.3473140  85.7649667  17.5350380  29.8017065  85.7075948  16.6945195
  29.3052856  84.8609311  17.8467846  90.0312805  27.7136016  14.3084681
  90.0261879  28.6320305  14.0388441  90.7742214  27.6441026  14.9080026
 106.7042351  30.7078052  12.9276359 106.0259056  31.3419700  13.1598568
 106.8614388  30.2186942  13.7352812 104.1836643  17.9720140  31.7927814
 103.4841824  17.5950360  31.2590694 104.9788952  17.5339937  31.4895010
  84.0666866  63.0379956  87.0338518  83.4977674  62.3937696  87.4552059
  84.3434191  63.6150389  87.7456606  92.7206802  37.5924969  19.9105442
  91.9523430  37.0265865  19.9855888  92.6370716  38.2077432  20.6390429
  52.7164928  78.5801656  10.8967149  53.5422317  78.8397748  10.4880798
  52.1732799  79.3674595  10.8602583  63.9579582  18.6901009   4.5439959
  64.1730452  19.5359874   4.9369913  63.6037588  18.1730175   5.2674580
  84.0194988  25.8661771  38.6494398  84.7519779  25.2508116  38.6814880
  83.7652683  25.8880782  37.7268791  92.5674200  55.5069187  83.5126981
  92.2619581  54.6094894  83.6451518  92.9112530  55.5135080  82.6194066
  42.5428200   8.9410228  13.3786893  43.0781507   9.4125116  14.0169299
  42.8308010   8.0309778  13.4502137  93.2982922  36.3141680   1.0965944
  94.0122223  36.9230771   1.2857431  93.7192535  35.4552484   1.0607233
   2.7746137  57.5537532  87.5768197   3.5618003  57.1900766  87.1714692
   2.2659238  56.7875021  87.8420092  54.3870020   9.6220702  23.8638043
  55.2983332   9.6617490  23.5737443  53.9206409  10.2097380  23.2693386
  53.6788177  28.7399650  33.6402035  53.0794096  28.7937260  32.8958583
  53.1391048  28.4110761  34.3590736  83.5539722  28.0682063   1.1167649
  83.7710667  27.5084257   0.3712799  83.0234718  28.7712526   0.7418954
  40.8503381  99.0957842  29.3448305  41.5743009  98.6493240  29.7839022
  40.0947229  98.5262612  29.4894719  84.2580986   6.9070262  27.6145315
  84.7696209   6.9040841  26.8054748  84.5808220   7.6667666  28.0991745
  85.2273750  13.4488547  28.8969398  84.9647808  12.7858591  29.5354605
  84.4804478  13.5178316  28.3023262  14.5365508  96.2048524  73.2025093
  15.0292285  95.7378238  73.8773280  14.5343955  97.1162360  73.4951001
  78.1129646  13.0864489   3.9446723  77.9052544  12.1756768   4.1534340
  77.5240278  13.5993457   4.4981322  28.7642463  75.8466523  84.6453884
  28.8451846  75.8699434  85.5988764  27.9615863  76.3345259  84.4611591
  70.0551748  33.6205053  30.0758862  70.3709602  32.8821540  30.5967975
  69.7663403  33.2266808  29.2526555   1.6886552 100.2842944  81.0868150
   0.8809503 100.0757115  81.5562129   2.3760303 100.2119010  81.7490130
  70.5342770   0.9767839  25.6613541  69.7892761   1.3635889  26.1213374
  71.2304735   0.9447191  26.3174868  88.8759041   3.8424477  18.8601768
  88.7236977   3.1027186  18.2720733  88.0066586   4.0676236  19.1917467
  79.9023056  50.2753401  20.5766082  79.6358395  50.2770996  19.6572483
  80.1104546  51.1899471  20.7674003  63.9031315   5.2422869  16.0859203
  64.2545033   5.8098209  16.7719793  64.0102720   4.3556476  16.4303386
  65.6616354  16.5177214  51.5715599  66.3249493  15.8296466  51.5186739
  66.0918474  17.2933137  51.2115526 107.7405596  96.7133277  73.6301309
 108.1732750  96.4749330  72.8102773 106.9239569  97.1315139  73.3571702
  45.8957148  55.8872414  18.2478905  46.7634916  55.6207705  17.9442716
  45.4403496  55.0639391  18.4240806  40.2174091  10.9576178  19.6883070
  39.7922111  10.4948473  18.9663088  39.5418501  11.5449774  20.0272202
  33.6882067  35.6708407  19.5241356  33.8930225  35.0194025  20.1948881
  32.7347493  35.6413841  19.4448698  79.9829626  24.4227195  33.9520359
  79.9234104  23.6832166  33.3472061  79.1071653  24.4925380  34.3319559
  32.0600311  94.0122623  37.6732159  32.1994154  94.7512329  37.0809937
  31.1112062  93.8860471  37.6795316  63.0879068   0.8281541  41.6719198
  62.7349091   0.7933301  42.5609732  63.9688587   1.1872067  41.7778921
  19.4274036 100.7579307  36.2921739  20.2295867 100.2370774  36.3301754
  19.3393842 101.1266632  37.1711063  60.1296608  91.0130579   6.0819668
  59.9307243  91.8637700   5.6908834  60.1610271  90.4096217   5.3395969
  86.6087675  58.8468491  84.7165817  86.7235136  57.8968936  84.6910873
  87.4730873  59.1863566  84.9487906   8.1491073  21.6545057  37.2828102
   9.0712817  21.8247390  37.0908713   7.7710517  22.5215054  37.4298382
  99.2233562  51.6281554  83.1714439  99.3634844  51.1625663  82.3469305
  99.1541719  52.5485926  82.9179865  35.4515258  75.1157267  22.1496654
  34.9868289  75.8175976  21.6939616  35.0449125  75.0820667  23.0155540
  85.9698391  15.0684500  13.8725293  86.1884689  14.6125174  13.0597830
  85.9455872  15.9938276  13.6289704 102.8222227  34.0448611  81.4133858
 103.7288523  34.1155296  81.1146223 102.6481294  34.8788493  81.8497205
  67.8353357   2.4833304   6.6514409  68.7297249   2.4698463   6.9921988
  67.2959995   2.1812986   7.3822820  79.4358110   6.5064788  12.2778201
  78.5421562   6.2748808  12.0248806  79.3895006   7.4374771  12.4953759
  40.3656522  87.0966966  14.5532513  39.8768941  86.9744629  13.7393677
  40.3484861  88.0419082  14.7032893  27.5771888  81.1021035  79.1893214
  27.8507979  81.2615102  80.0926268  26.6330703  81.2597674  79.1936630
   9.3590919 101.1337148  35.2218986   8.5573188 101.3764019  34.7587609
  10.0040142 101.7826487  34.9404883  67.3948193   5.0038964  31.4651632
  66.7680740   4.3224254  31.2222195  66.8517160   5.7577288  31.6953945
  23.4221450  93.6704732  24.2605567  22.8790657  93.9471454  23.5224867
  22.9546825  93.9866889  25.0336790  30.9700537  20.3941941   5.8109051
  31.6224885  20.8406496   5.2712417  31.4464021  19.6654677   6.2087524
  22.7081855  75.3159397  73.0949372  23.1547053  75.8572381  73.7459725
  22.6980861  75.8533447  72.3028975  58.8774395  15.7446444  58.5585165
  58.6757326  14.8157692  58.4456539  59.1669559  16.0337365  57.6931620
  81.0611057   5.0097620  31.3580656  80.4306602   4.3070215  31.5159774
  81.4121723   5.2157319  32.2244143   3.4824737 101.4602416  85.7507781
   2.5389083 101.3026469  85.7836324   3.6533387 102.0457643  86.4884785
  45.3662252  28.9384294  21.8699002  45.6622314  28.6982775  20.9918690
  45.7479239  28.2725120  22.4418211  86.5781784  24.6414208  20.2986097
  87.0040226  25.0439215  19.5417202  87.2607136  24.6103239  20.9689856
  54.0147829  46.2783957  26.6203332  54.6506214  45.6615877  26.2577152
  54.5007467  47.0981359  26.7103219  61.2878418  29.4590974  12.7727032
  60.4911137  29.6776772  13.2561004  61.6182613  28.6690140  13.2002783
  93.8038349  71.5816021  22.0738316  94.5733929  71.1613274  21.6899180
  93.0772591  71.3082027  21.5138626   7.9853002  80.2250273   9.3785894
   8.5688106  80.3797776   8.6357552   7.1128170  80.1653320   8.9894336
  79.8406887  29.7462559   2.3990163  78.9518404  29.6888924   2.0484604
  80.2944756  30.3437710   1.8046369  37.1505491  86.9344587  30.9667683
  37.3289291  87.8332026  30.6898737  38.0163995  86.5466744  31.0938692
  38.4739152   6.4244257  68.2952648  38.3564750   7.0598589  69.0014249
  37.6323358   6.4147793  67.8393239  95.2626801  23.1298351  48.0072403
  95.6493282  23.9984560  48.1178284  95.5128860  22.8672981  47.1214056
  63.0128002  19.8329544  52.1235466  63.5384607  19.0393853  52.2243500
  62.3509741  19.6007168  51.4721775   5.9812053   9.6709484  26.6768265
   6.6977580   9.4681782  27.2782111   6.0852988   9.0447176  25.9604263
  87.1784544  44.9846619  67.7385276  86.6976213  45.1609885  68.5471958
  86.9945907  45.7406026  67.1808713 107.9892635  46.5395594  41.1478519
 107.3096371  45.9264708  41.4279556 107.6740837  47.3955059  41.4381123
 102.1420383  26.8505502  14.0320981 103.0195618  26.8278861  13.6504316
 101.6586494  27.4693012  13.4846342  59.7407436  36.3547111   8.2677913
  60.1063490  37.2392941   8.2766134  59.9499893  36.0004377   9.1320479
  61.8194008  15.1100934  46.9989824  61.3507366  15.6657386  47.6217508
  62.4284554  14.6062005  47.5387764  25.5202333  90.8532638  16.3166273
  24.5704834  90.8501334  16.4357734  25.6974737  90.0773258  15.7848990
  67.2256589  74.9957626  58.7795871  66.3847136  74.5769494  58.5961789
  67.5459075  74.5553821  59.5668214  81.8727493   4.9950048  -0.0972507
  82.3901558   5.5366600   0.4986743  82.1478271   4.0983868   0.0941616
  51.2752056  14.5540941  49.9689150  52.0217848  14.1017056  49.5762348
  51.2059593  15.3728247  49.4778776  75.2418661  19.5300686  16.6471803
  76.0087109  19.2123461  17.1238720  75.1569748  18.9323235  15.9043968
  95.5889511  28.0949020  23.8121462  96.3563442  27.9236984  23.2662320
  95.7761002  28.9345741  24.2318583  34.4182579  86.8817944  55.5078745
  34.6066133  86.1081726  54.9765921  33.4666244  86.8757755  55.6107759
  10.5688230  90.5298466   8.6773735   9.8679964  91.1683435   8.5454851
  11.3048259  91.0464174   9.0055317  79.3451309  36.1040187  27.4622774
  79.4805050  35.8229446  26.5573430  78.3985233  36.0461974  27.5919747
  26.7070087  85.6302255  69.5612973  26.9192584  84.8373716  70.0538069
  26.6814025  86.3227146  70.2216249  65.5954838  23.4341812  45.7476950
  64.8015213  23.2018805  45.2661467  65.9877014  22.5932670  45.9827709
  23.2892251  40.0753975   4.1769907  23.3306098  39.1252804   4.0683839
  23.9561343  40.4140234   3.5796681  58.6234379  18.7050509  18.3252490
  59.2171478  18.3392310  17.6695704  58.0119324  19.2422009  17.8215003
  25.8185657  50.0111892  85.8351032  25.5927833  50.6631972  85.1716721
  26.7042811  50.2470201  86.1110148  65.8587837  50.4296970  27.1665525
  65.6470823  49.4967127  27.1974945  65.3400850  50.7689285  26.4370942
   7.5521747  69.5894439   9.2777562   6.6631977  69.3027527   9.4869459
   8.1175701  69.0008981   9.7779304  16.9476024  92.6778544  26.3169098
  17.6493970  92.1023495  26.6210723  16.1421863  92.2373081  26.5879345
  83.6178112  27.8715897  20.4932070  84.3994617  28.3932853  20.6750917
  83.9396954  26.9724679  20.4283595  66.4158535  27.9776001  38.5462928
  66.1392450  27.6663017  37.6844287  67.1814156  27.4439716  38.7593412
  58.8276529  41.0823107  28.6683154  58.8989162  40.3596258  28.0447125
  59.5670414  40.9588432  29.2635369  23.9827807  70.3418666  71.4226740
  24.9348434  70.4392796  71.4051026  23.7805160  70.1295441  72.3338490
  59.5883512  39.4179320   8.6159152  60.1042843  39.3859434   9.4215339
  59.2665195  40.3183937   8.5731989  83.4973955  78.6212390  86.4654000
  82.6630306  78.1521838  86.4581758  84.1291427  77.9811948  86.7932267
  49.0781927  40.8445787  20.0489688  49.6291924  40.9607553  20.8230042
  48.2761717  40.4435539  20.3838921  53.8107300  32.0786977  29.2001247
  53.0629301  32.5885034  29.5117784  54.5613575  32.6622057  29.3110776
  27.1072761  95.1798166  37.3458672  26.8844739  95.3457648  36.4298677
  26.7670528  94.3022139  37.5199151  96.3263321  81.4954155  75.6043130
  97.1039295  81.6276448  75.0620156  95.8796787  82.3419397  75.5930251
  72.9070139  29.3514419  39.6546316  73.7885141  29.0039349  39.7903585
  73.0001354  30.2959538  39.7789621  90.6238747  27.3334503  11.4032531
  90.3261948  27.3162055  12.3128235  90.0772762  26.6846132  10.9600043
 102.2651958  25.4902244  18.7947762 102.5828838  26.3908935  18.8588178
 101.3374519  25.5784535  18.5762715  23.2105144  93.0856133  19.2446709
  23.6205085  93.8481998  18.8365090  23.3440955  92.3765182  18.6157203
  84.2905712  32.9470849  24.8463488  85.1109695  32.8499866  25.3298259
  84.4716835  33.6316633  24.2023134  64.1601992  14.9837101  40.7222891
  65.1038980  15.0357819  40.8738136  63.8156462  15.8050430  41.0728979
  69.4790554   3.1656680   2.9051203  68.5576630   3.4131992   2.9825345
  69.4785881   2.4288115   2.2941585  51.2737083  40.2523088   0.1831640
  50.8058500  39.4529629   0.4247957  50.5834103  40.8995485   0.0389328
   2.8854434  84.2160339  11.2498999   2.3831121  83.5311479  10.8085084
   2.3815075  84.4112188  12.0399535  96.3688850  66.0360909  15.5574620
  96.7919636  65.3290987  16.0447001  97.0469189  66.3559723  14.9623370
 107.5034618  53.4594198  76.9342452 108.1564569  53.9453214  76.4305335
 107.8775692  53.3958041  77.8130084  91.7950249  95.3251880  72.0983118
  91.6612768  94.6293681  71.4547437  92.7384996  95.3239482  72.2598105
   0.3203853  20.6533432  69.6763229  -0.3018205  20.3451729  69.0174484
   0.1113589  20.1445150  70.4596710  87.3323059  72.9906082  26.5843916
  87.3980141  72.3991442  27.3341155  87.9716778  72.6536846  25.9567595
   7.5664600  29.8451066  10.4196298   7.9285892  28.9789772  10.6064880
   7.9623969  30.0952435   9.5848262  77.5731659  25.4862142  15.8253050
  78.0602121  24.8574090  16.3578665  78.2337236  26.1135149  15.5313790
 100.6310177  52.4611473  20.1534724 101.1991310  52.7902031  20.8500338
 100.4208374  53.2347059  19.6303380   6.1766132   2.5484943   2.1500462
   5.4538806   2.5578308   2.7775753   6.8574985   3.0811915   2.5609729
  71.1917210  56.2927723  21.3925982  70.8656406  56.5281200  22.2612286
  70.5906057  56.7249918  20.7859039  68.4701490  13.1916881   6.0128826
  68.7265110  12.3036468   5.7641047  69.1499567  13.4747946   6.6243911
  15.1370319  12.8199887  29.1561580  14.1811736  12.7822518  29.1900349
  15.4201396  11.9368339  29.3930507  84.6476269  66.0687256  15.8157539
  85.0738335  66.9117689  15.6612813  84.2935944  66.1382151  16.7023551
  96.2992096  24.3954635  20.2372122  96.4635372  23.4992790  19.9438202
  96.1901093  24.3209076  21.1852479  46.0596848  32.0463920  31.5952873
  45.6373739  31.4698315  32.2320461  46.1830950  31.4979815  30.8205295
 103.2996655   0.2816543  50.9594297 103.1786919  -0.4897029  50.4057121
 102.4505997   0.4080185  51.3829422  56.7391006  92.5734646  25.9440279
  56.8846694  93.4364630  25.5563760  56.0778896  92.7229065  26.6198277
  90.9609509  30.1621318  11.5010703  91.2764454  30.7189322  10.7892621
  90.5862427  29.3994403  11.0604703  83.2101631  40.9495163  17.6159751
  83.2772064  41.9042206  17.6324344  82.3062897  40.7774019  17.3521209
  94.0991974  10.7900059  16.8651462  93.8736439  11.4574611  16.2171793
  94.1508770  11.2676895  17.6930237  83.9984703   3.3883929   7.1551269
  84.1144848   2.9327828   7.9889083  83.7684822   4.2842424   7.4016893
  92.4463749  48.2306480  26.1508799  91.8697453  47.4932146  25.9510732
  92.1226692  48.9437771  25.6005263  13.8064941  56.2023735  19.4422448
  14.6760638  56.3864803  19.0870190  13.9208873  56.2483025  20.3914738
  63.1639910  11.6317391  11.7853069  63.0898190  11.1584318  10.9566271
  63.7159348  11.0725021  12.3319757  13.4638103  95.6142371  84.0587827
  12.9608043  95.5103009  84.8665064  14.3689521  95.4388660  84.3160540
  60.9956598   6.0314935  29.6468163  60.5552387   6.1625105  28.8071156
  61.1630249   6.9167358  29.9701834  35.8990232 100.6043698   6.0586154
  35.4403011 100.4771333   5.2281833  36.6333620  99.9914242   6.0229605
  93.0311298  77.9793208  70.5891710  93.0431318  77.7630704  71.5215462
  93.6196089  77.3401373  70.1874608  15.2541812  59.5505667  11.2665904
  15.2363189  59.4272518  12.2156465  15.2185233  60.4996777  11.1476719
  55.7081842  40.3762865   8.2075202  56.4060926  39.9499655   7.7101260
  54.9770689  40.4347610   7.5924730  97.9843521  26.3787413  13.7951040
  98.2154083  25.9618115  12.9650331  98.6201096  27.0876956  13.8921702
  60.7688427  33.7007713  23.8616824  61.0409355  32.7919960  23.9894366
  61.0176706  33.9006853  22.9592681  92.2600174  15.5115497  26.1266780
  91.3154697  15.3732777  26.0564375  92.6448250  14.6771097  25.8586001
  71.8904591  16.1411405  17.2230828  72.4949551  16.0060751  17.9528570
  71.3456392  16.8790340  17.4967933  88.7082863  23.8089132  36.0291553
  88.1643391  24.2895484  35.4051852  88.4517670  22.8937840  35.9152913
  28.9292979  16.9199061  45.4849720  29.2139721  16.1405432  45.9622383
  29.7209930  17.2371602  45.0504589  77.3053360  18.4158230  22.5468087
  76.4017916  18.6650097  22.3525405  77.2283792  17.5921810  23.0283928
  90.5443954  31.2787366  34.4688964  90.6454849  30.3322387  34.3681121
  91.3317299  31.5551019  34.9378991  76.5983534  31.1366916  20.6287098
  77.4201584  30.6487226  20.6811881  76.2529039  30.9313083  19.7599673
  66.6651583  53.9992571  36.6777515  66.1327219  54.7856760  36.7972732
  66.8465185  53.9733124  35.7382464  83.4574795  23.7309361  12.4842286
  83.7163448  24.2455816  13.2486629  82.5039673  23.6737514  12.5457072
  20.4102023  21.5954328  24.3435550  20.6228431  21.0869622  25.1261592
  20.8999522  21.1688781  23.6403966   2.5043185  34.4418669  20.1873231
   2.9091533  33.8884974  19.5194018   3.1790431  34.5386600  20.8593392
  81.8915749  35.9475875  25.7286382  81.4596367  35.1300550  25.4810476
  81.5668869  36.5904999  25.0981855  73.0138540  59.3518496  42.2317457
  72.4747419  58.8978291  41.5840912  73.7788296  59.6502209  41.7397976
  36.2304679  93.3858723  43.7776089  36.9976608  93.5632492  44.3218374
  35.6892053  94.1706485  43.8635826  94.5889759  49.0516424  13.7135661
  93.9490700  48.4358358  14.0706825  94.0734959  49.6391344  13.1609726
  81.6443777  64.8736661  65.7198518  81.6156816  65.4027157  66.5170425
  82.5333309  64.5192927  65.6994456 105.5929089   2.5818354  34.3200064
 104.7029686   2.4228470  34.6345806 106.0598278   1.7657876  34.4996929
  70.1196051  33.0060387  27.2342014  69.8383951  32.0946884  27.3153877
  70.9172916  32.9644752  26.7067504  58.3737135  44.7432041  20.6887364
  58.0051470  44.1013956  21.2957549  59.1273212  44.2995453  20.2995372
  84.5890617  22.5096917  19.2000425  83.6491585  22.5529218  19.3759608
  84.9579334  23.2469583  19.6864593 103.9479542  23.9733410  30.6039691
 104.7081375  23.5617542  31.0149908 104.0706730  24.9101710  30.7573271
  38.1355715  74.7266769  20.3176355  37.6232815  74.1105938  20.8413124
  38.9321947  74.2457247  20.0933337  63.0221272  32.2311163  32.8126335
  62.3767662  31.7824340  33.3589172  63.8633728  32.0330501  33.2240987
  54.2677871  27.5242601  66.0298937  55.1746551  27.3091017  65.8118909
  53.8548843  27.7050673  65.1854676  63.0954170  44.5582342  11.9422913
  63.0482960  43.6222887  12.1372736  62.2781324  44.7483826  11.4817250
  77.9154634  14.2266321  21.0707378  77.0900536  14.3972349  21.5244222
  78.5903168  14.5201242  21.6828346  57.9448032  34.6111298  35.4940009
  57.1279192  34.6107793  34.9950671  57.7453089  34.1033101  36.2804818
  92.5381279  34.0205669  31.9723201  92.2951698  34.2322779  32.8736424
  92.2789860  34.7911668  31.4670968  91.2135029  34.6900702  41.4997864
  90.4306316  34.1399503  41.5265894  90.9174156  35.5087876  41.1019611
  57.6330455  80.9390586  74.9822062  57.9299148  81.3033598  75.8161038
  56.8674167  81.4646404  74.7502368  60.2801228  19.8121417  45.9819746
  60.6023645  18.9161587  45.8839655  60.9654331  20.2602625  46.4777231
  13.4560664  20.4804707  49.8711967  13.7381061  19.5745301  49.7448730
  12.9537852  20.4635620  50.6858492  78.5379362  41.1898470   5.8900517
  78.9299536  40.8033276   5.1070082  78.9089251  40.6883860   6.6160917
  82.9807281  45.4205084  21.2200952  82.0321465  45.4784632  21.1057520
  83.2513332  46.3136625  21.4328980  61.2356615  48.0904865  16.5405345
  60.2966833  48.2489443  16.6377378  61.4525461  47.4909210  17.2544765
  72.5492144  12.7930784  49.4393253  72.8681469  12.7769625  50.3416872
  73.3093119  12.5468469  48.9122105  60.9135866  34.3106794  11.2615681
  60.2574396  33.6353087  11.4335692  61.6234636  33.8472700  10.8170962
  63.9905310   4.8761684   3.0777869  63.0435276   4.9775758   2.9822120
  64.1264343   4.7721511   4.0195629  46.4208873  89.9458712  72.0713466
  46.2508281  89.7033899  72.9815727  47.2727092  90.3818720  72.0947772
  98.6859369  89.3259400  55.5429858  99.2828035  89.0228885  56.2271946
  98.8998651  90.2522510  55.4315752 101.6128349  40.8787394  33.2557702
 101.9195175  40.0425148  33.6063480 101.5316772  40.7282925  32.3139572
  25.8528224  98.5716296  71.8252611  26.2568370  98.7325833  70.9725618
  24.9116889  98.5889301  71.6514778  94.6596527  69.8315542  78.9199656
  94.9519586  69.0228480  78.4995132  93.9313841  69.5610791  79.4791645
  44.6292575  95.9756129  71.6896170  45.0111278  96.0739606  72.5618165
  44.7778590  95.0570148  71.4652806  83.6005688  10.4364085  24.2936587
  83.9713764  10.6176722  23.4300208  83.1435776   9.6020323  24.1877842
  85.3914452  57.0625782  44.0716076  85.7674980  56.1933994  44.2106724
  86.0894966  57.5602341  43.6458158  98.4545898  27.1425748  24.8936343
  98.2077408  26.2619877  25.1762414  98.4144592  27.1074557  23.9379215
  97.3665619  25.2172518   4.5852932  98.3130264  25.1533699   4.7131842
  97.0590115  25.7366800   5.3281534  95.5175018  20.7160378  32.6890349
  95.5361176  20.6302381  31.7358708  95.9260464  21.5643811  32.8611755
  67.8461440  78.2687896  84.6531543  68.7569984  78.1927746  84.9374062
  67.8992827  78.6587995  83.7806290  99.3233490  24.5081329  36.9239926
  99.0575695  24.6873593  36.0220647  99.8172379  23.6899686  36.8700624
  70.6917095  26.6730499   2.4836104  70.5847788  25.7356167   2.6449180
  70.0085926  27.0863819   3.0115682  13.7183364  31.9068027  53.0135536
  13.5181030  32.1006083  52.0978165  12.8764327  31.6587448  53.3955050
  83.9823341  28.6585546  24.7659564  83.2183743  28.5670161  25.3353596
  83.9802074  29.5805287  24.5086789  93.4166431  20.9866285  68.0321026
  93.9966679  21.6872358  68.3303404  92.7389240  20.9336019  68.7059879
  63.4547997   4.5248643  28.8631916  62.9744625   3.7369576  28.6088109
  62.7749300   5.1814318  29.0146017  99.1767979  28.4898353  36.8497658
 100.0739288  28.4167695  36.5241170  98.9265251  29.3943262  36.6613746
  34.5158601  35.5848598  26.8585181  34.9810481  35.3810334  26.0471702
  34.7712708  36.4847565  27.0614529  79.3984509  13.5220206  33.4568310
  79.3479919  12.8487659  34.1353703  79.6798372  13.0509746  32.6725054
  85.9918022  39.7376132  54.9389839  86.8767166  40.0828314  54.8207951
  86.1075592  38.7880039  54.9717760  53.2412521  10.2595697  83.0809504
  52.3474494   9.9209677  83.1328237  53.5250465  10.0511728  82.1908575
 105.0713539  28.3789945  29.7782135 104.9513435  27.7245545  30.4663539
 105.8017731  28.0466771  29.2564034  55.6708908  56.6618156  14.9109077
  56.0243559  55.8160210  14.6353590  54.7710609  56.6631651  14.5845056
 105.2005196  37.2789788  20.0854349 104.3467236  37.1757555  19.6652019
 105.4519463  38.1833553  19.8980248  90.4022503  33.8002133   4.5260203
  90.5873299  32.8808641   4.3342453  89.8990440  33.7784910   5.3399855
  73.4911060  15.8454967  52.1299124  73.0857897  16.1824203  51.3308954
  72.9646158  16.2140095  52.8393030  87.3108387  38.8326883  21.9004202
  87.2651386  37.9691172  22.3107719  87.8076649  39.3665051  22.5204515
  66.2902641  17.8577209   2.8871217  65.5120802  17.9732716   3.4323829
  66.5304232  18.7453556   2.6212984   7.1452220  35.9881759  45.7808304
   6.2031921  35.8387423  45.7003260   7.2566302  36.9204283  45.5944872
  86.5193081  74.1136360  12.7036262  86.0510635  73.2830763  12.7881694
  87.0036697  74.2001772  13.5246837  89.8628418  99.1178826  25.7417274
  89.2361347  99.6977732  26.1743951  90.2056591  98.5676075  26.4459324
  93.2326794  41.7224169  23.0351710  92.9687691  42.6423311  23.0167055
  94.1865444  41.7453098  22.9587960  60.5811262  44.6012115  23.0551100
  60.1416349  45.0038385  22.3061323  60.2417946  43.7065077  23.0793571
  80.9624958  11.0583615  45.8927488  80.4062843  10.3657973  45.5360746
  80.5429840  11.3012373  46.7181301  64.9244547  68.7041950   5.3107959
  64.5076752  67.8935051   5.6028742  65.6549358  68.4145308   4.7642377
  45.4535285  43.8452564  82.0840603  45.7671062  42.9985176  82.4017602
  44.6021072  43.9591538  82.5063711  42.5549316  42.2784042  31.8746543
  42.3905611  43.1211615  31.4516020  43.3304405  42.4289513  32.4151683
  10.8373721  45.6242657  46.9970083  10.9990676  46.5608740  46.8836498
  11.7007335  45.2522278  47.1770954  83.3205605  30.6932425  28.3344984
  82.7056980  30.9799361  29.0097618  83.0420971  29.8030758  28.1193566
  46.8621588  47.6176453  21.8911815  46.9178247  47.9644537  22.7816081
  46.9398975  46.6696167  21.9980931  62.1642876   2.4663855  28.2088208
  62.2357798   1.5815273  28.5667968  62.4787045   2.3865582  27.3082662
  82.7750301  30.8140564  23.5254216  81.8609142  31.0972834  23.5053205
  83.2299805  31.5069270  24.0041518  90.7520962  42.0496035  17.6591432
  91.6418362  42.1980572  17.9793894  90.3184986  42.8975868  17.7548063
  64.8482132  51.4051771  24.7062016  64.9191427  52.1093273  24.0617085
  64.1229677  50.8651733  24.3921232  84.8585224  34.1829109  28.3350277
  84.7269726  33.3540726  27.8746438  84.6111298  33.9957881  29.2405748
  72.6518345  16.1265814  49.6339226  72.3537350  16.8547475  49.0888166
  73.5690165  16.0039043  49.3890524  39.3679229  86.1166126  29.2685437
  39.9516574  85.4797310  28.8563895  39.9094144  86.5430541  29.9327493
  78.3410788  28.4110379  40.7403088  78.5750055  28.2632685  39.8239684
  78.9669943  29.0683436  41.0442924  66.6787100  24.5201540  36.8153501
  66.4232254  25.2610230  36.2657404  66.5629435  23.7539363  36.2534428
   4.5197948   8.9269578  20.2716756   5.2079471   8.6787778  19.6543503
   4.8611434   9.7062993  20.7102442   3.5149081  19.2796612   6.5478247
   3.0953677  20.0873852   6.2515187   3.1027206  19.0909922   7.3908734
  80.9839058   6.6937023  69.6083832  80.7976151   6.0175377  68.9569759
  80.3231716   6.5601081  70.2879572  90.0851814  94.8174036  37.8661036
  90.5238430  95.6663901  37.8110266  90.5442039  94.2689241  37.2299433
  78.2723331  27.9420018  38.0760550  77.3625946  27.7736187  37.8305769
  78.3661270  28.8923383  38.0105186  65.2576542  20.6901121   9.1019046
  65.5517673  21.3158989   9.7638094  65.4930687  19.8342443   9.4601023
  78.3959007  33.9665866  29.0724111  78.9125967  33.5459805  29.7596860
  79.0280581  34.4986820  28.5892105   5.4171451  11.2001216   8.5112160
   6.0916026  11.0379100   7.8516543   5.5229552  10.4881001   9.1421354
  56.6205263  29.5923471  11.5529215  55.8632612  29.4579196  10.9830856
  56.7331934  30.5424666  11.5813828  98.2568550  34.0498376  21.9900465
  97.4731350  34.4345069  22.3825359  98.9813232  34.5591068  22.3534036
  66.9260645  42.5364494  -0.3219580  67.6255703  42.9477882   0.1857021
  66.3290930  42.1814108   0.3366829  93.0166817  39.4866538   9.0932655
  92.4576473  40.2108908   8.8118452  93.8282013  39.6046686   8.5995686
  63.1880665  22.8610802  42.3414278  63.2437515  22.4714041  43.2139397
  63.2342625  22.1156096  41.7427826  85.8940029  42.8104067   6.4553791
  85.1754093  43.4418058   6.4209074  86.3302326  42.8975058   5.6078255
   9.3553241  14.8996282  33.4776044   9.2563232  15.8107185  33.7539148
   8.6616214  14.4316661  33.9423823 106.7421818  21.8028951  15.5206549
 106.1989212  21.5741801  14.7664714 107.5434017  22.1613193  15.1388061
   8.8259109  77.2966736  73.2870239   8.8311656  78.0812638  72.7387339
   7.9014190  77.0580643  73.3548659  77.5886440  43.7829542   6.3611412
  78.1274462  43.0028152   6.2295973  77.3321056  44.0485573   5.4780346
  78.4814215  25.8945298  42.0015621  78.3678532  26.7434764  41.5742159
  79.1249514  25.4378366  41.4597750  57.7803659   8.1449902  33.0633616
  58.6604738   7.9392117  33.3784747  57.2006512   7.6102000  33.6057258
  35.6382457 101.1246474  49.7281170  36.0141794 101.5788626  50.4821682
  34.8569337 101.6319360  49.5080280  92.5145912  50.3367805   5.7005566
  93.3875656  50.3204679   6.0928404  92.6637650  50.1390982   4.7759479
  68.0749083  42.1748781  18.9302993  68.3112907  41.2597275  19.0814781
  68.9108324  42.6412010  18.9296174  10.3403362  30.3616428  17.8236198
   9.6961196  31.0083389  18.1117094  11.1005958  30.5144882  18.3847690
  30.2539905  82.3635548  65.8647245  29.5225604  82.2566503  65.2566045
  30.0468524  83.1618803  66.3505238  81.8326187  52.9623413   2.3902957
  81.3142109  53.1374168   1.6049054  81.2524033  53.1915617   3.1162733
  96.3244629  15.5490434   7.0351964  96.2711239  14.6410322   6.7370325
  95.6150055  15.6340659   7.6721132  66.1507122  13.1015478  77.9473573
  65.9876911  14.0447365  77.9543847  66.6544811  12.9396044  78.7449908
  73.4260654  12.9075122  33.7328458  73.4020472  11.9710028  33.5363626
  74.3584681  13.1213307  33.7665725  27.8980048  84.1638272  77.1763414
  28.5342963  84.8738020  77.2618085  27.1649535  84.5550912  76.7011875
  99.5856667  60.0053883  22.8062820  99.5605659  59.4463444  22.0297027
  99.6011829  59.3930340  23.5418200  68.8584328  25.6334043  19.2043018
  69.6750593  25.2544904  19.5295382  69.1349506  26.3875866  18.6837482
 107.8092575  38.7304044  14.6968627 107.0694160  38.2331872  14.3480968
 107.6415920  39.6324182  14.4239306  54.9072981  38.6943913  22.4530363
  55.2095604  38.6710596  23.3609605  53.9716768  38.4996343  22.5070024
  17.4551566  58.0405951   5.4153436  16.8292316  57.4285078   5.0283039
  18.2933887  57.8119421   5.0137025  12.7404578  30.7758260  19.0099585
  13.2942279  30.1390123  19.4616652  13.2405170  31.0177565  18.2304442
  64.6304893  21.0365510  22.1682930  64.8804665  21.6804624  21.5056324
  63.9444971  21.4696360  22.6763153  89.7995750  91.4004619  28.9647651
  88.8721839  91.1833877  28.8696218  90.2581398  90.5834264  28.7687850
  24.1115745  52.1415663  12.2391701  24.1807349  51.3681793  11.6794217
  24.3828948  52.8682184  11.6782796  20.3961452  43.5012484  44.1592455
  21.3277229  43.7207413  44.1739368  19.9530872  44.3230581  44.3703318
  45.9160900  17.1356285  26.1708188  45.7856369  16.9852042  25.2345562
  46.1950445  16.2864220  26.5132570  75.5767488  15.6449258  17.2259831
  74.6993446  15.8612156  17.5416100  76.1615801  15.9371197  17.9251432
  59.2249576   6.7125641  87.7972797  59.1545860   7.2021280  86.9777608
  59.6542160   7.3179613  88.4018186  81.9471169  36.6486168  28.4690809
  81.0277557  36.7403650  28.2188797  82.3491096  36.1811852  27.7368665
  48.7822525   1.2411963  77.9588216  48.2681934   0.8758579  77.2387475
  48.6618129   2.1877514  77.8829425  65.9819603  14.4684124  46.6271925
  66.3897610  14.3894482  47.4895668  66.7008305  14.7111130  46.0436249
  90.2162647  61.3551807  21.3146687  90.5678177  61.9572926  21.9704938
  89.2663479  61.4292383  21.4063001 107.1566868  24.5507169  19.2612743
 106.4646626  23.9228654  19.0535963 107.3502350  24.9784565  18.4271216
  62.1324682  37.6313877   8.3702850  61.9783306  38.0283833   9.2275304
  62.7284288  36.9035125   8.5470849   8.7043937  24.5815659  43.9492798
   8.7987979  24.1012001  43.1267452   9.2973598  25.3276944  43.8603210
   1.3645633  24.3112969  34.6606255   0.7133468  24.7210503  34.0912008
   1.1795123  24.6660805  35.5301738  11.5430816  36.3823342  21.1648512
  11.3850673  35.4979277  20.8345628  11.2079795  36.9581175  20.4775310
  92.1266174  46.6140175   2.2461566  91.9375515  45.8688641   1.6758637
  92.3422813  46.2200356   3.0914396  91.3442039  43.6652565   8.0825251
  92.1983337  43.7446976   7.6578110  91.2246132  42.7235746   8.2056850
  89.5967007  44.3296909  12.0891595  89.7068787  43.3815193  12.1602809
  88.8367844  44.5243216  12.6376796  93.6477757  47.6658535   9.6262181
  94.1105652  48.4898853   9.7779953  94.1550446  47.2287273   8.9422393
  60.8948374  50.6786442  12.6336277  61.2040710  51.5311956  12.3274207
  61.1413670  50.6523752  13.5581625  18.6904319  82.9994076  67.7996343
  18.4431155  83.2826417  66.9193810  18.6479171  82.0437973  67.7645486
  50.7373333  55.5519533   5.6735504  51.5545845  55.6409645   5.1832306
  50.0866365  55.3134871   5.0132769   1.2631877  46.8964100  34.6864200
   1.3403400  47.6956081  34.1652989   2.1409400  46.5149021  34.6712232
  58.2264987   1.2349926  77.9711848  58.7836544   1.3676058  77.2042292
  58.5483448   0.4234062  78.3635825 100.2292347  47.2021914  19.7948670
  99.3986130  47.2478628  19.3213701 100.7083130  47.9817724  19.5138454
  94.7182274  25.4973269  36.0498047  94.0521336  25.6485677  35.3792286
  95.3197384  26.2365913  35.9609246  15.6040080  96.7017882  85.7079649
  14.9118884  97.2306293  86.1048655  15.7522853  97.1044820  84.8523450
  10.7894786  84.9094098  62.0017594   9.9654086  85.3763860  62.1398371
  11.3737662  85.5631178  61.6176980  78.9128971  23.0305600   6.5799963
  79.0121698  22.7280045   5.6773132  79.4011688  23.8532424   6.6119295
  77.8865814  54.2479372  -0.0078960  77.7064896  55.0931406   0.4037224
  78.7931728  54.3157387  -0.3074430   5.6001933  53.3983326  33.8365030
   6.4356406  53.5734892  34.2696238   5.0082668  54.0686464  34.1778708
  92.4247360  55.6255341  28.4409380  92.1916580  56.4219856  28.9179826
  92.7383041  55.0246191  29.1168118  77.0825672  23.9301014  12.8023612
  76.6875362  23.8652825  11.9328904  77.9933453  24.1718507  12.6342177
   2.1257623  51.7627359  83.1755480   2.7694257  51.2598897  83.6746198
   2.5203403  52.6296570  83.0807513   3.2894683  16.1813437  81.5039789
   2.8040576  15.9693657  80.7066840   3.3180403  17.1379839  81.5197903
  69.2271852  10.0556040  44.5935297  70.1433897  10.2277637  44.3763542
  68.7537146  10.8149016  44.2536449  20.9111396  99.7048920  49.2592430
  20.3065816  98.9999963  49.0271568  20.4329340 100.2286104  49.9021006
 104.5627880  53.8585615  14.1045153 104.3857193  54.1003704  13.1954467
 103.7271690  53.9865160  14.5535111 106.9200706  83.8150709  70.8589560
 107.3225164  84.4133061  70.2293664 106.0553169  84.1897743  71.0263747
  59.3570606  12.4395453  74.7322672  59.5444290  12.4662338  73.7939650
  59.7495166  13.2413088  75.0777799  55.2619441  80.7473987  77.2060901
  54.9425586  81.1142271  78.0305081  56.0012134  81.3059681  76.9658607
  13.5309203  83.1642723  18.8793433  13.4084209  82.8325748  19.7688377
  12.6499923  83.1772995  18.5051394  45.1953308   1.9938885  67.2008317
  44.9544803   1.8310247  68.1128090  46.1269371   1.7784630  67.1570009
  20.7268890  39.3967938  28.9249015  20.4669746  39.7881484  29.7588801
  20.3810771  38.5049605  28.9607334  80.4419223  10.5967604  82.5809544
  81.0563842  11.3151775  82.4307966  80.4155532  10.1260792  81.7478913
  97.4498749  51.6320467  32.8854752  96.9542885  51.9967175  33.6187196
  97.8151512  52.3962593  32.4396205  99.4648075  98.9375591  11.2110615
  99.2197990  98.2507706  10.5909574  98.6306000  99.2675018  11.5449512
  10.0916846  58.2940912  35.4843068   9.6623882  59.0330887  35.0532365
   9.5111926  57.5509071  35.3201842  27.9228576  41.3158369   4.1506851
  28.7578662  41.4791536   3.7121478  28.1392940  41.3090658   5.0830692
  15.1940139  84.6222466  79.4190448  15.8304294  85.3370493  79.4028204
  14.7622092  84.6666020  78.5659289  73.4200287   7.4687612  32.1243620
  73.1082296   6.6029072  31.8610930  73.9958954   7.7431631  31.4106989
  21.6672595  45.2518463  36.8076062  21.5325721  45.8320284  36.0582852
  22.4359687  44.7320080  36.5728927   3.1889041  19.9483502   2.8371221
   3.0860694  19.0527427   2.5153381   4.1147884  20.1477909   2.6986167
  98.8676643  54.3268681  28.0094481  99.4164085  55.0083542  28.3976364
  98.0421829  54.7686100  27.8102660  92.3811245  28.3901596   7.5265825
  91.7090321  27.7351117   7.3383373  92.8983307  28.0060410   8.2345235
 103.6844539  83.5365122  78.5215693 102.9772329  84.0257543  78.9419502
 104.3763113  83.5004800  79.1820723   3.2481464  68.8329220  27.2486091
   2.6092323  68.3021402  27.7243090   3.7115462  68.2076406  26.6913700
  27.7435390   1.0898863  78.7760251  27.0401613   0.5193983  78.4661269
  27.8658620   1.7244898  78.0699473   9.2431911  35.1937056   3.6228415
   9.7866805  35.7686591   3.0840644   8.3780559  35.6031847   3.6126381
 107.0763683  12.6493716  12.9315269 106.6122532  13.2500744  12.3484445
 106.9970417  11.7948711  12.5075364  70.9655428  68.0968332  30.2935886
  70.6918526  68.5551739  31.0880971  70.1920605  68.1118584  29.7299147
  78.3574486  15.8551383  18.4815335  77.9889631  15.6808889  19.3476093
  78.5104990  14.9874902  18.1073761  22.9899772  84.4423168  88.0035637
  23.6580070  83.8383930  88.3279853  22.1720584  83.9485138  88.0618562
  71.9649220  27.6292825  30.8311248  71.9041634  28.0523014  29.9746227
  72.1815681  26.7181253  30.6334138  86.9159317  60.1197147  18.1285203
  87.7083969  59.5830488  18.1136966  86.6691208  60.1569319  19.0526032
   2.1458800  33.4224534  26.2806034   2.8556617  33.3032250  26.9116521
   2.5792201  33.4083462  25.4272294  91.6220093  71.7132330  39.0267777
  91.9980431  72.5181913  38.6705709  92.1857166  71.4933014  39.7684622
   6.9223865  59.5989943  38.4167600   6.6821750  59.7723866  39.3269610
   6.7995055  60.4379749  37.9726315  25.7794841  94.0239471  71.9186491
  26.7171367  94.0609925  72.1075099  25.7164462  94.2083781  70.9815031
  52.5889961  14.1994272  73.7294620  52.4086467  14.8200880  74.4354993
  53.1561843  14.6804033  73.1268090  87.2818851  37.1349120  15.3101885
  87.5141907  36.3959551  15.8725131  87.9648018  37.7851105  15.4747880
  86.0158149  38.0476032  82.0344960  85.3490535  37.3877083  82.2247404
  86.7105953  37.8763043  82.6702398 106.4425564  35.0196743  15.2924252
 106.8014050  34.2214370  15.6800795 106.6604519  34.9533391  14.3627191
  90.0888538  52.1342039  25.7096791  90.8006477  52.7520037  25.8767200
  89.5147228  52.5908422  25.0947905  34.0736524   4.7351013  72.8568262
  34.9979965   4.9708973  72.7779633  33.6706058   5.4876219  73.2898444
   0.5404170  32.8077745   7.4713224   1.0472758  32.1914792   8.0000079
  -0.0150697  32.2530818   6.9236124  26.4901431  83.9351004  79.5818644
  27.0553287  83.8356441  78.8157654  27.0273383  83.6374539  80.3160727
  99.2936707  41.8048573  27.6320767  98.6246967  42.4838114  27.7199697
 100.0764465  42.2755194  27.3457599  73.7699080  23.0590940  12.4872065
  73.8435364  23.5784197  13.2879019  74.3224287  23.5165143  11.8533933
 107.0370674  44.1129780  46.6057825 106.8201923  45.0452662  46.6116953
 107.9727840  44.0834713  46.8052626  37.6339992  86.7780107  85.1429876
  37.2411902  85.9178489  85.2914938  38.3965667  86.7961448  85.7212628
  85.5753899  22.5076270   8.6887270  85.2302074  23.3384871   9.0154457
  84.9780369  22.2612023   7.9825604 101.0256863  56.1017990  18.7805581
 100.3960609  55.4376507  18.5000050 101.0218430  56.7486763  18.0750346
  86.0500526  52.0904541   3.8176087  86.2868595  51.4882612   4.5229572
  86.4421844  51.7066813   3.0332759 104.3755245  42.9974031  47.9824162
 104.3903351  42.4747133  48.7841702 105.2797699  43.2909822  47.8711605
   1.4465602  79.8564339  29.4768643   1.4241489  79.5278025  28.5781264
   1.4414485  80.8090782  29.3837380  56.3675833  28.7314081  18.6866462
  56.8280172  28.4187937  19.4654298  55.4763556  28.3962369  18.7846351
  21.4412769  63.3893538  21.7598724  22.2152503  63.1358480  21.2569618
  20.7365878  62.8479815  21.4041209  17.1528991  68.5787058  24.1611743
  16.8580707  67.6832342  24.3268061  16.8215163  68.7820482  23.2864904
  98.6002159  41.7065477  32.2352600  98.1634331  40.9647942  31.8166208
  99.4520569  41.7586517  31.8018055  94.9238873  32.3682833  18.7115109
  94.3343925  31.9051528  18.1163394  95.1727390  31.7111969  19.3615425
  79.5868635  38.0398583  21.0469627  80.3139591  38.3062434  20.4842901
  78.8187313  38.4610629  20.6612277 101.2492657  20.3066134  28.4650159
 101.5942287  21.1167240  28.8404608 100.7347775  19.9154639  29.1710877
 103.0729103  41.3673162   6.7088413 103.4552288  40.5396843   6.4171368
 103.5847378  42.0393944   6.2587619 106.0883427  32.4081206  10.3189003
 105.4561806  32.0313692  10.9309912 106.6104031  31.6618991  10.0242209
  96.1151409  29.6017981   7.5767863  96.1595917  30.5445719   7.7362669
  95.5008602  29.5108080   6.8483543 103.1453991  57.5941229  19.4810641
 103.3238506  58.2199860  18.7791538 102.4911880  57.0006704  19.1122055
  86.0719395  59.0088320  70.4265308  86.1816692  58.5282803  69.6060085
  86.9327545  58.9707088  70.8433914  14.8634799  17.2696400  43.4392309
  14.6769603  17.1304893  42.5107479  15.8157809  17.3564804  43.4818363
  91.5747261  44.5846605   0.6934166  91.0892010  43.7919664   0.9217265
  92.3553467  44.2653704   0.2407338  91.7087936  82.7940941  29.1724634
  92.1572399  81.9493389  29.1334939  91.4970875  82.9951572  28.2608771
  63.3021259  80.6295013  12.7911210  64.0254354  80.4407883  13.3889937
  63.3213377  79.9119091  12.1579301  66.8889236  50.9558010  22.2556305
  67.3143101  50.3890800  21.6121221  67.0179129  50.5078602  23.0916572
  71.0055399  47.0664930  23.9969349  71.7451000  46.4936209  23.7941885
  71.4088297  47.8870773  24.2801785  96.2168407  62.6372242   5.5338264
  96.2703896  62.3332930   4.6277407  97.1192646  62.6041222   5.8512849
  70.1457310  77.9385471  45.3793049  69.5824289  77.3585463  44.8669434
  70.9994745  77.5057077  45.3781176  30.9474603  96.7741246  38.7493491
  31.2059013  96.9971154  37.8550792  31.7744915  96.6238768  39.2072582
  92.9055214  74.7368526  17.4021089  92.9221058  73.8131237  17.1517432
  93.3043957  75.1930380  16.6611469 107.4731731  38.9124393  18.7023318
 108.3584499  39.2277336  18.5203838 107.5635815  37.9608822  18.7533033
 101.4649773  55.2835417   1.4081351 101.9956493  55.9855270   1.0315306
 100.7031059  55.7306576   1.7767459  53.2040493  14.7966848  61.9800681
  52.3114769  15.1330219  62.0601791  53.2708351  14.1295515  62.6632279
  13.9057811  76.0225773  33.4862065  14.1098102  76.2797546  32.5870585
  13.6128123  75.1141119  33.4148598  99.5172501  44.1469908  33.1848073
  98.7786388  43.5955000  32.9268503 100.2466011  43.8369846  32.6479816
  69.0496874   5.2452362  28.7925577  68.8514757   4.4669974  28.2717037
  68.5640526   5.1180613  29.6075511   1.3344653  38.7923837  12.3067069
   1.0474570  38.3952284  11.4844346   0.5257018  38.9374971  12.7977133
  24.4768794  60.8921862  40.4650164  24.9939616  60.2339983  40.9293938
  25.1249965  61.4228821  40.0018311  65.8291388  27.5405264  23.3918405
  66.4930010  28.1999826  23.1902575  65.2941132  27.4893594  22.5997782
  91.5129375  72.5727701  42.7866983  91.6357040  73.3749247  43.2943439
  92.3561764  72.1231365  42.8416443  61.1704588  59.7866154  24.1750216
  60.5930758  60.2574968  24.7759652  60.6183195  59.0999126  23.8011122
  79.8910379  57.2554684  29.0110731  80.5289173  57.8796101  29.3571663
  80.2168179  57.0397282  28.1372595  98.7717533  68.5703230  32.8234410
  98.0268192  68.4319067  32.2385025  99.5400906  68.4484386  32.2657347
  13.5828670  66.0573673  24.6829581  13.1172355  65.6794548  23.9369011
  13.3334430  65.5065060  25.4249620  29.9382194  94.6665471  84.0505007
  30.4530890  94.1549247  83.4265002  29.6047481  95.4034179  83.5385903
 100.8553314  50.2764559  27.4299455 101.1405563  50.9067345  26.7684102
 100.4909420  50.8149338  28.1324363 102.4968529  70.2531052  11.2305677
 103.1565189  70.9148645  11.4382863 102.1526718  69.9825668  12.0817912
   9.9263557  48.8891840  25.5339909  10.3789695  48.2900095  26.1275911
   9.1694339  49.1950989  26.0337067   0.5252631  16.3189065  14.1532707
  -0.2862279  15.9073472  14.4504869   1.1191066  15.5863893  13.9889610
  93.6495686  75.3649426  14.5604110  94.4719887  75.5206156  14.0960646
  93.0560398  75.0271654  13.8896859  89.0590382  50.5966759  58.0554008
  89.1954136  50.3058434  57.1537113  88.7646580  51.5037107  57.9725790
  98.9959049  46.6841269   1.1857851  99.8544312  46.2687302   1.1045105
  98.3921719  45.9578180   1.3413857 103.2581806  14.7569799   7.2750902
 103.4493065  14.3483949   6.4308405 103.0981731  15.6770623   7.0651364
  87.1293068  14.7545362  23.8427258  87.6234436  15.2101624  23.1612086
  87.6656723  14.8473668  24.6300793  64.8818207  75.6715393  27.5894523
  64.6757889  75.5761147  26.6595697  65.4953909  74.9601603  27.7730513
  80.8376026  87.8303528  20.6258655  80.1916027  87.1240711  20.6170082
  81.4537525  87.5827408  21.3152719  95.1307201  22.0699430  18.8734698
  94.8290825  21.4213228  19.5095026  95.7573318  21.5959120  18.3267677
  30.3014072  21.3892388  22.2068357  29.5268329  21.8579578  21.8960762
  30.5973895  21.8922448  22.9655266  82.8911495  70.6480074  35.2868366
  82.9811287  71.3898897  34.6887183  82.7717400  69.8910427  34.7132683
  56.1727667  31.7404556  34.7836447  56.7836142  31.1465454  34.3473411
  56.0679340  31.3737106  35.6615615  72.2705269  69.3474436   9.5945334
  72.9560232  68.6976242   9.4394237  71.8083906  69.0277767  10.3694391
 102.3783684  38.5927844   4.0302691 101.7242622  38.5821986   4.7290224
 103.1330395  38.1358910   4.4017005  88.1870651  84.5844173  25.5623436
  88.5394573  84.8169804  24.7032976  87.5918865  85.3019810  25.7793379
  54.1494370  69.7422075  11.3316476  53.7383318  70.5777597  11.1101162
  54.8390102  69.9722195  11.9544005  37.9493697  32.9482770   5.6974512
  38.6269553  33.1169677   6.3521600  37.1254619  33.0935049   6.1625582
 102.2115230  51.2503757  72.5488466 102.4087381  51.9151784  71.8890160
 101.7222118  51.7206458  73.2238668 103.1598091  43.6054564  37.6311755
 103.0752659  44.0262127  38.4867740 104.0210629  43.8777351  37.3144221
  92.2737789  46.2046385  37.2467470  93.0925179  46.6570616  37.0437455
  92.5223827  45.5329275  37.8817511 100.0666618  51.1397552  51.5164423
 100.7311630  50.5275011  51.8323851  99.9136829  50.8794451  50.6081104
  60.6328392   6.4954692  33.5218310  60.0156832   5.7638067  33.5170841
  60.8461475   6.6228878  34.4462204  35.7253535  88.6242455  85.5719945
  35.0226195  88.1357473  86.0006633  36.4097388  87.9731839  85.4171899
  13.2376273  73.7291574   8.0575264  13.2736953  72.9795933   7.4633169
  13.9472659  73.5748339   8.6810905  77.3873711  59.9933720  25.1578045
  77.0505381  59.2143679  24.7151637  77.4840307  59.7264481  26.0719395
  83.0458546  59.6639729   9.5621920  82.3667145  60.3373909   9.6010000
  82.8937340  59.2181396   8.7289310   3.9054473  97.3463576  70.1752871
   4.8437961  97.4085611  69.9967926   3.8429053  97.3449557  71.1304408
  21.5735324  46.9607347  44.9739521  22.0005305  46.4514595  45.6628245
  22.0243152  47.8050592  44.9859303  78.8270378  51.6672564  29.2474890
  78.7955141  51.5398169  28.2993340  79.7250795  51.4413357  29.4897938
  94.2961311  81.4926910  31.3933349  93.9712524  80.7254124  30.9221816
  93.6593819  82.1804428  31.1989713 107.5561237  69.4050026  21.0505319
 108.1449890  68.6832428  20.8302331 106.9726276  69.4771385  20.2951741
  72.3105478  88.6432552   5.4825294  72.9372215  87.9579353   5.7145911
  72.7199364  89.1041946   4.7502929  73.3464479  37.2453690  19.3582106
  72.9331112  37.6372480  20.1275063  73.5339308  37.9871750  18.7830532
   0.5681594  37.0520186   5.6807882   0.0794585  37.6400876   5.1049614
   1.4059241  37.4938726   5.8191717  17.8206523  81.8109267  85.7784468
  17.1524985  82.4126428  86.1066772  17.8611835  81.1163324  86.4358104
  98.3903122  74.0002823  15.6584764  98.2602978  73.5888195  16.5128934
  99.1099453  73.5085249  15.2628398  75.1221895  18.1556499  42.8896999
  75.3829241  17.6681280  42.1083117  75.2207756  19.0750706  42.6423597
 104.6170425  38.0740237  10.4039800 104.1742039  38.2880735   9.5828164
 103.9535713  38.2185268  11.0786343  69.4688320   2.0082299  33.8868999
  69.9584818   1.5079924  33.2340312  69.6618128   1.5722010  34.7168827
  92.0398712  56.8247986  11.6931283  91.8444157  56.7821693  12.6291895
  91.5748692  57.6032782  11.3865650  87.4853039  46.6070843   8.6011952
  87.8284073  47.1948767   7.9281324  88.2641983  46.2198114   9.0006632
  40.2896197  92.8499454  77.8885811  39.3705924  93.0096858  77.6738661
  40.2654632  92.1438306  78.5343802  22.9602130 101.0043519  85.7237020
  22.2394164 101.1176532  86.3432520  23.7145408 101.4020484  86.1585265
  12.4676974  25.9133959  28.7972403  11.5840705  26.2778783  28.8480163
  13.0431636  26.6782451  28.8062882  79.2116213  83.2230663  65.5133104
  79.2357540  82.9257965  66.4228630  78.3252382  83.5649872  65.3965187
 104.3313217  48.5275602  33.6529136 103.7568665  48.8134861  32.9426503
 104.8756695  49.2916203  33.8430119   7.7845939  61.1027336  60.1706600
   8.3825191  60.6395197  60.7572985   7.4131759  61.8010235  60.7097960
 107.2107697  54.2087984  36.8765855 106.7906189  53.3586645  36.7462683
 106.9882870  54.7088099  36.0912681  83.2115459  48.4228706  15.8605421
  83.5915852  49.2049789  15.4604053  82.4953175  48.1780100  15.2746320
 103.3814613   9.4423472  76.2987417 103.1243602   8.6828981  76.8215912
 102.8081123  10.1466023  76.6012627  80.6011772  26.3844633  17.1157610
  80.3708076  27.1931601  16.6584063  80.3365803  26.5384936  18.0226743
   0.3345092  14.8535657   7.1123719   0.9387096  14.3616092   7.6683879
   0.1410945  14.2610168   6.3859355  33.7605079  83.2087153  85.3081912
  33.5072215  83.7321752  86.0684994  32.9713519  83.1741303  84.7675705
  30.1026710  76.1886406  23.6000824  30.8674510  75.7629156  23.2126474
  30.1421054  77.0897102  23.2795429  61.6487018  27.3433910  79.1466260
  61.4572422  28.2771908  79.2337614  62.2769157  27.1614634  79.8455399
  66.6501514  89.6251292  14.2314851  65.9789840  88.9483220  14.3192720
  67.0153705  89.7158546  15.1116085  63.3409492   1.3837610  86.7008906
  63.6964027   1.9616495  86.0256660  63.5616485   1.8155562  87.5261611
  85.6411640  94.8845036  35.8823705  84.8266117  95.3674138  36.0221195
  85.4119483  94.2072982  35.2459097  26.3939651  33.8621283   5.1880085
  25.5149253  33.4925342   5.1048386  26.4511092  34.5054865   4.4815695
  94.3514633  68.9134836  19.0388858  94.9006557  69.6752262  19.2242694
  94.8812962  68.3731699  18.4527326  41.0884555  73.1823819  60.0011366
  40.6115993  73.3179491  59.1823190  40.9925635  74.0091675  60.4738539
  83.5471249  16.8746173  37.1827722  83.6688519  16.4248431  38.0189037
  82.5974846  16.9398785  37.0819426  15.3611263  42.1743202  34.2107868
  14.4923099  42.5220442  34.4119620  15.3164275  41.9395590  33.2838988
  77.6329327  21.8597198  14.9632967  77.5342178  22.6031113  14.3684387
  77.2768211  21.1155748  14.4778395  64.2315054  63.5313416   0.7300264
  64.4283581  63.1837797  -0.1398481  64.9890089  63.2880402   1.2622169
  14.3811973  99.1496747  70.4321402  13.9986499  98.9021772  71.2739449
  13.8278277  99.8650306  70.1186460  98.4048557  51.6805315  58.6021852
  98.2703114  51.7336702  59.5483923  98.4430790  52.5925493  58.3141088
  72.8874969  74.5545816  13.3873367  73.5667849  73.9279032  13.6364830
  73.2665205  75.4105949  13.5868847   4.1074832  67.1184254  19.1531098
   3.9146980  66.3837624  18.5705817   4.7877486  66.7871094  19.7393751
   0.3095229  20.4666162  22.7460313   0.4757293  19.6911478  23.2819963
  -0.6358163  20.4560685  22.5961733  99.2199993  47.6510668  50.8197069
  98.5218620  47.0168495  50.6565762  99.2191410  47.7691650  51.7695951
 105.3904247  22.6618886  39.9979019 104.6378613  22.0802903  39.8901176
 105.2665901  23.3394933  39.3332601  29.9960692  87.7018064  71.9463056
  29.0396770  87.6709407  71.9704371  30.2647384  86.7834848  71.9191700
  85.1296139  48.9197016  65.2382898  85.5293941  49.7420311  65.5214500
  85.8268547  48.2703400  65.3300571  79.3780033   3.7720047  64.6466797
  78.7366382   3.0722796  64.5231122  80.1741878   3.3204256  64.9266761
  89.2855263  28.2360840  28.3542752  89.2537212  27.5023246  27.7404213
  88.8270760  27.9178166  29.1319394  87.5706005  25.3119946  34.2333484
  87.7389336  26.2430000  34.3786931  86.7875385  25.2932167  33.6831760
  13.3472522  16.9279599   1.1029094  13.3556445  17.7397299   1.6100492
  13.8381179  16.3053834   1.6392641  64.3992758   1.1555217  33.8128948
  64.4011736   0.2807331  33.4243417  64.9342108   1.0683261  34.6018624
   3.6687453  77.5680631  70.3825897   3.2675107  77.7608603  69.5351976
   2.9291947  77.4869412  70.9848517   6.7941745  52.1032143  27.0076203
   5.8739169  52.3134851  26.8490148   6.8306812  51.1473036  26.9739890
  97.8928375  65.5686045  10.3478336  97.1792316  66.1451387  10.6209874
  97.8663731  65.5914021   9.3912709   7.7229961  96.0764694  33.0316806
   7.1483977  95.3995228  33.3891892   8.3847030  95.5925179  32.5375485
   2.7128585  64.7163534  14.5445323   3.1574138  65.5074072  14.2398369
   2.5528987  64.2097425  13.7482977   3.7778362  52.4258375  21.6271973
   4.1307243  51.5772772  21.3595510   4.1957553  52.6040888  22.4696898
  13.8145049  35.5802846  22.5619435  14.2145427  34.9051189  22.0138955
  13.2758506  36.0911560  21.9577169  80.7676697  89.4237328  36.4565158
  80.4427814  89.0867615  37.2914600  81.5385151  88.8891411  36.2661290
  17.3911937  33.6712384   6.2309986  16.6703494  33.2256889   5.7859075
  16.9621070  34.2963028   6.8153018 101.7884350  37.6955247  47.4631548
 101.8446350  38.3816934  46.7981386 101.3697433  38.1209373  48.2114553
 108.0444813  32.7443147  36.0261846 107.1134186  32.5233984  36.0026193
 108.4110928  32.1656585  36.6947484   9.2455753  76.0867834  19.2389727
   8.7316497  76.0628080  18.4317946   8.7996848  76.7319727  19.7877359
  91.0681820  45.7058382  23.6139488  90.4939079  46.2958002  23.1257057
  90.7119560  45.7057428  24.5023942  48.4292213   7.2616612  71.5448242
  48.2211772   6.4925419  71.0143500  48.9636699   6.9205748  72.2619432
  34.7517665  64.7106504  23.9329529  35.5646308  64.3807459  24.3159008
  34.3473705  63.9420414  23.5305476  15.3575023  38.4234381  22.9001427
  15.6490596  39.0982485  22.2870731  14.4780906  38.1920910  22.6012254
   4.4625648  53.1387615  57.3677111   5.0917228  53.0490398  56.6519260
   3.7807639  52.4969149  57.1691751  60.9923641  14.3947493  76.2078422
  60.5837528  14.7198664  77.0100695  61.4573471  13.6034380  76.4795917
  89.0708351  56.5906000  19.9660754  89.3870068  57.2105885  19.3089056
  89.8628998  56.2868977  20.4094982  36.5689166  85.1742499  81.4995032
  36.7183002  86.1094683  81.6383737  36.5774997  84.7971075  82.3792308
  88.7259483  65.2466822  31.6900063  87.9582119  64.7037649  31.5109968
  89.0405369  65.5093098  30.8249688 107.6481819  95.6485748   7.2520894
 107.0697117  95.9035206   7.9708439 108.0914783  94.8616409   7.5690234
  95.0116245  19.7605406  65.7065099  94.4332401  20.2727877  66.2715882
  95.0703994  18.9066349  66.1350172  73.5930681  62.1777248  29.9376011
  72.9510355  61.9255781  29.2739391  73.3335066  63.0613708  30.1984286
  78.3775330  54.4392633   6.6859376  78.2848787  55.3563786   6.9439071
  77.5420094  54.2210245   6.2730104   9.3472942  34.6248460  10.1834679
   9.1547378  34.3095040   9.3004543   8.5272105  35.0184941  10.4813528
  86.7481422  30.9094858  36.2040830  87.0738220  30.4868674  36.9987869
  86.1296272  31.5684199  36.5194893  10.1393016  48.2463360  20.8512974
   9.5729716  48.8006592  21.3881683  10.5607589  47.6572657  21.4770722
  46.4075557   8.9909594  31.6646886  47.2139446   9.2178576  32.1278167
  45.9847442   8.3400004  32.2247839 101.9455338  31.6135144  37.6342583
 101.9953537  30.9949899  38.3630776 101.6377068  32.4279642  38.0319309
  71.0932342  22.6654993  57.6781147  70.2165309  22.6408182  58.0615252
  70.9616558  23.0296885  56.8027371  42.6525060   1.3889872  74.0234571
  43.1667415   0.7748114  73.4994489  42.9919616   2.2512089  73.7835067
  16.9801219  55.1181459  39.6652579  17.1234878  55.1360607  40.6114912
  16.0408767  54.9611664  39.5682549 105.8527088 101.5297794  32.7859211
 104.9149895 101.3456726  32.7310491 106.2450027 100.6979084  33.0511284
  93.3158493  59.6836519  42.1464777  92.9859734  59.4376183  43.0107021
  92.8732395  59.0873718  41.5425062  23.9609607  71.3026619  32.5931334
  23.8221915  70.4135418  32.2668839  24.3712028  71.1822367  33.4495401
  90.7643127  60.4192924  37.9232931  90.0683308  59.7646475  37.9805207
  90.3461647  61.2375021  38.1914711   3.2208999  88.7944317   0.4404218
   2.6338561  89.1873455  -0.2055166   2.6374229  88.4543228   1.1187376
  17.4351295  43.8140297  26.4389181  17.2799953  43.5274315  25.5389023
  18.0176147  43.1485844  26.8051505  78.0109787  54.8859835  15.3823352
  78.5219431  55.6409359  15.6742191  78.6659193  54.2204857  15.1716423
  91.2228385   7.5797926  85.4266348  90.8774272   7.9297672  86.2478764
  90.4626361   7.5353275  84.8466792  88.8840580  58.7418222   9.4899529
  89.4647694  58.9233828  10.2288949  88.0685997  59.1922712   9.7098655
   3.2092269  52.2513771   8.1044596   2.7594264  52.6030302   8.8727367
   3.7991508  52.9534721   7.8300703 102.9923916  44.7395468  28.8787770
 103.4883976  44.9981499  28.1020284 103.1280136  45.4558849  29.4990206
  91.5856457  89.4019318  29.6621466  91.1809158  88.5447979  29.7953415
  92.5261688  89.2241859  29.6549654  66.5742580  18.8458239  63.9002365
  67.4753944  18.9774309  63.6055106  66.5970127  18.0162560  64.3772381
 101.4264488  66.7958546  -0.0267186 102.3013020  67.0437860   0.2722669
 101.4900589  65.8567905  -0.2009243  70.4971457  40.9231806   6.8037468
  69.8718119  41.4037657   6.2613165  69.9519682  40.3996181   7.3910266
  64.7014602  80.5434602  73.1421083  64.1711314  79.9425858  73.6654883
  64.0920814  81.2327259  72.8779107  46.7963489  93.5434287  69.9919027
  47.2168525  94.1236251  70.6265491  45.9991916  93.2462018  70.4305690
  21.2217315  98.5535615  80.7063430  21.9867595  98.0221646  80.9267628
  20.6703647  98.5153812  81.4878612  76.5143442  57.2231579  23.8581753
  76.5277672  57.1965027  22.9014397  77.2424078  56.6613197  24.1236734
   6.0057624  40.2185345  39.3673706   5.0992759  40.3820467  39.1070342
   6.2025626  39.3497467  39.0170789  81.4643288  51.0994482  -0.0147481
  82.2453594  50.5461454  -0.0229318  80.8625031  50.6554413   0.5826591
  89.9658108 102.0322704   8.6297953  90.1154232 101.8497181   7.7021533
  90.5374050 101.4177322   9.0900683  69.1065581  91.4606469  77.3086637
  68.2885440  91.5507548  76.8198162  69.6641048  92.1631234  76.9741553
  97.7979565  36.0915041   5.8896077  97.6098537  36.0777354   6.8280411
  97.9655838  35.1761365   5.6654769  94.0438080  52.6435709  19.3410516
  93.8999653  51.8514109  19.8587596  93.1933212  52.8264284  18.9417100
 106.6695213  41.3606071  13.8272905 105.7857609  41.3100672  14.1914809
 106.5893078  41.9614697  13.0865073  35.0440200  95.9466165  77.1611935
  35.8855804  95.8679431  77.6104480  35.2710422  96.2280601  76.2749177
  83.4356499  56.4223957  16.1088371  83.9392471  55.9365749  16.7619824
  83.0980968  57.1821690  16.5832210  77.8729391  71.3125896  70.5658007
  76.9680548  71.1162758  70.8084440  77.8287506  71.5345716  69.6357489
  18.4814914  73.9909935  10.0035906  19.4083961  74.2286921   9.9795896
  18.4297832  73.2941914  10.6578279  79.0850115  57.2306633  14.6348548
  78.9301729  58.1745672  14.5988250  79.5434380  57.0318127  13.8184369
   9.6833308  40.5874777  42.5016308   9.1837009  39.7819042  42.6345015
   9.1646751  41.0901451  41.8734980  33.3262237  97.6226371  78.5617661
  33.6044581  98.4869187  78.8648033  34.1163047  97.2350495  78.1852323
   2.8421577  77.8957081  30.8251715   3.5847362  78.4989691  30.7956481
   2.1493133  78.3448267  30.3409338  60.0708477  14.3300472  82.6997262
  60.1894466  13.7688242  81.9334382  60.9280292  14.7336660  82.8359693
  10.0099071  81.2038517  45.2724743   9.5840057  82.0555401  45.3697348
   9.8258861  80.7488060  46.0942459  96.5404892  75.4705858  18.0052698
  96.8598461  75.7774162  17.1566820  96.7368031  74.5337486  18.0105817
  84.3710709  60.9094429  26.5493965  83.5513592  60.5431604  26.8812823
  84.8853588  61.0960865  27.3348260   9.6213134 101.4926910  78.4637213
   9.2287524 102.3071194  78.7781000  10.3209575 101.3067055  79.0899372
  88.8146782  35.5987597   9.6082485  89.0849209  36.3197470   9.0395844
  87.8629208  35.6829286   9.6658307  27.5533859  11.9901412  25.3658295
  28.1854145  11.9466823  26.0833836  26.8844120  12.6021617  25.6726336
  96.9422245  68.9653397  29.9135542  97.7023411  69.3718338  30.3297448
  96.5696049  68.4029102  30.5925655   1.0059627  39.9397635  21.5397382
   0.9253295  39.9754119  20.5866075   0.5267509  39.1502619  21.7912841
  17.7578664  92.5178432  64.5381784  18.1376851  91.6417694  64.6049881
  17.1938288  92.5936890  65.3078127  79.4504659   3.3856434  32.7627993
  79.4135205   2.4304485  32.7131009  79.1947691   3.5887319  33.6625814
  62.2815864   5.0577409  31.9966203  62.3983048   5.0294692  31.0469801
  61.7619900   5.8467347  32.1506864  15.5043840  47.3714638  68.3551836
  14.9351597  47.4039793  69.1240501  16.1092591  46.6517878  68.5352516
  75.9262292  21.8402457  86.4591122  75.5228535  22.5857353  86.0144043
  76.8396465  22.0993900  86.5805435   8.2985324  39.5889044  73.6594868
   8.0784899  38.9602017  74.3469048   8.6613679  40.3399754  74.1290379
 101.3717715  24.2314631  13.9978296 101.9608776  24.1105611  13.2531339
 101.2176530  25.1756102  14.0304834  70.8073062  23.8087518   2.4604112
  71.6530499  24.1778380   2.7148229  70.8318649  22.9082496   2.7840215
  80.8314030  39.9621493  16.2895757  79.9499146  40.2848250  16.1022455
  80.9445362  39.2176539  15.6986791  90.1603345  36.7758393  75.9333563
  90.0248091  36.5769362  76.8598032  91.0435776  37.1426535  75.8938503
  46.1713982  91.8281364  67.8257847  46.1083603  92.3923683  68.5964346
  47.0989370  91.8473244  67.5901175  88.2743780  61.3007689  59.8276663
  88.6577038  60.7293987  60.4931211  88.3485750  62.1810484  60.1962328
  99.9235712  68.3709192  56.4469576 100.7514743  68.8492250  56.4920425
  99.5827977  68.3971739  57.3410606  70.6255229  49.1591269  14.5342237
  71.5111658  48.9172847  14.8051054  70.0540520  48.7197024  15.1639539
  23.5978818  42.5779486  71.1890936  23.0030799  43.2031822  70.7749367
  24.1301703  42.2404480  70.4686785  25.9776425  70.2041531  54.6751404
  25.8088088  70.7551384  55.4394341  25.3782320  70.5333996  54.0054083
  79.0064756  57.6457119  73.4592533  79.5405356  58.4392452  73.4955454
  79.4637791  57.0231771  74.0245485 100.9341465  89.3827820  82.9422760
 100.3906731  89.7582817  83.6350060 101.6606627  88.9671040  83.4066296
  28.8842463  87.4754810  46.5901709  27.9590774  87.6057434  46.3820219
  28.8995528  87.3375702  47.5372601  97.4472467   1.2174661  12.5787241
  97.7353971   1.7566974  13.3152277  96.5373985   1.0006291  12.7821714
 101.3665531  80.3877163  81.2854671 102.1289096  80.3361130  80.7089424
 101.3232259  81.3084793  81.5434265 102.1656470  88.7203789  53.7260866
 102.3712287  87.8985786  54.1717434 102.1198241  89.3688774  54.4286394
 107.0931845  99.6442699  58.5534382 106.7542376 100.0081253  59.3713331
 107.9708358  99.3331909  58.7752342  87.6609294  16.8579156   1.9876462
  88.5377674  16.4783294   2.0450861  87.8003113  17.7993543   2.0901090
 107.0807713  57.5795650  75.6795263 107.0991691  57.2458172  74.7825813
 106.5440185  58.3705521  75.6297922   1.6596341  48.4331996  18.3022291
   0.9991098  48.2358653  17.6381570   2.3861623  47.8437240  18.0999834
  22.5774193  59.4037533  86.1991119  23.1605315  59.3032837  85.4467010
  22.7139926  58.6095810  86.7156982   7.5094754  35.1613784  28.5391092
   7.6311815  34.3082905  28.9558363   7.9757023  35.7743287  29.1075778
  74.3489252  76.5193564  23.5292894  74.0755698  75.6369883  23.2784063
  75.1703690  76.3899142  24.0033227  95.4216639  81.6775703  69.9097538
  95.3127221  81.1075783  69.1485214  94.6478442  82.2408962  69.8998690
  38.5416126  97.6830387  80.9224224  37.8829312  97.5614643  81.6062355
  39.3725204  97.7279186  81.3955116   3.9257953  85.2598953  44.0443277
   3.5837334  85.6678677  43.2488489   4.2635605  85.9906960  44.5620918
  54.8060282  75.3826035   8.0550462  54.0367981  75.7004608   7.5823099
  54.4708582  74.6816029   8.6140520  82.4830310  61.7997360  77.9534292
  81.6090552  62.1243429  78.1702995  82.3636548  61.3194418  77.1341038
  79.6059923  22.5172908  42.0359499  80.1977132  21.8232352  41.7454511
  79.9007217  23.2963139  41.5642625  87.8965859  49.9520213  10.0724966
  87.1439151  50.3141887  10.5399972  88.3230464  49.3807608  10.7112676
  58.9820127  25.5278212   4.5400793  59.3409578  26.1673028   5.1552660
  59.4789235  25.6660993   3.7337381  83.5821621  57.4733257  66.9790030
  83.7516920  58.3874416  67.2067785  82.6535622  57.4523735  66.7477083
  80.8683197  79.2109013  79.9269772  81.4922635  79.5912933  79.3087292
  80.5123488  79.9624681  80.4009628  92.4564092  36.0189731  30.0509435
  92.6436011  35.3108794  29.4346696  92.7530853  36.8111140  29.6029264
  75.6805651  27.7728009  37.1700597  74.9757044  27.9089499  36.5369201
  75.2759139  27.9463816  38.0199766   6.1563045  79.1011763  58.8234425
   7.0621985  79.3117666  59.0498066   5.9220123  78.3853817  59.4141912
  11.4611423  73.4072113  72.2951365  10.6720746  73.6344194  71.8032169
  12.1330762  73.2812119  71.6251659 101.1630730  87.2848129  59.9988079
 100.7933674  86.8772221  60.7820177 102.0969443  87.0787907  60.0396967
   9.3031567  87.8017235  85.5814934   8.5682178  88.2590294  85.9901047
  10.0066769  88.4504318  85.5597687  96.5808789  71.7586899  75.7417250
  97.3357503  71.6171551  76.3130140  95.9070854  72.1170139  76.3195133
  34.9215984  49.6093702  41.8622541  35.2493143  50.3308058  42.3992491
  33.9726973  49.7341824  41.8467379  19.3805492  57.2967386  61.5968895
  20.1024675  56.6831684  61.4605188  19.6761918  57.8591156  62.3128223
  24.1517520  63.2552004  64.1419077  24.9590302  62.8422260  63.8353443
  23.4959173  63.0139112  63.4877682 101.6426502  60.4245329  42.3639488
 102.2428207  59.6803427  42.3169231 102.2124384  61.1847353  42.4808502
  92.9580657  28.7409789  12.4812967  92.7574746  28.1459863  11.7588121
  92.2021286  29.3264300  12.5263578  27.5652599  70.0456190  76.4292383
  26.9851756  69.3318892  76.6944122  27.0303702  70.8344698  76.5177917
  90.1439409  71.2637520  56.9605827  89.7477536  71.9408560  57.5090361
  90.1906936  70.4936266  57.5271130  95.0522236  87.5633430  70.8451509
  94.7753279  86.9332027  71.5103436  94.2454080  88.0088425  70.5866671
  93.5502736  61.2503249  20.7490140  94.4755976  61.2610442  20.5042821
  93.5554163  61.1489016  21.7008096  97.4022154  91.0551357  62.5981903
  97.1535603  91.7127514  63.2477617  97.5226609  91.5516186  61.7887259
   3.3266240  76.1856270  56.7797565   4.1029036  75.6540060  56.6036797
   3.2870972  76.2429571  57.7344227  83.6802475  43.9132316  10.7705957
  83.6776273  43.1542880  10.1873094  82.7549521  44.0817363  10.9485513
  66.1004852  44.5400149  19.7551805  66.4450358  43.6508948  19.6716291
  66.1291925  44.7206885  20.6947404  84.0204136  16.8456370   6.5911085
  84.3931810  17.6533419   6.2377054  83.0767099  17.0048768   6.6083604
  98.0813090  86.4904308  71.5286446  98.5981552  86.8679047  70.8168745
  97.3382239  87.0857525  71.6268730   6.7026782  75.4009533  73.6046362
   6.2242490  74.5749474  73.5335875   6.9179219  75.4738569  74.5344639
   1.5922779  86.2396812  78.1809616   1.4367947  85.6718826  77.4262047
   2.5163525  86.4800358  78.1135321  76.1655740   4.2121274  16.0025102
  76.2725417   4.6792466  15.1739008  77.0587061   4.0059525  16.2782556
  36.7368436  64.3962908  50.4030609  36.3681245  63.9905691  49.6184158
  36.3027358  65.2475500  50.4590750  16.4992559  48.0679655  81.9038200
  16.3189948  48.7968874  81.3101864  17.3820996  47.7813482  81.6700077
  12.5308967  73.7822437  36.1162496  12.0526564  72.9818106  36.3326406
  13.4533489  73.5363197  36.1857915  37.9819822  92.5841331  85.4101849
  38.8737559  92.8886223  85.2420902  37.7011418  93.0787373  86.1800766
  57.5445823  22.2697455  23.4162122  56.7314915  21.7666489  23.3713800
  57.3338799  23.1034476  22.9957754  26.1245990  52.4036217  44.6991777
  25.9800768  52.6716995  45.6066370  25.4964137  52.9197836  44.1940117
   9.8554111  68.6961842  60.1041079   9.6719086  69.1215849  59.2664957
  10.1717377  67.8247261  59.8659229   6.8607920  68.5391951  63.4070730
   6.5295470  69.2833614  62.9043531   6.2841713  67.8133392  63.1685829
  57.3814599  66.1564398  71.7570639  57.0036809  66.6090584  71.0029745
  57.6656739  65.3104782  71.4109421  75.6740401  17.1652133  10.2624971
  76.3343714  16.6010291   9.8601324  76.0780085  18.0328423  10.2786809
 102.3000840  75.1918888  69.3308353 102.2896812  76.0562706  69.7418880
 101.7653833  74.6460533  69.9073648   2.1255551  82.6470947  80.0014305
   1.4632559  82.3279762  80.6144142   1.6298796  82.8952789  79.2210817
 100.1014368  37.8949458  10.1528245  99.8956840  37.5228316  11.0103971
  99.7255842  38.7749297  10.1771528  41.5389117  96.5695919   0.6897813
  41.8897786  95.7653297   1.0722524  40.6100606  96.3839020   0.5519849
  66.0607622  18.0938298   9.6201402  66.7809336  17.6177842   9.2066652
  66.2540476  18.0542857  10.5567915  18.3214378  77.6916933  83.9943886
  19.1658545  77.4299002  84.3613529  17.6770341  77.3788166  84.6292782
 106.0710555  97.7341175  49.2889166 106.2624906  98.3731747  48.6024761
 106.7380946  97.0566082  49.1781807  10.5019021  95.5058098  59.4531441
  10.1910365  95.5626869  60.3566694  11.1056399  94.7630215  59.4538879
  47.8515863  87.0040321  51.4576769  47.9739571  87.6846981  52.1194506
  48.5568953  87.1527386  50.8278656  84.9526672  33.7390143   5.7531435
  84.1924934  33.4443766   6.2546999  85.1360230  33.0182654   5.1505357
  74.4348709  60.8914995  79.0506792  74.9639646  61.5267563  78.5682487
  75.0747601  60.3288031  79.4867373   4.2116612  94.1047287  64.6532726
   4.0457475  94.0201092  63.7143660   5.0286645  93.6268902  64.7961426
  52.3900986  96.7143250  65.7106209  51.6360807  97.3020363  65.6628466
  52.4592924  96.3415527  64.8317099   1.8160415  78.6369324  82.3371792
   2.3264185  78.7362051  81.5334988   1.5113185  77.7297544  82.3168659
  79.5646666  30.0921065  10.0720865  79.8123137  29.4602878   9.3970281
  78.6155592  30.1784045   9.9827463   9.4411856  66.9460821  53.0755758
   8.5290104  66.7975140  53.3247614   9.4159538  67.0484114  52.1241951
  23.4832573  78.7996244  86.1524105  23.9094710  79.6545649  86.2128353
  23.4462142  78.6162806  85.2136707  14.5294380  34.6880364  70.7695055
  13.8914096  33.9926124  70.6097078  15.3788173  34.2727876  70.6199932
 103.0709593  39.3144233   0.8926565 103.0514805  39.6901709   0.0125009
 103.3180921  38.3996589   0.7571394  72.1421441  83.7819828   0.6662256
  72.7259644  83.1604065   1.1009962  71.4176138  83.2454075   0.3447038
 107.1796545 100.7707214  63.7500572 106.9049807 101.6362667  63.4473801
 106.5496349 100.5452633  64.4345093  87.5677149  21.3618714  10.5661661
  86.7845945  21.6719682  10.1114160  87.2959153  20.5424744  10.9796316
  13.3165705  69.4379759  80.8315277  13.8325036  69.0619326  80.1183414
  12.4719763  68.9907551  80.7777977  26.3785484   3.3344596  50.0683498
  25.8264216   2.6174109  49.7565174  27.1803047   2.9062884  50.3685093
   7.0776582  58.1578255  73.0458784   7.7769715  58.6269665  72.5907993
   6.4942372  58.8469696  73.3635712  24.1490769  47.7107000  65.4716015
  24.6888661  46.9799566  65.7730484  23.9641857  47.5094318  64.5542479
  91.9344692  57.9160166  48.8440371  92.5357119  57.2165537  48.5881233
  91.9745485  58.5425854  48.1215143  97.8211681  93.8891029  80.1463604
  98.6791013  93.6004734  80.4576111  97.8791050  94.8444939  80.1360321
 107.2590848  67.0549726  68.9076948 108.0236436  67.5619364  68.6344385
 106.6289688  67.7122164  69.2030191  31.5246344  64.4571018  83.7794971
  32.1003103  63.9988947  84.3917656  31.7022514  65.3851414  83.9325714
 106.1408624  93.6119652  71.5742683 106.6987814  93.5941792  70.7966805
 106.6652481  94.0643883  72.2350025  62.0611356   6.9718892   6.3710004
  61.5071063   7.6519925   6.7540723  62.5302349   6.5970618   7.1164400
  15.2372766  47.5442839  84.5367432  15.0564206  46.6643667  84.2061901
  15.7692981  47.9521561  83.8535023  68.9136442  99.4575514  14.3968088
  69.5388707  99.6166672  13.6896974  68.1465896  99.0878071  13.9596063
  99.4063304  40.9356880  75.2537870  99.3032454  41.6411924  75.8924294
  98.5836957  40.4485035  75.3002119  29.0905013  90.7462443  22.8215391
  29.4756081  89.9390711  22.4803812  29.6480950  90.9830631  23.5626489
  21.9441009  55.5368471  81.2918758  22.1995473  54.9930906  80.5466843
  21.1058283  55.9195614  81.0329151  12.8163743  92.2342777  74.6132803
  12.6940739  91.9817162  73.6981344  13.5977459  91.7563534  74.8912716
  42.3258583  33.1134230  11.4069253  42.7402513  33.9294440  11.6872961
  41.8049495  32.8378398  12.1612054 101.2020652   5.2323348   5.3373796
 100.8288781   6.1069209   5.2275354 100.6152932   4.6580274   4.8453409
  83.9551060  43.7508869  67.0338535  84.2659704  44.6554279  67.0713520
  84.0487282  43.5033941  66.1139536  98.3427576  75.2227879  78.1631231
  98.9637963  74.9287891  78.8295364  97.8090946  74.4505692  77.9757500
   2.0506798  48.0329275  42.8746080   1.5839431  48.1772566  43.6977434
   1.6406703  47.2531605  42.5003242 107.4616472  19.8138148  17.7678472
 108.3970038  19.8574740  17.5692731 107.0549385  20.4081637  17.1373159
  77.4143569   8.0015571  28.6511213  78.1494014   7.4479777  28.9147359
  77.7992467   8.6417205  28.0525571   6.4553159  87.4914742  63.2168961
   5.5992240  87.0698738  63.2916546   6.2596858  88.4281445  63.1924009
   0.4270991  67.6476812  75.8284140  -0.3276353  67.7248764  76.4120626
   0.8442158  66.8248749  76.0838175  98.6312924  86.7742825  68.4987116
  98.6671929  86.1877918  67.7430868  99.4120107  86.5567780  69.0080309
  37.4283242  48.3225012  41.0385132  37.0916510  47.4269962  41.0076761
  36.6604733  48.8605547  41.2312126   3.4880623  63.4596300  62.2407055
   3.5869470  62.7814865  62.9089689   2.5766268  63.7415123  62.3185539
  62.7362236   2.2456878  66.9267273  63.6259111   2.5978988  66.9015455
  62.5601848   1.9750255  66.0256243  15.9253538  61.9146538  39.0961981
  15.8174896  62.6782560  39.6632147  15.6138456  61.1789465  39.6233892
  45.3825855  65.9867239  64.3793440  45.5750751  65.0772285  64.1513157
  44.5515823  65.9442902  64.8524904  72.3863585  35.4199130  14.9299318
  72.2907325  34.6326739  14.3938810  72.4745222  35.0912196  15.8245927
  40.6290166  20.9344251  22.7570516  41.2229793  20.2184445  22.5316412
  39.7561900  20.5902392  22.5674707  46.7055174   7.5500815  88.2051468
  46.5895113   7.8998034  87.3217010  47.2935685   6.8033641  88.0918407
  86.0811464  54.5266349   0.4213029  85.3625755  54.3651015   1.0326940
  86.6388385  53.7523944   0.4972250 104.7435595  96.3337421  70.2479601
 105.2225853  95.5495453  70.5158997 105.4197882  96.9280720  69.9228001
  21.9667244  89.7877312  64.1835165  22.7545619  89.3606281  64.5198631
  22.2381425  90.6892776  64.0109587   4.8529452  82.8769970  85.2492905
   5.3870046  82.7658844  84.4627380   5.4798269  82.8396416  85.9716892
  89.4369082  10.2542741  16.1696130  88.7684743  10.0580890  15.5131513
  88.9595334  10.2739818  16.9990427  28.3583164  91.0638332  65.9081507
  28.8494420  91.5494823  66.5708494  28.8621998  91.1811352  65.1028109
  93.9173679  79.6196365  77.7296114  94.8070351  79.2664862  77.7320766
  93.3708433  78.8899708  77.4378443  29.2250872  99.3818474  37.8417802
  29.0997696  99.9566746  38.5968351  29.2985749  98.5047817  38.2180548
  10.8708608  97.3518658  73.9987469  11.2657988  96.4863682  73.8930988
  10.6615651  97.6300907  73.1071043  73.0082731   5.6089360  12.9335386
  73.6985686   5.3696067  13.5519582  73.2846863   6.4551551  12.5817663
  97.0418565  73.8950253  73.8301516  97.5770513  74.6734715  73.9844847
  97.1640162  73.3609200  74.6150303  38.8075670  10.4557078  85.7515049
  38.2889571  10.8194774  86.4690971  38.4233666  10.8359950  84.9615669
  -0.0460827  85.7890224  69.1909933   0.8377742  85.6363583  68.8567448
  -0.0784686  86.7303944  69.3612909   8.3461148  73.7530851  80.6420994
   8.5795170  74.3520069  81.3513565   9.0106267  73.9066744  79.9704885
   7.8703707  95.6463909  80.3035069   8.0385149  95.8094883  81.2316036
   8.4457290  94.9145317  80.0808620 103.3936976  68.8632059  39.2631221
 103.5524211  69.6822500  38.7938595 103.9687748  68.2276773  38.8369513
  84.6909134  78.0908775  57.5346613  83.9601938  78.4974241  57.0688248
  85.1033489  78.8124037  58.0095530  45.9651764  87.8767170   6.4040357
  45.6739213  86.9654836   6.4364988  45.1597323  88.3817853   6.2926847
  47.7376842  91.1219025  59.2558813  48.0653620  91.3138580  60.1345205
  46.9851398  90.5484200  59.4008923  39.9795090   1.7978614  83.7433720
  39.7985720   1.0881465  84.3596458  40.6298991   2.3413318  84.1881847
 106.7725888  80.8599949  65.6565475 106.0329868  80.6626606  66.2312460
 107.0250471  81.7534828  65.8893204 101.5542327  58.4143209  49.6081114
 101.2093930  57.6491308  49.1478968 100.9477274  59.1207886  49.3861008
  49.3343560   6.4792258   6.5486414  48.9271299   5.6846244   6.2036687
  48.6753075   6.8509967   7.1348745   6.7806673  41.5424824  35.8844709
   7.1819037  41.2260675  35.0750732   7.4031967  42.1848059  36.2252212
  94.3231527  24.8893601   8.2640344  93.4998457  24.9480159   7.7793104
  94.5229308  23.9534623   8.2844240   9.8956245  67.7095795  63.3737135
   9.1963744  67.8695345  62.7399158   9.5889992  68.1264877  64.1789484
  91.8546693  19.1693360   4.0871603  91.8681519  20.1161677   3.9473039
  92.6492660  18.9901454   4.5898992  30.0312662  95.6705856  67.0810795
  30.3181696  96.4830303  66.6641235  30.4453421  95.6850147  67.9439592
  79.2409996  30.4236037  21.0386640  79.8616575  29.8458678  21.4827711
  79.6849666  31.2709243  21.0042459  39.9299121  95.1938248  29.1872668
  39.3983769  95.7948303  29.7092795  39.2949510  94.6048450  28.7796330
  85.7196387   5.9275382  51.7647028  85.7077368   6.6625350  51.1516190
  86.2227686   5.2486651  51.3150167  13.8126421  90.7643127  88.2534122
  14.0324259  89.8855782  87.9439735  14.4609869  91.3334179  87.8386784
  48.4907770 100.9699821  42.9422235  48.6030531 101.0224724  41.9930840
  49.3828726 100.9335041  43.2872820  19.1969967  23.8688809  25.5949670
  19.6028185  23.1559140  25.1017934  18.4736777  24.1620499  25.0408060
  78.0840008  14.4487578  25.4501993  77.5694327  14.1609246  26.2042600
  78.8536690  13.8797004  25.4541666  38.5289216  37.4435711  44.3797350
  38.3867049  36.4985442  44.3256140  37.6539946  37.8226399  44.2958212
  26.5455008  96.1039829  75.3700495  26.8869877  96.2778473  74.4929028
  26.4180613  96.9715977  75.7537794   1.1817908  40.1688964   1.5193349
   2.0678163  39.9890525   1.2049371   0.6761813  40.3412444   0.7250482
 103.7500186  72.8198147  29.2038441 103.7476472  71.8983173  28.9448762
 103.0780498  73.2244968  28.6552787  25.7344294  64.5830345  60.9457874
  25.1365423  64.9935198  61.5705013  26.3587594  65.2734423  60.7226706
 100.3210664  97.0418562  17.4593812 100.0839734  97.7079309  18.1046468
  99.6414066  97.1057428  16.7884046  32.3443341  80.5682659  65.9072495
  32.3137999  79.9247217  65.1993322  31.5073586  81.0289574  65.8483982
  23.3775496  78.2070112  43.3748102  23.1170583  77.9547453  42.4889565
  24.1460443  77.6676607  43.5612202  23.3834028  80.4779053  62.6320410
  23.1833172  80.2141094  61.7339277  22.8598285  79.8900795  63.1766129
  79.6202038  42.9343707  17.4636728  80.2299277  43.1910903  18.1554491
  80.1395385  42.9722030  16.6604978  26.0171127  56.5664339  76.2819481
  25.8165526  55.8207035  75.7163525  26.1327624  56.1832809  77.1514606
  81.2019561  55.2074057  20.1753885  81.2585465  55.9909255  20.7223112
  80.9068285  55.5304057  19.3240339  28.8663197  67.6309633  79.4614029
  29.5231915  66.9365311  79.4112587  29.3361259  68.4241104  79.2036581
  38.0835838  28.9085048  42.0733833  38.6347290  29.5478099  41.6219759
  37.8117097  28.2994788  41.3867998  65.1128475   9.4518096  26.8897325
  64.5297377  10.1341588  26.5571481  64.9152998   8.6849315  26.3520509
  37.4622798  81.7338276  78.9745760  38.4060168  81.8183422  79.1104078
  37.3417807  81.8757248  78.0356550  46.4818414   3.6144011  69.9912024
  47.1045753   3.0717795  70.4749441  45.7111438   3.0569213  69.8840857
  17.2596252  77.6604795  54.9678946  16.9137526  77.3905754  54.1171551
  17.8232360  76.9355679  55.2382231   5.3167021  74.2499971  67.1671152
   4.8307136  74.4013596  66.3564730   5.4797536  73.3068275  67.1760702
  38.3433520  -0.1145989  56.5812635  37.5825443   0.4324000  56.3858318
  38.3786499  -0.1430280  57.5373888   6.5223610  55.4702997  56.6995621
   7.4394351  55.7327414  56.7791176   6.4541489  54.6749735  57.2277975
  21.6163015  77.9276943  75.3688049  22.4200487  77.7495289  74.8804569
  20.9354997  77.9815722  74.6981049  56.3964669  17.4729926  22.2252828
  56.7971818  16.7218072  22.6627523  56.3261942  17.2068126  21.3085252
  63.3418070  54.2074305   7.2797567  63.7875955  54.8434932   6.7203599
  62.9197483  53.6045176   6.6677171  31.1227059  78.3081436  84.8304081
  30.5736566  78.8181448  84.2348671  32.0192242  78.5268164  84.5761013
 101.0149328  62.8182513   6.9450361 101.0327498  63.7744719   6.9844896
 101.8549864  62.5790030   6.5534956  76.7897813  26.2874944  18.3226949
  77.1740036  25.5907494  17.7905637  77.3830126  27.0301206  18.2095129
  21.2362909  93.5343742  85.7473946  21.8250990  93.6702919  85.0050545
  20.8850050  92.6536655  85.6163406  65.7772311   5.7494967  86.0406399
  66.1723240   6.4307540  86.5847206  65.9350785   4.9371856  86.5217495
  22.6041945  15.6270163  68.5752439  22.1924635  15.8570903  69.4081783
  22.9316135  16.4584868  68.2321835  78.3229403  19.9286229   3.0414754
  78.7091748  19.5037610   2.2756177  77.4528096  19.5373637   3.1190664
  89.0423958  39.1871173  25.9336549  89.0313630  39.5097644  25.0325471
  88.3799724  38.4963233  25.9488470  25.3453255  92.1858025  20.8459854
  24.6979642  92.7106476  20.3751397  25.2325439  91.3001823  20.5007696
  41.7983677  12.6734107  75.1881695  41.9415476  13.5810416  75.4563808
  42.5825282  12.4445575  74.6892166  27.0069697   5.5466407  62.2114229
  27.5053271   4.7944205  62.5308704  26.2027218   5.1678698  61.8565226
   9.0548670  81.2583542  77.2154570   9.6659571  80.7600498  77.7581263
   8.1992388  81.1060238  77.6166105  20.0553751 101.7069435  75.8050966
  19.3616700 102.3213768  76.0448408  19.6915722 101.2086296  75.0732708
  83.8919989  73.1295729  34.3163013  84.0451423  73.7093258  33.5702038
  84.4437043  73.4850693  35.0130630  91.0542159  51.4537150  32.0713693
  90.6265859  52.3092658  32.0340520  90.3520386  50.8271510  31.8964559
  12.9158318  54.3162012  65.2722883  13.6650693  54.5457363  64.7225714
  12.2521377  54.0070915  64.6556902  33.6658049  90.7216740  74.7462749
  34.6140933  90.7002068  74.8748064  33.3392596  89.9740505  75.2469397
  34.5907933   1.8106788  42.3922682  34.3038142   2.1590560  43.2363701
  35.4743574   1.4814036  42.5569582 105.7559795  93.2079124  75.0026846
 105.0175877  93.6730385  74.6094084 105.9574221  92.5088406  74.3806362
  54.3412857  31.9734771   7.8145677  53.5305314  31.6296203   7.4395067
  54.0597693  32.7056510   8.3631116  53.2236068  23.0256516   5.7471544
  53.3778636  22.1495969   6.1006528  52.3172287  23.0038840   5.4401762
  72.1051794  36.0558421   8.6218244  71.1810636  35.8617408   8.7785703
  72.1066669  36.9462401   8.2705289  34.0746546  60.4219675  55.2555370
  34.5003390  59.5646906  55.2659559  33.4601569  60.3931761  55.9888840
  72.2334855  47.9873759   1.3279230  71.4172645  48.4832770   1.3919145
  72.9010464  48.6477763   1.1422903   4.1023928  54.4799709  74.9645710
   4.9177551  54.6625996  75.4315472   4.2527387  54.8143101  74.0803528
  88.8140575  80.4632473  38.6167884  89.5820598  79.9303341  38.4108496
  89.0605275  81.3501167  38.3542156   2.1318883  69.6854734  46.6744375
   2.0129560  70.0374413  45.7922745   3.0604571  69.8209763  46.8631935
  97.9554574  31.4176852  33.5374242  97.8254525  31.5633399  34.4744951
  97.9785196  32.2967440  33.1593305  29.6937966  80.9704685  68.4710121
  29.9794507  81.3073730  67.6218176  28.7500358  81.1295414  68.4866285
  78.7221269  12.3832614   7.2430688  79.5587043  12.2951466   6.7863351
  78.0736039  12.0543153   6.6206247  21.6785145  42.9377747  73.9069462
  21.4539409  42.2719717  74.5569515  22.6343131  42.9834747  73.9312744
  19.3204951 100.0193501  54.4028902  18.8642180  99.5321751  53.7168121
  19.8295248 100.6782246  53.9306641  11.9199789  95.9557247  80.8332157
  12.7185142  95.4307079  80.7791138  11.2210810  95.3563786  80.5713749
  71.0347727  55.2420337   5.3043634  70.6618823  55.6164653   4.5062524
  70.8615780  55.8975226   5.9800607   7.5658005  87.7147007  71.2118959
   7.5207984  88.2561684  70.4238462   6.6516429  87.5742340  71.4585066
  23.6013961  78.7145233  68.6379719  24.0987849  78.4912300  67.8512192
  23.1962776  79.5574427  68.4340191  66.6319792  11.1869723  23.0721075
  67.2170238  11.8135745  23.4979326  66.7664294  11.3320214  22.1355611
   4.8657799  34.4069106   1.4496976   5.7883597  34.6587474   1.4089853
   4.4046736  35.1124293   0.9959871  94.8180024  13.9663369   1.4058191
  94.5870511  13.2787711   2.0304376  95.5464189  13.5997445   0.9045679
  41.4087161  22.1782725  63.0492687  41.3781371  21.8556350  62.1485996
  40.9179424  21.5289920  63.5530615  84.8969571  67.4509859  49.1867590
  84.2529170  67.0775938  48.5850763  84.5947520  68.3470154  49.3352127
 100.7806675  39.3309886  14.6907026 101.3337771  39.7499568  14.0313417
  99.8871819  39.4673736  14.3755609  90.2628712  99.6747971  81.3974190
  90.5252580  99.4395256  80.5074596  89.4477169 100.1638794  81.2854099
  23.5121846  59.8182726  78.3918476  23.8468337  60.0313616  77.5207329
  24.2505431  59.4024134  78.8369513  12.2750195   7.4074214  53.2199526
  12.9034790   7.7640861  52.5922155  12.2154339   6.4783042  52.9976082
  70.4227909  10.0792735  51.4088440  70.6453427  10.6652110  52.1322918
  70.1970824   9.2509978  51.8322182  89.8120038  98.4767532  55.3138018
  89.1504924  98.6392212  55.9862852  89.3098585  98.3583736  54.5075321
  42.7773263   7.2858088  56.7299223  42.0512637   7.1458095  56.1220884
  43.4588983   7.6969378  56.1982632  84.9993555  58.2177932   7.4891454
  85.4982392  58.3774669   6.6879922  84.1190629  57.9989058   7.1835214
  13.0665362  86.4410019  53.1520557  12.6376915  85.6157684  52.9255152
  12.3462331  87.0590305  53.2762718  59.9629211  79.5279980  68.6266565
  60.7856178  79.6144104  69.1082525  59.4382524  80.2757454  68.9127207
   9.3228066  88.5413456  51.1024427   9.6343911  89.4367981  50.9708977
   8.5135829  88.6405754  51.6039848  11.2697649  87.3661995  65.4575539
  10.7325780  86.5999031  65.6586885  11.2600505  87.8835487  66.2628412
  14.9724019  66.5466595  49.0655136  14.7081280  65.6842136  48.7452364
  14.2925906  67.1396542  48.7454462 103.7334893  58.8705301  58.9650679
 103.5531576  58.5699129  58.0743742 103.6164023  58.0916739  59.5090389
   3.1891775   4.5682008  15.2972299   3.8675428   4.7866303  15.9362489
   3.6709929   4.2287261  14.5430070  91.9655756  28.8773496   2.1232111
  92.6640288  28.4605891   2.6279050  92.4124925  29.2655665   1.3710290
  14.9275041  71.6151142  72.8780508  15.7244790  71.2063217  73.2156181
  14.9189067  71.3907957  71.9475460  79.0293320   6.7870467  87.9575157
  78.1998785   6.9078010  87.4952888  79.1534194   7.6021426  88.4437752
  13.0997729  64.9271154  37.7460957  13.6496580  65.6293917  37.3987246
  12.3466003  65.3787470  38.1268740  36.1294985  68.2104492  64.4061613
  35.7447362  68.2599545  65.2812243  36.6465068  67.4049616  64.4170618
  41.8148994  85.2337360  63.1549692  41.5939569  86.0335350  62.6777506
  42.7675819  85.1699543  63.0874109   3.7010515  94.0342999  21.6177702
   3.1854963  93.5103035  21.0046864   3.7737229  94.8914719  21.1979985
  86.6353659  21.7532021  14.2124731  86.1771600  21.7760188  15.0525648
  86.7124490  22.6723582  13.9566499  27.2879601  79.4388485  77.0367002
  27.2068667  79.9931622  77.8128386  28.1531239  79.0375233  77.1183348
  14.6131516  66.7701483  64.8937559  13.7700927  66.8669891  64.4509172
  15.1269448  67.5215244  64.5976353  28.8688397  88.3973694  80.0678158
  29.0919542  88.7678242  80.9217548  28.9066100  87.4501514  80.2004051
  28.8262916  80.8610630  72.3736191  28.2574010  80.9284687  73.1404638
  28.4798384  80.1156521  71.8831444  89.8380069  27.7421243   3.4822446
  90.3713982  27.9121835   2.7058393  89.8397462  26.7889506   3.5699445
  21.6940975  87.4790001  77.4210024  22.4329782  87.4726677  78.0294847
  21.1533904  88.2146835  77.7084589 104.0862529  66.5657806  82.2222805
 104.9814708  66.8996954  82.1646881 103.6210750  67.0033455  81.5092754
  68.1821497   3.1200641  71.2673187  68.3928307   3.4012263  72.1577120
  67.2643503   2.8519099  71.3116741  11.7879987 100.1683140  75.5931330
  11.9701350 100.2604103  76.5283203  11.2731194  99.3640709  75.5274630
 103.7627308  18.8817889  27.5878698 102.9648725  19.3626601  27.8079015
 103.9758102  19.1653640  26.6988260  28.5345173  67.7751493  57.9653168
  29.2224097  68.0392408  57.3543406  27.7552152  67.6729822  57.4189806
  15.2536082 101.4933777  85.2661610  15.2541363 100.5570030  85.4647541
  15.1828527 101.5359116  84.3125248  58.4445222   0.3790038  56.0210276
  57.8102501   0.4634612  56.7329264  58.4292992   1.2306827  55.5843878
  96.3450758  31.3979823   3.6951429  95.3944842  31.4737231   3.7780363
  96.6793100  32.2459704   3.9874250 105.5223195  34.4981582   8.7797624
 106.3858883  34.8990065   8.6807710 105.6604998  33.7814910   9.3990594
  97.9247670 101.4201164  65.1614332  97.3494343 100.9218979  64.5809078
  98.7099771 100.8787632  65.2427578  88.7530915  95.1251888  46.4495611
  88.0597500  94.5418167  46.7580938  88.3136145  95.9627151  46.3024807
  49.8250961  87.8438663  44.7317696  49.1001368  87.2206783  44.7797155
  49.8967266  88.1966686  45.6186914  85.1793639  94.1968632  78.7256765
  84.4804351  93.8758659  79.2954922  84.9943177  95.1302910  78.6221981
   6.6753685  84.4071579  72.4109936   6.7454648  83.4570217  72.5034809
   6.4652061  84.5430183  71.4870882  24.3827009  77.4246788  51.7246914
  23.5595226  77.4357700  51.2363386  24.1157436  77.4063349  52.6437283
  44.3877125  83.5877800  52.5009012  44.8714972  84.1164780  53.1354570
  44.7718430  83.8180065  51.6549253  22.5690031  76.3423634  25.5507612
  21.8380523  76.5231228  26.1417484  23.0935121  75.6877136  26.0118008
  51.6493412  17.3188632  54.0644932  51.2713834  18.1720298  53.8511992
  51.1257382  17.0022052  54.8005629  31.2213516  86.7222309  58.8459063
  30.6203198  87.4525070  58.6986065  30.6723547  85.9415913  58.7722063
  33.5657883  98.8222980  60.4398727  33.6540961  99.4655800  61.1431694
  34.0867782  99.1802406  59.7210741 105.7903845  52.0885181  73.5119057
 106.2869294  51.5463257  72.8989601 105.0639434  51.5309954  73.7906218
  79.2502026  35.2523238  25.0304395  79.8034422  35.7233436  24.4072992
  78.4479563  35.0637442  24.5435411  77.8323935  27.3557526  22.8744966
  77.5994049  27.0237452  23.7415105  78.0527101  26.5729958  22.3695356
  58.5571198  22.7693993   4.5279199  58.7350218  23.6912305   4.3413526
  57.8418319  22.5387627   3.9351350   8.8807642  42.5021076  71.4431047
   9.7170645  42.9398823  71.6018105   8.2393974  43.2122612  71.4193392
  64.5777234  11.6056006  66.6008759  63.8400348  12.1548884  66.3356781
  64.6355446  11.7236369  67.5490093  90.3047697  11.6465098  21.1999876
  89.7605137  11.0119779  20.7337457  89.8432652  11.7975432  22.0248777
  94.8599712  52.7750826  51.5718699  95.0615923  53.4708309  52.1975803
  95.7043974  52.3609829  51.3938236  96.3711480  90.3340626  53.4369373
  95.6513743  89.7074699  53.3624649  97.0920984  89.8273563  53.8107157
  89.6125857  23.5532576   8.3224851  89.5030574  22.7611119   7.7964288
  89.7563021  23.2317216   9.2125398 102.8076003  77.7360916  76.6780138
 102.6651369  77.7469397  77.6244926 103.7596587  77.7292728  76.5791702
  75.7827993  36.2669570  18.6231691  76.4390571  36.9540412  18.5071069
  74.9702151  36.7397982  18.8030607  96.9732944  82.7503300  66.9765139
  96.0212437  82.7918816  66.8865013  97.1951048  83.5029030  67.5248432
  27.0249009  78.8174963  70.9956503  26.9779205  78.6757088  70.0501776
  27.2403717  77.9574633  71.3564014  38.7246402  17.2966426  68.4341002
  39.6397429  17.1807044  68.6897898  38.2296320  16.7943232  69.0813065
  66.3016854  50.7349879  18.8214380  65.5880026  50.5118853  18.2238466
  65.9097563  51.3465411  19.4448358   8.1615728  77.3993349  10.0323105
   7.7694923  78.2530451   9.8487717   7.5307959  76.7670631   9.6879560
  79.0367870  14.0814072   0.3357011  78.1473569  14.2686040   0.6358701
  78.9723597  14.0819938  -0.6193274  15.6798685  75.6958437  71.9012880
  15.5261457  75.8540487  70.9698534  16.0927999  74.8328638  71.9327021
  29.3292999  97.8518677  79.1616583  28.6998987  97.9002094  79.8812056
  28.7966514  97.9397392  78.3712196  35.0158882  87.2773552  76.5621662
  34.3450999  87.7099991  76.0338688  34.6192837  87.1910763  77.4290514
  38.2913852  89.2464542  73.7250805  38.6240029  90.0825405  74.0515041
  38.8691974  88.5902691  74.1146851  26.3008764   0.1463645  69.1074181
  26.9032826   0.0909656  69.8492193  26.0014971   1.0555404  69.1093731
  10.9956336  53.0609131  63.7619495  10.7132876  52.1719217  63.5469770
  10.1919532  53.5111904  64.0219069  30.2597179   2.6364367  79.7076941
  29.5549729   2.3403495  80.2838039  30.5747267   1.8376868  79.2845964
  58.9933046  36.5654414  79.5668077  59.5099624  37.3632663  79.6798515
  59.6398982  35.8868640  79.3727160  77.8509186  70.9021575   1.6392404
  78.7727611  71.1532027   1.6976911  77.5756119  70.7880790   2.5488645
  12.7092803  89.2890453  58.7290907  13.2948434  88.5321999  58.7059116
  12.0916760  89.1360283  58.0139780  58.3349617  23.5086768  63.8223600
  58.3813532  22.9090827  63.0776691  57.8941186  23.0060904  64.5074129
  96.4142649  55.9135825   2.2348196  96.1085383  56.7487151   2.5888330
  95.6411807  55.5325610   1.8184167  27.7182078  79.8996639  53.9967108
  27.5202727  79.4869900  54.8373938  28.5269880  80.3869820  54.1536379
  20.2361655  89.5170116  74.7321892  20.0323844  89.1209984  73.8849115
  19.4797218  89.3105698  75.2811956  24.7300100  91.4811802  58.3118582
  24.8629284  90.5335999  58.3375359  25.6104517  91.8439960  58.2147884
  43.1287988  21.8426459  80.2561188  42.6039066  22.5066798  79.8091555
  44.0231528  22.1821731  80.2231884  85.6673007  35.5899245   9.7951108
  85.2057676  36.3804919  10.0747758  85.3778915  34.9141223  10.4081136
   4.9786997  45.3036410  21.2925130   5.8807755  45.4663188  21.5682394
   5.0493193  44.6046168  20.6424219  95.2947943  47.5646407   3.7310678
  95.9640352  48.0649382   4.1980344  94.8609750  47.0508677   4.4122964
  60.0892977  35.9607608  13.9676267  59.3798844  36.5144355  14.2938406
  59.8217110  35.0701720  14.1945058  51.5360077   2.6352923  54.0902233
  51.5898391   1.6816085  54.0283823  50.8886047   2.7946036  54.7770452
 103.0625479  69.0836913   1.3816053 103.4772770  69.4737250   2.1510965
 102.1329658  69.2895133   1.4803583  78.0227922  59.6383006  10.8169061
  77.3951207  59.6187503  10.0944978  77.8412406  60.4618556  11.2697107
  56.2708148   2.7900737  50.2707767  55.8110972   3.2389968  50.9802580
  55.5996605   2.6465838  49.6035480  95.0746505  35.1644046   9.8040754
  95.2243058  36.1084849   9.7537214  94.1254680  35.0679023   9.7268087
  94.3597023  93.5846806  61.1800003  95.2966527  93.7805176  61.1820078
  94.2965118  92.7205086  60.7732439  16.9754350  67.3665667  81.4293098
  17.7079654  67.2025204  82.0232201  17.3876154  67.5426674  80.5835438
 101.8241557  20.3018229  51.7809153 102.0641621  19.6664947  52.4554348
 100.8755024  20.2101081  51.6921806  85.9901683  72.3349959   7.3609334
  86.6367464  72.2484309   6.6604501  85.8390109  71.4382083   7.6595193
  60.5726401  36.9057948  11.1532480  60.7945566  37.2536284  12.0169527
  60.9172861  36.0128123  11.1588842  31.3106227  94.1090488  73.2741404
  31.7697287  94.2045689  74.1086054  31.7498040  93.3767509  72.8415918
  57.1784735  92.4511909  63.4669971  57.1384001  92.0332336  64.3271923
  56.3599348  92.1988487  63.0397367  14.6888888  70.4904938  58.8277388
  15.3547740  70.9318018  59.3550634  14.8129106  69.5600271  59.0150595
  69.1597661  11.4645808  60.5719614  69.0115031  11.3981574  59.6286488
  68.6120113  12.1989100  60.8493805  85.2365951  56.5393836   2.9575044
  85.2267925  55.7162101   3.4458906  85.7149486  56.3354117   2.1538812
 101.4008943  93.2006264  76.0714579 100.8878611  92.5893402  75.5429173
 100.9285412  94.0304279  76.0040045  83.8221320  11.1703723  80.7913971
  83.7609395  11.7233508  80.0124836  83.6257609  11.7597716  81.5195942
  52.1818638  98.3532619  75.7483578  52.2671175  98.0311012  74.8510456
  52.1771622  99.3064785  75.6611729  99.1486804  76.8435294  10.1938135
  99.2737953  76.4410216  11.0532171  98.8302938  76.1309440   9.6396619
  35.0155878  92.3309898  61.5614557  34.4043875  91.6593742  61.2588024
  34.4941831  92.8851414  62.1422195  59.4837554  20.8170741  69.5536757
  59.4629153  21.7514079  69.7605753  60.3438791  20.5242103  69.8547649
   5.7650518  72.9771280  73.4317207   6.0801083  72.0890331  73.5998297
   4.8957604  72.8546667  73.0501890  38.3897209  75.4591036  47.1924639
  38.1432486  75.0623798  46.3569450  38.7053514  74.7265482  47.7215862
 101.4379128  25.0358909  83.9902782 102.1803483  24.5241969  83.6690331
 101.4956435  24.9693149  84.9434090  20.6868696  85.6845665  69.0958929
  20.2495623  85.8167839  69.9370289  20.0882769  85.1260567  68.5999155
  79.7810469  40.9968955  13.6057550  79.2079674  41.6632563  13.9849359
  80.5891345  41.0579402  14.1151697  49.0558728  14.2647212  61.7236471
  49.6821555  13.6690371  62.1349430  49.4293865  15.1356166  61.8588018
  29.8181415  92.8559494  67.1965837  30.1011610  93.7128544  66.8774509
  29.5399833  93.0161190  68.0983639 106.1810581  37.5053031   1.9826776
 105.6655972  38.2035453   1.5789587 106.7597477  37.9586322   2.5957376
  30.9916592  82.1293926  73.0009460  30.2727437  81.6388226  72.6025343
  31.0687709  82.9188442  72.4651766  29.4113755 101.6947842  75.8019304
  29.6202493 101.7791653  74.8716164  30.2581525 101.7560005  76.2440348
  51.1968645  15.9078639  69.6373749  50.7995661  16.4069598  70.3510189
  50.9336503  15.0025409  69.8027372  37.4193859  95.7147217  78.9512205
  38.0943990  95.9633255  79.5827198  36.6579986  95.4955292  79.4883204
  82.8671567  64.1125972  28.1560403  83.1557230  64.3916613  29.0249998
  82.3863475  64.8646361  27.8103525 106.3031427  82.5230319   1.9125158
 105.7169120  83.0883605   1.4095480 107.1815865  82.8348643   1.6949445
  56.1503696  68.6635828  64.3866444  55.3449631  68.8335562  63.8981199
  56.1519146  67.7162552  64.5237827  14.7990918  96.8584633  60.7091856
  15.7422233  96.9695568  60.8291483  14.6467566  97.0800209  59.7905254
  50.8739766  10.3636973  36.7255068  50.0242122  10.8043044  36.7259812
  51.4586016  10.9704059  37.1797657  10.0226617  97.6183414  55.8859205
   9.5385891  97.6369572  55.0603533  10.1185477  96.6872883  56.0864019
   1.8447995  47.8494937   4.7043973   2.6785183  48.0123717   5.1455480
   1.2092614  47.7687556   5.4155904  12.3271680  62.0202637  32.7910566
  11.7947078  61.2314987  32.6882648  11.9308007  62.6561165  32.1953917
 104.2668971   7.7508586  85.4846287 103.5940846   7.8854316  86.1520481
 104.1111382   8.4449523  84.8441601  42.3470640  72.1217489  64.3052435
  41.6612196  71.8020439  63.7190390  42.8770590  72.7026415  63.7594414
  55.1024195   8.9391177  84.8217583  55.6693514   9.6214431  85.1812744
  54.5397135   9.3989222  84.1987324  10.4940355  95.2708530  76.9798422
  11.1896253  95.8383942  77.3119307  10.3312182  94.6506214  77.6905012
 100.6354467  57.4544722   4.1219598  99.7753398  57.3693950   3.7106115
 100.9285395  58.3342177   3.8845045  96.5504615  58.6702639  13.0624944
  97.0780079  57.8775794  12.9646570  96.8242375  59.2312533  12.3368436
  46.9115373   0.1610511  64.3722582  47.3377784   0.6916564  63.6991978
  45.9988793   0.4494803  64.3622875  19.2563844  94.5894051  72.6416302
  19.2025852  95.2700806  71.9707918  19.1759098  93.7681580  72.1565437
  55.1766475   7.0760291  72.5606728  55.6110056   6.8211406  71.7466736
  55.7373794   6.7237513  73.2518387  58.3479818  17.1533721  71.9923067
  58.4139927  16.4383071  71.3594055  58.0592307  17.9052012  71.4749956
  67.5728949   2.9465239  49.5464087  67.9101761   2.6130431  48.7149858
  67.4363788   2.1640723  50.0806093  22.4300289  83.3507919  47.5658607
  22.1367741  83.6742115  46.7140198  22.4319816  82.3981476  47.4726343
  16.1561739  98.4092903  42.9163599  16.6812336  98.4802341  42.1191692
  15.8806479  99.3069077  43.1023598  46.3482904  98.0975342  55.4729700
  46.4170027  98.4871769  56.3445711  45.9469366  97.2417927  55.6241369
   3.5178056  66.2337208  71.4271069   2.5681961  66.1427546  71.5058374
   3.6691031  66.3644361  70.4910231  86.7603211  31.5790469   8.2325059
  86.9478647  31.6900164   7.3004419  87.5907974  31.2907893   8.6112577
  21.6304755  73.5188961  39.8616600  21.3176322  74.4223642  39.9075317
  21.3086462  73.1964445  39.0198278  18.1240368  65.1759958  87.5625324
  18.4422708  64.2976522  87.3540401  18.1713212  65.6510735  86.7329025
  92.6423637  56.3692004   5.0141317  93.0512731  55.5108268   4.9036199
  93.3157293  56.9027240   5.4362279  31.7880154  77.2963619  61.5021610
  31.6797781  77.2452545  60.5524731  32.0820522  76.4218473  61.7571163
  18.6163211  87.4499702  85.3137875  18.2082081  88.0958843  85.8903790
  17.9001677  87.1347046  84.7624588  11.5521145  45.2116019   8.5865194
  11.0815048  45.8408839   8.0399210  11.0639668  45.1972873   9.4097692
  27.0957136  77.2449303  63.0000496  27.3106003  76.9309759  63.8783932
  27.7416277  77.9294968  62.8257036  25.2196097 100.5841064  33.0408263
  24.9884653 101.4663410  32.7502036  26.1692214 100.5366325  32.9303074
  98.5138981  56.7466075   9.0244180  97.6288621  57.1004207   8.9362985
  99.0842216  57.4455459   8.7043363  47.7666195  13.1583732  69.8196793
  46.9610210  12.6569694  69.9455261  47.4780091  13.9791625  69.4206142
  28.7606287  37.8551680   9.7118265  29.3320131  37.7589614   8.9499265
  29.3172074  37.6329429  10.4581911  87.5238995  61.7483718  21.4375383
  87.4052886  62.2697646  20.6436140  87.3378448  62.3561389  22.1532423
  54.2280074   7.7274840  50.3736162  54.5084413   7.7956241  49.4609594
  53.5175129   7.0862334  50.3586245  95.1117031  12.1593005   7.2380239
  94.4671456  12.8172023   6.9773752  95.7574884  12.1636063   6.5314943
  38.3986902  91.8665695  74.4823790  37.7468729  91.7269707  75.1693106
  37.9077077  92.2649002  73.7636948  42.9633188  81.5319824  81.8082333
  43.0966854  80.7650852  81.2511730  42.0127630  81.6010094  81.8971920
 102.8933374  20.2912051  10.1931173 103.2511417  20.0658090   9.3343908
 102.4730269  21.1411149  10.0618822   4.9719620  54.4976622   7.2897226
   5.6153774  54.7231681   6.6178590   4.2667008  55.1334674   7.1689588
  71.1888321  11.4343207  56.1043549  70.3830870  11.3031524  55.6045532
  71.0167011  12.2109645  56.6367292  75.7423819  44.8393161   7.9916460
  76.2371225  44.3464286   7.3370248  76.4051451  45.1515395   8.6076814
  99.4904248  15.2598292  24.8033887  99.6887414  14.5622975  25.4281694
  98.5549299  15.1630265  24.6253091  25.9352112  54.9476439  34.8736745
  25.6092405  55.4469783  34.1249162  26.5163994  54.2914111  34.4892198
  42.0736885  81.0322094  74.6211958  41.8164062  80.9370422  73.7041473
  42.1679306  80.1338673  74.9379730   3.5017774  97.6511383  79.9873781
   4.0057415  97.4349976  80.7719421   2.6871160  98.0262566  80.3218079
  68.6226090   3.5155242  62.1073437  68.3396061   4.3003123  61.6380358
  67.9742106   3.4054797  62.8028297  91.3457541  30.3127963  20.1571352
  90.8434073  29.7478587  19.5699960  90.7867376  31.0785014  20.2891332
  29.7756179  17.0653480  79.4011927  30.6947782  17.3324721  79.3967581
  29.4435199  17.3638766  80.2478504  84.9069969  98.5464382  52.9787683
  84.9289767  98.4986210  53.9345169  84.0151159  98.2879448  52.7464724
  16.4670539  75.3977823  14.2711484  16.7326629  74.6420670  14.7951519
  15.5103791  75.3660917  14.2728555  34.6441054  76.2917328  55.6251478
  34.9136162  76.9984484  56.2117910  34.5796180  76.7061567  54.7647238
  80.7065050  48.6322696   2.4495393  80.4159926  49.5071322   2.1917707
  81.4978175  48.7851436   2.9659540  86.2316100  67.2696590  84.8332214
  86.7114608  66.5905762  85.3073788  86.4293401  68.0776501  85.3068066
  88.5300104  74.4389827   3.0363065  89.0124492  75.0927646   3.5423261
  88.2534317  74.9037082   2.2465116  35.6640887 100.9254360  87.5595570
  34.9776053 100.9802914  86.8947601  36.1048937 101.7741394  87.5192642
  23.1747675  30.5799968   5.4449445  22.2822905  30.2556617   5.5654413
  23.3815861  30.3787143   4.5322973  50.1335096  85.2845860  47.7867556
  49.3233681  84.8453426  48.0455542  50.3719664  84.8763371  46.9544697
  10.9033394  43.1807715  16.4063341  11.1425257  44.0512282  16.7246706
  10.8059645  42.6540381  17.1996194  40.3082510  20.0870841  86.2475491
  41.1949380  20.4155009  86.3964081  39.8642569  20.2072471  87.0869923
  40.4597162  25.0485461  46.5134048  40.3192641  24.9279159  47.4525309
  40.6227478  25.9865230  46.4141512  23.7962008  89.8575211  78.0990267
  24.2177796  89.0068817  77.9768801  24.1556144  90.1868820  78.9227819
  49.3872309  83.8173962  80.3912067  48.9141798  84.3318939  79.7371864
  49.4471025  82.9416370  80.0095081  63.3946403  30.5981963  60.3857279
  62.8047737  31.0730594  59.8002338  63.0647572  30.7884257  61.2639189
  18.4321189  91.6180229  78.3555365  18.0146670  90.9756470  77.7816725
  18.0159128  91.4846230  79.2071247  75.2668749  12.0019633  31.3096124
  76.1052270  12.0085294  30.8477098  75.4074235  12.5673682  32.0690805
 106.7947495  97.3514271  82.1672440 107.0264116  96.4708233  81.8721104
 106.1856997  97.2087288  82.8917599  72.5189535   9.8760110  58.0521011
  73.3230655   9.5195436  57.6745224  72.1482627  10.4194689  57.3567772
  13.4443450  21.3807225  45.5817175  13.2947779  20.8983207  44.7686052
  12.6752913  21.1895037  46.1185837  16.5959704   2.0924611  80.3475189
  16.7682409   2.2434555  79.4181299  15.9506559   2.7590951  80.5828857
  73.6092965  14.1672230  56.2563372  73.9381496  15.0659502  56.2757063
  72.9138605  14.1807663  55.5987549 105.0065682  23.2106686  35.9317946
 104.7136284  23.0214810  36.8232131 104.3736814  22.7616930  35.3713417
   9.0658367  30.2218914  51.5005255   9.4019026  29.9545121  50.6450748
   9.2011166  31.1691523  51.5255928  88.8143472  53.3066177  52.7255821
  89.3252293  52.8374720  52.0659351  87.9369013  53.3701611  52.3483801
 107.0864834  68.2595491  10.5155480 107.8107024  68.8195324  10.7951140
 106.4418161  68.3325291  11.2193310  95.3830365   8.4403551  57.4633551
  94.5916204   8.8543093  57.8076410  95.2796475   7.5126421  57.6752329
  94.1748623  51.3778877  85.0651836  95.0953500  51.5716457  85.2423668
  94.1524581  50.4316616  84.9223995   7.1327877  68.6940718  71.6059017
   6.2868029  68.5658646  72.0349789   7.1706545  68.0066824  70.9408522
   2.4958897  36.7796588  81.5170479   2.0313679  37.0838547  82.2967339
   3.3575210  36.5153384  81.8394661   6.8757612  45.3911543  38.4322333
   6.5919513  44.4884682  38.5765886   7.4416769  45.3439808  37.6616859
 102.2407816  67.9056358  46.4583683 101.8569617  67.6796150  47.3056173
 101.5636550  68.4192991  46.0180521   3.0651754  27.7341986  75.6745291
   3.6909717  28.1451607  75.0781059   2.5387377  27.1643138  75.1138783
  17.8335619  10.7473087  49.4800377  17.3325443  10.6011534  50.2824402
  18.3620620   9.9555200  49.3800926 100.6604622  45.5143309  36.6861629
 101.4187733  44.9455547  36.5531754 100.9853755  46.3947058  36.4974737
  35.2866602  33.9995122  64.4692755  35.5053282  33.8812804  63.5449171
  36.1311817  33.9808512  64.9194670  97.2881750  50.6277800  76.1865473
  97.2483758  50.4226160  77.1206522  97.4212531  49.7808838  75.7607746
  13.0496216  14.0618134  68.8019037  12.3952997  14.0230358  69.4994640
  12.9331636  14.9282873  68.4121704  81.5670260  95.5432285   4.3003732
  80.9525784  96.0692181   4.8122484  82.4311360  95.8209242   4.6043951
   5.8115685  88.9270496  42.5640249   6.6423643  88.5440063  42.8455973
   5.6451350  89.6279335  43.1943464  88.3170657  33.0419159  45.2266788
  87.7483718  32.8193998  45.9637690  87.9754655  32.5260162  44.4963455
  32.3635650  20.7681036  65.2026129  31.6580129  21.4141488  65.1701498
  33.0675578  21.1559510  64.6828032  24.7458720  80.4405117  57.0431566
  25.2778172  79.7216702  56.7017889  23.8437796  80.1314354  56.9599056
  91.1964611  43.2800961  82.2921085  91.0494713  44.1193771  81.8559456
  91.7080108  42.7701235  81.6640377  30.0999928  56.4120007  39.2957902
  29.2293477  56.7522573  39.5017862  30.5167961  57.1103430  38.7909889
 106.9298333  31.7104483  77.6051664 107.8864300  31.6818047  77.6234627
 106.7149521  31.9649816  76.7078018  16.5063953  35.9529996  85.7959557
  17.1630609  36.0042667  85.1014137  16.8873644  35.3586507  86.4423656
  33.7627917  68.7295557   1.2660104  33.0212989  68.1982686   0.9759122
  34.0048975  69.2437340   0.4957849   7.7207381  33.0793214  36.3068366
   6.9051504  32.8017092  35.8897257   8.2241583  32.2717142  36.4096379
  91.6711954  23.4262371  68.4412003  91.5223042  23.6366439  67.5193596
  92.3537914  24.0370440  68.7190628   0.5348547  92.9113163   3.9935380
   0.2540811  92.9098047   4.9086362   1.2462076  92.2717060   3.9602071
  92.9649607  53.8466024  68.3583450  92.4236266  54.5170212  68.7751484
  93.0094473  53.1400394  69.0025663   5.4629236  66.4657354  77.2992468
   6.3545901  66.2663746  77.5845861   5.5697513  67.1544886  76.6431713
 105.3393446  65.2677774  34.4661903 104.7472767  65.9623718  34.1777062
 106.1113871  65.3642225  33.9086223  17.1930504  10.1821840  59.2670727
  17.3856020   9.2808968  59.5256042  16.2397575  10.2093697  59.1850710
 103.9324785  49.6939230  73.7367392 103.9609013  48.8614750  73.2650900
 103.2153253  50.1772738  73.3264971  99.1310010  16.7081404  60.2970934
 100.0589291  16.9374001  60.3483009  98.7762151  17.2935700  59.6280384
  32.3036408  13.8163054  49.9381018  32.1069741  14.6399808  50.3843212
  32.0470738  13.9693594  49.0287161  25.1617002  16.2557936  82.8725147
  25.9890866  15.8882976  83.1833363  24.9097419  15.6930935  82.1403122
  26.2961864  10.0173092  73.0657721  26.6969800   9.5196277  72.3530960
  27.0317149  10.4513931  73.4979725  94.7028558  29.7802329  72.3125362
  93.8112203  30.0718141  72.1222734  94.6225516  28.8358784  72.4466038
  92.2176472  33.2648110  49.4300127  93.1321971  32.9848480  49.4681168
  92.2176198  34.0002179  48.8173056  75.3838309   6.6860996  85.3853211
  74.5520346   7.1449839  85.5026790  75.4383119   6.5262114  84.4431436
  92.8057496  37.5525236  40.0203037  91.9094769  37.3023629  40.2446842
  93.3339934  37.2321963  40.7514572  52.7987687   1.5443618  37.7772218
  52.9947285   0.6099374  37.8456575  53.6297159   1.9452960  37.5222475
   5.8491158  18.7372112  59.3432045   5.9803653  17.8216481  59.0967274
   6.0700977  19.2317510  58.5540104  26.5078115  50.5413198  50.1934242
  26.1785078  50.5343008  51.0921669  26.6874409  51.4637184  50.0113535
 107.5499044  37.9566503  56.8596840 107.4934760  37.0060658  56.9568300
 108.2899991  38.0934525  56.2682629 100.4498653  37.4804115  20.8646774
  99.5909761  37.1278071  20.6318426 100.4930560  38.3234239  20.4133463
 101.7600374  60.6953096  65.9816313 100.8301769  60.8413363  65.8076572
 102.2005991  61.4373922  65.5675602 106.4253012  35.9836030  78.2152271
 107.3575765  36.0351896  78.4260178 106.3954153  35.5371499  77.3690462
  18.8339829  27.4844146  51.0836315  18.8865733  27.9133773  50.2295494
  17.9808450  27.0503831  51.0815334  14.6387863  18.9175570  65.0876093
  15.3616369  18.9801335  64.4632673  14.6249497  17.9961193  65.3464365
  29.5008302  34.7756815  73.6765957  29.3575144  34.6104980  74.6084785
  30.1778221  34.1481209  73.4234524  84.7855679  17.9303372  40.9672832
  85.4736678  17.4357283  41.4123821  84.3938486  17.3025203  40.3601313
   4.7263288  12.0127940  77.6071835   4.7960684  12.8194046  78.1178236
   4.1592929  12.2434449  76.8713188  50.3286203  64.5469703  25.7245332
  50.5278834  64.7496451  24.8105032  50.2364417  65.4019941  26.1448556
  97.3006193  22.9803514  69.4187021  97.8596823  23.7555265  69.3659449
  97.2686867  22.6466107  68.5221338  69.1658370   7.3732573   4.8002798
  68.7935389   7.6952750   5.6212122  69.3555759   6.4503629   4.9690706
  19.7045016  31.0581422  76.1445284  19.9554145  31.8414950  76.6340542
  19.6064329  30.3795171  76.8124247 103.7171115  64.9097013  74.1261721
 103.8569785  65.7863092  74.4842625 103.0374418  65.0276899  73.4625769
  49.2521095  52.4342394  61.3266182  50.1740599  52.5474644  61.5577364
  48.7794638  52.9861975  61.9496584  45.3143072  24.9310279  52.2824240
  44.4308186  25.2455616  52.4741125  45.5077362  25.2765465  51.4109707
  98.6873529  44.3829489  74.4386482  97.7325610  44.3473959  74.4964504
  98.9164011  43.6840963  73.8259697  90.0955240   8.2573325  13.4102232
  89.6018736   7.4841792  13.6836702  90.2042536   8.7681491  14.2123872
  93.6781446  55.5151415  43.3959436  92.8763406  56.0053205  43.2141018
  93.4056930  54.8269224  44.0028667  13.0023456  17.1516621  71.2291908
  13.2515061  17.6053536  72.0343733  13.6252320  17.4666822  70.5742073
  73.6043088  81.3849068  41.4437723  74.2069547  80.6412888  41.4345694
  72.8798000  81.0991669  42.0002508  24.0019870  24.3447423  76.7567301
  24.4678092  23.7330151  76.1866188  23.9860511  23.9118695  77.6103115
  50.1940266  33.7502527  84.9485016  49.6921841  34.1881323  84.2610073
  49.9325148  32.8314805  84.8876858  14.6815252  82.4094009  84.2332649
  14.4740570  82.6204109  83.3229542  14.7490561  81.4547062  84.2484188
  91.5921323  64.3594980  29.7137666  91.1929874  65.2077293  29.5203233
  91.3576869  64.1868448  30.6256104  58.5356935  84.6389212   0.8280546
  57.6910552  85.0023545   0.5620939  59.1797884  85.1359834   0.3237707
  34.3428651  84.9325837   6.4370138  35.2023851  84.8937930   6.0175497
  33.8349496  85.5295743   5.8876020  76.2887923  66.9030094  83.5884380
  76.5732590  66.0208559  83.3494568  75.3471820  66.9058609  83.4164047
  21.3058734  37.7231717  86.9400024  22.0054746  37.6304245  87.5866795
  20.8786607  38.5493541  87.1661472  30.1974543  52.6072283   3.8230783
  30.4966863  53.5120605   3.9123518  29.7412457  52.4236946   4.6443063
   6.2080818  72.3646402  63.4007883   6.0709912  71.5664959  62.8904963
   7.0434427  72.7098227  63.0857420   0.1191620  89.8739624  37.1706176
   0.3590259  89.1371346  37.7325702   0.1799306  90.6400776  37.7412319
   9.1343689  17.7682376  67.3831129   8.3584791  18.2221818  67.7119923
   9.7771418  18.4634948  67.2427893  11.2821567  27.7950239  37.5528431
  12.0630062  28.1007838  37.0913076  11.5647900  26.9966149  37.9988170
  91.6950588  23.1189370  85.7957935  91.2733821  23.9495611  86.0159874
  91.6897694  23.0939031  84.8389339  34.5603066  84.8975266  14.5624620
  34.3186071  84.1830958  13.9730531  34.1575774  84.6645464  15.3989774
  86.5601532  28.2730126  69.5726585  87.5151126  28.2332230  69.5206594
  86.3409154  29.1572046  69.2787743  76.4224951   4.4688386  52.6036692
  76.9387214   4.5661691  53.4038353  76.3493459   5.3577483  52.2562218
  22.2078919  79.2552614  56.3800955  21.8191314  78.6733246  57.0331240
  21.5830112  79.9758148  56.2991285   5.1248336  69.0628767  75.7734299
   4.5934552  69.4889021  76.4460182   4.5994726  69.1284370  74.9759769
  86.2666385  62.2622585  63.5703659  85.5236022  62.4747419  63.0055857
  85.9059851  61.6657400  64.2263556  37.5914288  84.5465469  87.1782875
  38.2358551  85.1982117  87.4544621  37.7632117  83.7882519  87.7365971
  18.5998571  83.9189434  57.5121212  18.7147331  84.0760708  56.5749216
  18.3758235  82.9903698  57.5735998 101.5777944  17.5898099  60.4253864
 101.5922449  18.4940040  60.1116085 102.4595277  17.4406230  60.7667398
  40.9121275  41.9176579  50.7898903  41.5547132  41.2961626  50.4477453
  41.3493109  42.7675581  50.7372284  23.0446911  47.1399641  85.2633476
  23.9366484  47.4439573  85.4313660  22.6407099  47.0922279  86.1298084
  60.4840223   6.8171842   1.2332899  60.5941956   7.5917107   0.6817419
  60.9155015   7.0460231   2.0565111  14.0928125  39.9396634  67.8666449
  13.9840615  39.8574066  66.9192076  14.8785329  39.4293475  68.0627441
  43.3536842  61.4129044  24.8539907  42.8835126  61.5917708  25.6683523
  42.7140327  61.5899922  24.1642744 105.8959883  66.5234566  39.4282889
 105.9760481  66.1030531  38.5720849 105.0438217  66.2370872  39.7569799
 101.4081005  53.0641747  70.5662107 102.1079020  53.1010103  69.9141741
 100.8504818  53.8148355  70.3617620 107.1360214   7.3597336  68.9159393
 107.3778492   7.2299147  67.9989338 107.5398867   8.1941772  69.1543245
   6.7683941  66.5744448  53.3057022   6.7066133  66.1695957  54.1708708
   6.0254991  67.1769667  53.2696104  21.0351014  59.4297266  50.0751638
  20.2525878  59.3746853  49.5266438  21.6804576  58.8827181  49.6273613
  87.0992152  36.2721395  71.1793613  87.3871939  36.5668845  72.0433235
  86.7841093  37.0664406  70.7480526 104.2883266  41.1521435  43.3686781
 104.5909981  42.0336008  43.5869646 105.0693644  40.6043911  43.4473038
  41.3604164  40.1441908  54.0663815  41.2105751  39.5795941  53.3080864
  41.8034649  39.5806861  54.7007322  43.0247696  87.6328243   7.9009706
  42.0811244  87.4725141   7.9090482  43.1200721  88.4800161   7.4657518
  42.3217058  57.8875113  52.5641918  41.5649271  57.3902655  52.2539234
  43.0194426  57.2370672  52.6436663  27.3164821  36.7468524  61.9458866
  26.3762140  36.8395948  61.7925072  27.6535749  37.6422167  61.9155169
   7.0595294  44.6980190  72.1527672   6.3434184  44.5715141  72.7751923
   6.6250920  44.8079491  71.3069487  75.1399733  29.6328837   3.4177381
  74.6619113  29.3624598   2.6337987  74.7682635  30.4858119   3.6426431
  94.8987047  19.9897623  73.1772900  94.4899110  20.7308125  73.6244631
  95.3828756  19.5325661  73.8648844  20.0280356  41.3890553  59.4099474
  19.5059860  40.7017374  59.8238230  19.8763847  42.1637726  59.9512911
  83.7398259  56.6960096  48.2779217  83.0766217  56.5298414  48.9478350
  83.6537616  55.9628105  47.6686239   3.0116153   7.9840839  72.2305107
   3.5205173   7.5284237  71.5599728   2.1115637   7.6908195  72.0886135
  85.5493419  32.8218150  74.0431309  85.7920830  33.7470508  74.0784264
  85.0386516  32.7387333  73.2378197  10.9469354  46.8304777  55.8580637
  10.7310390  47.7551270  55.7370663  10.2335632  46.4863014  56.3955355
  19.5959473  41.4585447  42.1651745  20.2598500  41.7853642  42.7723408
  19.0027368  42.1988773  42.0377302  99.8951600  49.7896910  49.1725016
 100.1754151  49.3885660  48.3498287  99.5549444  49.0604401  49.6908474
  92.4888233  40.1551867  35.1590085  91.8205230  40.7444715  35.5087924
  93.0261294  39.9254823  35.9171438 103.6111022  58.1877613  64.3499184
 103.0200030  57.6143360  63.8620424 103.0707357  58.5450411  65.0546074
 103.6716459  29.9146533  87.8937149 103.5236118  29.7412062  86.9640732
 103.2203208  29.2014575  88.3452606  24.5012077  93.6581100   2.6776105
  25.4419645  93.8339485   2.6945955  24.4337567  92.7407469   2.4128038
  93.9631097   7.0201642   0.5200845  93.7868397   7.2805507   1.4241678
  93.3907048   6.2674577   0.3716928   3.3204678  14.2625678  55.1833916
   2.6120180  14.5682693  55.7498550   2.9885122  13.4497297  54.8021698
  14.5115352  37.6344037  84.9280357  15.2399075  37.0968461  85.2390671
  14.5608413  38.4323025  85.4545021  95.0668637  55.0531292  53.1074047
  95.6133680  55.2303505  53.8730145  94.1711180  55.1908302  53.4154797
  22.3493838  70.0314951  35.9973764  22.0884037  70.3251934  36.8702221
  21.9228148  70.6461668  35.4003453  20.2061796  61.3089037  35.3700089
  20.9860539  61.1884260  35.9117770  19.9369025  60.4204321  35.1368880
  72.4068324  38.8582444  73.1234884  73.2141296  38.3440542  73.1129789
  71.9164960  38.5498452  72.3614550  32.1861124  33.0337930  73.4404612
  32.8482533  32.3532438  73.5614967  31.3718772  32.6324582  73.7440777
  16.4252889  96.6999245  57.9445267  16.7085171  96.2170887  57.1680737
  17.0723093  97.3986626  58.0412960  73.4682573   8.1604249  27.5793439
  73.8736360   8.2320554  28.4434968  72.7786995   7.5061280  27.6917535
   5.4231995  45.0840855  81.1531734   5.3543067  44.1573238  81.3825035
   6.2456822  45.1502705  80.6680202  95.5482034  70.2099991  38.7008595
  96.1344055  70.8147430  38.2460189  95.9735863  69.3564939  38.6183429
  11.9221938  84.2950058  46.6615963  12.7174234  83.7626553  46.6405535
  12.1275997  85.0540638  46.1158276  45.9819033   5.4232161  55.8797979
  45.6112911   5.3109019  56.7551661  46.9259866   5.4842608  56.0254335
  24.1751671  17.9277289  60.4000902  24.7484851  18.6928236  60.4466581
  24.7586083  17.1822536  60.5418539  17.2326159  57.2135735  77.1170616
  18.1336915  57.5364017  77.1083784  16.7328465  57.8859043  76.6539907
  12.2652888  54.1880655  51.6248322  12.1912372  53.5855722  50.8847332
  12.7429044  54.9400520  51.2746429  34.3623638  54.8241329  58.1798172
  34.6205735  53.9534903  58.4823751  33.4478068  54.7243643  57.9154968
  17.2697377  66.5143871  77.0437098  16.4769638  66.2462950  76.5790939
  17.9012680  65.8186722  76.8610144  39.7775628  97.7443613  20.7239992
  40.1326694  98.6222185  20.8636171  40.3185113  97.1770157  21.2732965
   7.6152384  84.3505383  48.2505703   7.5332791  84.9239922  49.0125799
   6.7124057  84.1620445  47.9944515  47.2659254  20.9705114  62.5802708
  46.3310862  20.7683730  62.5422144  47.6418018  20.5072808  61.8316984
  87.6470343  56.1175680  85.2557850  87.8381984  55.3432560  85.7850552
  88.4187106  56.6744900  85.3586674 104.9557019  80.7639503  71.4088106
 104.0706278  80.6234264  71.0724640 104.8405842  80.8569527  72.3545027
  23.6997318  37.8509188  19.8280227  23.0152845  38.1647277  20.4190278
  23.3496857  37.0363450  19.4672322   2.2365773  45.7695293  65.4800320
   2.7087694  44.9539375  65.6475830   2.7012044  46.4262056  65.9988117
  31.5252518  63.9783920   4.7656709  31.7529326  64.2708494   5.6482011
  31.7883211  63.0583323   4.7429163   1.9685531  20.2239758  16.9200021
   2.7755118  20.0740821  16.4274770   2.0918918  21.0817487  17.3265058
  68.8983156  19.5060355   7.2361452  69.7026759  20.0193459   7.3119623
  68.4107594  19.9279029   6.5286523   8.1367809  76.6366673  66.2308550
   8.9279222  76.4535570  65.7241058   8.1489491  75.9895754  66.9360876
  56.6953166  89.1055001  20.9731561  57.3886403  88.7645234  21.5381986
  56.0045298  88.4442820  21.0160142  90.3845326  20.7162864   9.8379022
  89.5103113  20.8374698  10.2084238  90.8722691  20.2555901  10.5206186
  45.9348631  85.6405067  68.3486748  45.5750656  86.1564445  67.6271582
  46.1239719  86.2835884  69.0319824  47.3089933  29.8433542  73.6080170
  47.5808191  30.3418803  74.3786097  46.6135645  30.3705621  73.2147503
 101.7359648  82.8527451  85.6657600 101.3312564  82.9776669  86.5241528
 100.9989361  82.7095699  85.0720310   7.0057434  55.4917288  50.5001354
   6.9191706  55.2260256  51.4156342   6.7838991  56.4228678  50.4989767
   3.1269571  77.7944374  76.3952780   3.7483323  77.5563288  77.0833397
   3.4287173  77.3150635  75.6236744 102.7298228  60.8914232  68.7392616
 102.3047386  60.3712177  68.0574083 102.8636787  61.7497253  68.3372259
 100.7122437  12.8686244   9.6981317  99.9920527  13.4945685   9.7739774
 101.5002100  13.3906705   9.8491460   5.0461388   3.7164218   4.8704988
   5.2469397   4.1754109   5.6861192   5.1453972   4.3824250   4.1901857
  64.1243987  27.0573432  12.5438386  63.4317533  27.2707278  13.1690866
  63.8676850  26.2090451  12.1822912  20.6047750  85.6295776  19.2709589
  19.7254682  85.5486202  18.9015079  20.9376264  86.4549160  18.9184475
  15.1601028  80.0869083  60.2961397  15.0557673  79.6674776  61.1502028
  15.7811749  79.5280027  59.8291016  11.8056786  78.7973022  62.7369165
  12.7246332  78.5865593  62.5715590  11.8134904  79.7202682  62.9905033
 107.4563841  75.0343752  78.5656643 106.5483109  75.2497053  78.3528996
 107.3947135  74.2542648  79.1168928  12.3084128  72.7788830  48.1677580
  11.4001524  73.0751085  48.2273149  12.5549400  72.9438019  47.2576714
  18.3147180  62.3053408  49.6551657  18.6981428  62.5283623  48.8069487
  18.9840162  62.5529480  50.2931023   2.2623357  20.1927042  67.3904181
   2.0377211  20.3359270  68.3098030   1.4495374  20.3659940  66.9154835
   7.5780714  71.6387224  32.0526290   7.4219191  70.7859087  31.6469717
   7.5088400  72.2635698  31.3308239  30.3793263  37.1768045  61.1635637
  31.1858916  37.6916099  61.1892462  30.6158876  36.3849354  60.6806421
  25.6650949  26.2735868  73.0197144  24.7972322  26.0873151  72.6614523
  25.5020857  26.5053415  73.9340162   0.2821963  95.3460312  62.6065731
  -0.5076227  94.9000740  62.9124165   1.0018789  94.8684597  63.0191422
  86.2006084  70.0935316  72.0244074  85.9023516  69.9061155  72.9144382
  86.7472212  70.8741426  72.1143675  12.4255943  33.4794307  64.8175526
  12.3652053  33.7848473  65.7227039  11.5636480  33.1065059  64.6325922
  36.5059823   6.3416713  70.6783199  35.6208591   6.1338656  70.3789806
  36.4147397   7.1793025  71.1325121  11.5849316  88.1686020  29.7232723
  10.8120847  88.2813835  30.2766418  11.9918251  89.0347195  29.7007179
 101.6564487  80.1136017  64.4435549 101.9199489  79.7481632  63.5990095
 101.6481189  79.3628359  65.0372791  95.4075889  71.3829803  63.5895538
  95.0589411  70.5573225  63.2534456  95.8849208  71.1365747  64.3818092
  40.4476070  59.3988419  34.6132755  39.8144317  60.1123953  34.6918297
  41.2355709  59.8152065  34.2640114   5.7638079  67.0959616  86.3818645
   5.3598094  66.2346888  86.2758923   6.6968441  66.9112587  86.4893818
  33.7101364  40.2035379  55.3238916  34.2871428  40.9230900  55.5798912
  32.8350925  40.4958487  55.5790043  92.6666490  48.2129955  39.2966294
  93.6058990  48.3200550  39.1463661  92.5989680  47.4278021  39.8398805
   8.6754870  60.3114176  72.0026541   9.2289066  61.0441637  71.7323923
   8.0388850  60.2179575  71.2939692  13.2658684  61.6451931  62.9843235
  14.1343439  62.0236063  63.1213760  13.2591963  61.3886499  62.0621634
  23.4871912  68.4234190  69.1499281  22.5930643  68.6377764  69.4160509
  23.9986014  68.4855127  69.9566746  70.0540195  49.1575820   1.9523317
  69.7085927  50.0494868   1.9901163  70.2867709  48.9523227   2.8578359
  89.9976747  19.2041356  19.0413744  89.3728642  19.5885474  18.4264928
  90.3561179  18.4477050  18.5770780   9.2197263  80.0728226  72.2984934
   9.9693072  80.4291725  71.8216610   8.5210401  80.7119560  72.1586132
  42.1294498  35.1019955  64.5392609  42.2796249  35.2165055  65.4776478
  41.2062311  34.8582220  64.4724417  12.6149845  32.0574737  61.1182785
  12.7654839  31.1122799  61.1320877  13.2122719  32.4048138  61.7807245
 105.2001138  90.1126385  47.1957731 105.9474404  89.6236420  46.8513584
 104.8867084  90.6266499  46.4515972 101.7509304  63.8454723  62.2305346
 101.4830558  62.9790306  62.5367308 101.0738288  64.0975237  61.6026497
  18.6092949  73.7867975  52.2856283  18.7443185  74.6477413  51.8896770
  19.1268063  73.8095284  53.0905485  24.0365648  83.4242344  59.0560579
  24.1674924  82.4998093  58.8450241  24.4157267  83.8953209  58.3140707
  31.1018252  72.5076151  38.0265188  30.8004904  73.1549168  37.3890018
  31.7047000  72.9906988  38.5916758  59.4930696  79.5026255  86.6654968
  59.2533731  80.4108143  86.8498039  58.7452030  79.1507864  86.1826611
  14.7482216  56.0305882  36.2791371  13.8798082  55.8314276  35.9292459
  14.5784473  56.5885019  37.0381784  99.6830825  67.1866989  66.6603947
  99.1250501  67.9493904  66.5083122  99.1272835  66.4370108  66.4475822
  97.8234784   8.8852841  15.0144750  98.4857170   9.1044719  15.6699354
  97.9941241   9.4880397  14.2907316  31.6386294 100.3526844  16.4977342
  31.9500732 100.1584972  15.6136972  32.2085204  99.8395313  17.0705587
  13.4814890  97.8664316  10.8573610  13.6510690  97.9232229   9.9170190
  14.0469941  98.5352386  11.2435419   1.1943359  52.2748899  44.5505810
   0.4481301  52.8701067  44.4789934   1.9185890  52.7484846  44.1414356
   7.3910356  51.7772818  65.0940609   7.9194951  51.4122772  65.8037996
   6.6355497  51.1927032  65.0329208  56.3160324  37.3684382  86.5624809
  55.4111862  37.4708962  86.8574142  56.6850615  36.7065525  87.1472454
  12.9218042  35.4284382  63.1822634  12.5759482  34.7106862  63.7127781
  13.4177816  34.9953508  62.4875164  20.0242662  69.0611124  73.6966276
  20.0530553  68.1249571  73.4991026  20.6387091  69.1718149  74.4221878
 103.0260940  60.3603268  50.8943129 102.4736832  60.0133228  51.5947866
 102.7801494  59.8521614  50.1213264  21.1331296  60.2993298  75.3632355
  20.1848006  60.3288746  75.4898500  21.4019608  59.4704914  75.7594490
  30.4720044  55.2519846  62.1967793  31.0570455  55.0109053  61.4785624
  30.6864524  56.1658955  62.3839092  19.9542880  70.3851795  71.2138605
  19.6158731  70.1854849  72.0866871  20.1649094  69.5307064  70.8373594
   6.0525745  71.5188503  66.6989994   5.7413065  70.6167746  66.6241789
   6.2042791  71.7956018  65.7953262   6.9164163  59.1085958  45.9894848
   7.5197130  59.0375853  45.2497387   6.0657966  58.8569307  45.6298399
  99.8823069  57.3867798  55.3592920  99.2113207  57.7790213  54.8005867
 100.2088229  56.6418934  54.8545551  12.1774912  30.1215369  15.0176221
  11.7221356  30.5585868  14.2979890  11.5458298  29.4826705  15.3478986
  19.8490655  62.6318789  63.7916851  20.1553631  61.7779541  63.4863520
  19.0413284  62.4402380  64.2682028 103.1782545  37.1945143  61.8079233
 103.5718755  36.3319564  61.9394159 102.2356329  37.0284605  61.7968559
  32.5033498  45.4902983  38.7743163  32.1586680  45.1446199  39.5976830
  32.3035932  46.4259195  38.8050580  17.3070836  59.6073055  45.8641148
  17.7824128  60.3142452  45.4276133  17.3541200  59.8260355  46.7948008
 106.5185213   4.0150493  38.8859820 105.8315659   4.1883796  38.2423377
 106.6306854   4.8467009  39.3464279  90.5981151  75.5361128  84.6357059
  90.3391973  76.4394093  84.4533730  91.5121619  75.6001902  84.9125576
  56.6712050  21.5865332  20.2823240  57.0531456  21.1255080  21.0291940
  55.8149163  21.1765534  20.1601869  34.0383315  59.5158291  46.7644501
  34.8261523  59.6712971  47.2854090  33.6498070  58.7289762  47.1467352
 107.7582929  14.4638562  57.4497700 107.4769287  14.2751586  58.3450127
 107.4365233  13.7228382  56.9363594  36.6423893  92.4388218  58.2220173
  36.0696149  93.1703281  58.4523726  36.3052440  91.7012882  58.7305546
  10.6070721  54.9598885  81.0644054  11.1315203  54.5183706  80.3963852
   9.7953731  55.1950884  80.6148911   4.2172676  91.0442638  76.0997820
   4.2737919  91.8932724  76.5382147   3.7506378  90.4847145  76.7205811
 104.6248524  34.9516177  62.1941519 105.2441565  34.3400359  61.7958260
 104.4932530  34.6157551  63.0807829   8.7217957  28.6331463  87.4960709
   7.9778802  28.6752629  86.8951988   8.5044396  29.2552423  88.1903267
   3.3898544  55.5566025  56.0623455   3.7946171  54.6900511  56.1008930
   4.0929595  56.1365795  55.7699347  10.0367796  69.2792416  38.2941508
  10.8349586  69.1582918  38.8084602  10.1389933  68.6857033  37.5501776
  50.5784091   9.1842692  30.5428123  51.3469895   9.2852061  31.1043525
  49.8415061   9.1360419  31.1518097   3.1866947  63.0114079  21.1378574
   3.7101775  63.6804914  21.5789080   2.3129375  63.1016874  21.5181589
  34.2113018  55.3082895  64.1235781  33.5050058  54.6651554  64.0622997
  33.8881850  55.9603739  64.7453594  19.9996984  80.0666618  62.6534748
  19.1283810  79.7186279  62.4639654  20.5026984  79.9001932  61.8562841
 103.6738290  37.4722314  54.2804050 103.7886102  37.6988196  53.3575201
 102.7505765  37.2307420  54.3547010  23.6107254  37.8221536  82.2601032
  23.9293623  37.0428538  82.7155113  22.6960611  37.9007292  82.5311184
  38.7087417  36.1758161  72.3719692  38.2834911  36.5949702  73.1201029
  38.7923908  36.8736196  71.7221165  78.4114901  38.2926059  57.5158691
  77.7167789  37.9831648  58.0971193  78.9380948  37.5137377  57.3361921
   3.2527786  75.8236265  11.7275321   3.0643076  75.8648682  12.6650870
   3.8292974  75.0654888  11.6322446  16.9073308  41.3757563  80.2468014
  17.2411311  41.4432192  81.1413765  16.6952908  42.2764254  80.0017166
   9.0943974  79.9416494  63.6726284   9.2786735  79.2972088  62.9892778
   8.8265061  80.7269192  63.1953239  47.7839231  53.3123016  21.9920683
  47.9734612  53.5888577  21.0955071  47.9074430  52.3631716  21.9811201
  37.6368475  95.9326458  73.0754375  37.8200293  95.1212406  72.6018429
  38.2737494  96.5593433  72.7321577  87.7152983  90.0263309  78.1076908
  88.1028871  90.1070786  78.9791775  86.8590347  89.6274471  78.2624006
  87.5431935  27.7823502  11.6519338  87.0402686  27.8947312  12.4585802
  88.0122284  28.6098630  11.5448648  95.9759585  79.0047121  72.7324343
  95.6528823  79.9021626  72.8126335  95.2297239  78.4585333  72.9795313
   8.2972801  88.7995529  59.0659237   8.5225272  89.5813942  58.5617304
   8.9090157  88.1311131  58.7573862  23.5785985  41.9626808  45.8989143
  24.5142031  41.7605352  45.9027052  23.4892178  42.6711845  45.2615261
  98.5121529  28.8625962   0.7350904  98.6717050  29.3553550  -0.0698679
  98.8267509  27.9795081   0.5416757  15.6912625  92.6420784  73.4772491
  14.8226643  92.9768658  73.2543373  15.8805501  93.0201721  74.3359995
 100.5120597  42.5572205  63.5532999  99.9576519  43.2483721  63.9154768
 100.1727657  41.7503452  63.9406872  32.0913053  64.3278074  48.1974697
  32.6028824  64.5572090  47.4216509  31.9450378  65.1621532  48.6432314
   8.6713856  41.2523270  78.0492544   8.9577299  41.9243860  78.6677790
   8.7102455  40.4360008  78.5475874   6.3899046  81.4313602  64.9673939
   6.9730437  82.1686745  64.7869921   6.9244242  80.8223438  65.4769182
  98.2531528  89.6329594  21.7738938  98.3335815  88.9374256  21.1212063
  97.3426012  89.9203682  21.7066646  27.7651048  62.3814583  41.9698906
  27.1519899  63.1006765  42.1217203  28.0346537  62.1074200  42.8465223
  51.2469101  91.5296841  40.2481890  51.0655355  91.7378807  39.3316793
  50.9134102  90.6397247  40.3621721  16.9926246  96.5143932   9.7032339
  17.6271304  97.0780386   9.2605859  16.1405929  96.8318666   9.4040948
   6.7446089  39.7033501  24.6177554   6.0937673  39.4387889  25.2678680
   6.5240067  39.1948962  23.8373446  23.0626345  35.7897091  76.4756632
  23.3808446  34.8954391  76.5991735  22.1573496  35.7667780  76.7857647
  16.3509572  38.5403943  68.3238220  17.0985997  38.3293653  68.8830471
  16.5989137  38.2135248  67.4590063   5.0745857  38.3484960  26.3156414
   4.3165013  38.9320207  26.2834406   4.9476165  37.8346682  27.1131968
  18.8076985  62.5965548  68.1781912  19.4463682  62.7146578  68.8813162
  18.0567217  63.1266022  68.4452343  14.0669656  38.4495115  35.8519459
  13.6958504  37.8977156  36.5404391  14.4235277  39.2060590  36.3174891
  66.7394702   4.0351779   4.7289163  66.1854432   3.5043485   4.1566354
  66.9617609   3.4523446   5.4549486   9.8478401  67.6724148  43.4057665
   9.5742023  66.9487333  42.8421688  10.6126714  68.0429840  42.9653788
  40.8092546  50.7164669  24.2440534  40.7936382  51.4671803  23.6504078
  40.4903984  49.9856520  23.7144566   6.9297105  48.0346537  71.5205002
   6.2861603  47.3332787  71.6212463   6.4677560  48.8253975  71.7989874
  16.6312802  60.4981756  56.1460972  16.3261592  59.5961905  56.2438726
  17.4548948  60.5265236  56.6330147 100.6717400  46.8977642  30.6699657
 100.4041235  46.8879986  31.5889430 100.2750127  46.1107206  30.2965975
  14.8635042  38.8249850  72.5507307  13.9085042  38.8741112  72.5930977
  15.1545990  39.0564108  73.4327412  20.2952933  76.7539454  26.9208908
  19.4417465  76.7835617  27.3531103  20.5801892  77.6672602  26.8905044
  48.7736805  98.5715355  18.3445722  48.9805218  97.8627457  18.9537221
  49.5520314  99.1286196  18.3521253  86.4470331  43.9692831  11.0481453
  85.5141703  43.8590622  10.8641624  86.8370096  44.1691875  10.1971531
  95.6332819  86.7750072  63.3447981  95.9659938  85.9573841  62.9746294
  96.4188127  87.2808266  63.5529518  22.0281768  25.4644918  75.1361179
  21.7382312  24.6559286  74.7137547  22.6240063  25.1737237  75.8265352
  38.4098577  54.8820162  37.0988750  38.2156229  54.3390799  36.3348556
  38.8401055  54.2866802  37.7126288  77.1589176  77.2443676  72.0300150
  76.7661111  76.7721176  72.7641296  76.4706914  77.2688293  71.3652039
  89.9950234  89.1377354  17.9499817  90.3471951  89.9604321  18.2896554
  89.2179565  89.3962955  17.4544561  31.8888617  60.1893759  57.1691322
  31.2432170  60.5489588  57.7774763  32.6896214  60.1120758  57.6878262
  25.3472900  68.0866289  60.0768518  24.9261189  68.6461735  60.7293510
  25.8473730  67.4531603  60.5915070  16.4927483  83.6162567  55.0038242
  17.4329758  83.6874104  54.8390770  16.3166976  82.6755905  54.9844265
  75.2611868  81.7500496  17.7898538  74.7339217  81.1878490  17.2222710
  75.2675287  82.5987434  17.3472357  30.9609699  80.9486771  75.3227472
  30.3215098  81.3368607  75.9199333  30.9696722  81.5355968  74.5666504
  23.0578276  90.1905240   2.2431165  23.7281176  90.3894724   1.5893919
  23.3585032  90.6331219   3.0368024   8.4710634  74.6920681  52.5968647
   9.3561602  75.0139761  52.4259472   7.9291666  75.1167727  51.9318771
  25.5828023  35.4962230  54.6709728  25.5516100  34.6916485  55.1885843
  26.1233354  36.0931158  55.1884413   6.1611992  57.9138279  50.2845907
   5.5837852  58.3618402  49.6664429   5.8112216  58.1400156  51.1463261
  28.4889722  47.5710154  55.1600313  28.8543653  48.4277678  54.9393606
  27.5424647  47.6849842  55.0742102 103.5267682  28.8650012  77.0534039
 103.9095352  28.0651832  76.6928339 102.6073901  28.6443543  77.2027016
  38.5979795  53.2388592  43.7616158  39.3910408  53.5092735  43.2988405
  38.4876013  53.8940144  44.4506931  35.1508427  21.4967823  39.7114015
  35.3886271  21.5402913  40.6375742  34.3051434  21.9421887  39.6600676
   6.8923074  33.1985569  40.8808708   7.0617306  33.7838578  41.6190767
   5.9725642  32.9515409  40.9772444  22.9099202  77.0561743  77.6181936
  22.4531007  77.4729443  76.8875408  22.3770928  76.2890291  77.8275204
  31.7530894  51.0446835  67.8920507  32.6329279  51.1940527  68.2381773
  31.8355680  50.2517748  67.3622131  11.3319802  99.5150280  52.0683432
  11.3584602  99.7392464  51.1381483  11.2136185  98.5652733  52.0825052
  37.4898887  46.8379259  57.7653074  38.2999802  47.3380947  57.8643560
  37.7777600  45.9683132  57.4875736  17.2917330  35.1217937  17.8135920
  17.2790647  35.9392905  17.3158288  16.6780722  34.5505834  17.3516703
   3.9897510  75.0009632  64.9362946   4.6061015  75.3705597  64.3040419
   3.1416416  75.0385714  64.4941092  31.0849667  76.3009501  70.6588173
  30.9423923  77.2474670  70.6555033  30.3636813  75.9519243  71.1824226
  15.7615447  58.7259960  64.0971947  15.7645702  58.4658098  65.0183487
  16.3300657  59.4953489  64.0637541  24.5914674  94.9177551  60.7651281
  23.7217832  94.9262619  61.1648893  24.4884586  95.4200649  59.9568558
  38.8544512  68.5844946  40.9218407  38.9564586  69.3880653  41.4318419
  39.3419075  68.7495375  40.1147604  17.4018335  74.6966457  48.7488556
  17.3836553  75.0937176  49.6196222  16.4837492  74.6678019  48.4795570
   3.0507752  36.4420438  14.8040378   2.3319963  35.8240557  14.6710730
   3.2946047  36.7194271  13.9209545  66.6948191  68.3304977  35.1699710
  65.8988635  68.4757233  34.6585011  66.6579692  67.4053669  35.4128838
 107.8885465  43.6440086  76.1436558 106.9792772  43.3628273  76.2456322
 108.1339313  43.9786720  77.0062208  98.2631437  63.1422853  48.1820631
  98.4581117  63.4152603  49.0785599  97.5616829  63.7293911  47.9001188
 106.8487069  40.2897882  76.3287258 106.0311468  39.8900676  76.0319901
 107.5341267  39.7936678  75.8811808  18.9427984  60.4316711  80.3670406
  19.7804213  60.8948612  80.3582954  18.9932323  59.8599577  81.1330891
 101.0007552  32.9035449  22.4886131 100.1320187  32.5047779  22.4384689
 101.5206323  32.2818303  22.9979587  23.3788919  70.1332617  58.3580160
  24.2264891  70.4505634  58.6696768  23.5672688  69.2706919  57.9882622
 105.0369973  69.1961813  47.9142189 105.1121015  68.2419968  47.9029942
 104.9155174  69.4376898  46.9959879   3.6492237  66.2116480  68.8092327
   3.1223065  66.8481970  68.3261204   4.2237416  65.8253717  68.1482077
   9.2036062  38.5550189  63.5262632   8.7654406  39.1002035  64.1797304
   9.9060446  39.1083694  63.1847715   6.5408814  46.5595484  50.2075434
   5.8909315  47.2499418  50.0765753   6.9412959  46.7647028  51.0524178
  34.3466687  97.2865677  68.2594585  33.3911014  97.3330784  68.2904530
  34.5373511  96.3565445  68.1372690  20.6935430  38.7101912  62.3697662
  20.5825329  38.2648635  63.2097626  21.5119433  39.1977096  62.4634457
  82.2222893  20.2961928  14.6218092  82.8969888  20.8163173  15.0582487
  81.5242110  20.2155787  15.2717477  99.5287220  29.8375869  43.2333040
  99.1201238  30.6130052  43.6180210  99.0036557  29.1051698  43.5559511
  26.9546247  70.5026913  84.7517300  27.4625111  69.6918774  84.7222519
  26.1931276  70.2888441  85.2908230  69.7437517  69.5842743  62.7176905
  68.8252990  69.7705317  62.9125834  69.7336070  68.7092447  62.3298073
  76.5554713   0.4024588  66.3232082  75.6211602   0.4979311  66.1383313
  76.7685254   1.1549173  66.8751543  12.3968017  46.1976290  34.7952032
  11.9196272  46.9009590  35.2355003  13.1860423  46.6196394  34.4557333
  72.7585944  82.4954618   6.1856443  72.7033528  83.2937087   5.6603033
  72.2552117  81.8483104   5.6916505  82.2444527   2.8911263   4.5073396
  82.8128759   2.6074368   5.2233297  82.7193002   2.6462323   3.7131197
 100.8683769  68.5449505  42.7547550 100.1006852  67.9766941  42.8177023
 100.8171092  69.1035700  43.5303497   3.5527608  51.3625336  68.7281609
   4.3541494  51.3293839  68.2057571   3.8572678  51.4971256  69.6256018
   2.4433497  38.6103845  78.4349346   1.7775467  38.6887264  77.7517080
   2.8252992  37.7433038  78.2988596  29.1492804  40.5816628  13.4296209
  29.0382584  39.8435010  14.0288049  28.3676215  40.5616380  12.8775007
 102.8189055  27.1838522  63.8000298 103.6549149  27.4090934  64.2081785
 102.5021033  28.0087352  63.4320068 102.4045233  46.0283947  83.9582348
 103.2219694  45.6736660  83.6086845 102.4931506  46.9763422  83.8593769
 105.1948426  59.0480709  69.7017622 105.2927775  58.9984083  70.6526423
 104.6172218  59.7979307  69.5593119 106.7238289  63.3562565  47.0416069
 105.8952510  63.1889009  47.4906969 107.0318654  64.1850471  47.4082899
  25.3833040  97.0332397   0.7724458  25.2497419  97.3091806  -0.1343268
  26.3262471  97.1194805   0.9126359   2.2749664  45.3015137  78.3641291
   2.8824329  44.5666933  78.2789516   2.7533215  45.9489202  78.8820791
  40.8364620   5.2643435  74.1191101  41.4938565   5.5395835  73.4801197
  40.6284576   6.0611098  74.6071005  22.9980302  50.7744646  59.1461611
  22.4191141  50.3749084  59.7953463  23.6280990  51.2760019  59.6635628
  14.1694629  83.9629555  49.8246670  14.5284271  83.7599754  48.9608526
  14.5587206  83.3092022  50.4054546  80.7273803  37.6793105  12.0379812
  79.8471467  37.6606948  11.6623861  80.9572790  36.7575652  12.1552831
  10.1969337  52.2114134  72.9811478   9.2683965  52.1505880  73.2055378
  10.2041805  52.4649715  72.0581722  38.2173204  85.1532269  57.9471350
  37.6009393  85.5921650  57.3609304  38.3463621  84.2893219  57.5556660
  17.8749919  81.6267872  63.3007479  17.8142774  82.4362373  63.8080263
  18.8150477  81.4708710  63.2100916  10.1702762  93.0216980  79.0045452
  10.8345747  92.5634384  79.5192575  10.1256907  92.5337696  78.1822491
  11.0046160  58.7670469  63.9065409  11.6704059  59.4228935  64.1134691
  10.6447113  58.5145712  64.7568083   5.5520499  92.5774670  22.7649236
   4.7790343  93.0454159  22.4491644   6.1928368  92.6703739  22.0599461
   5.5702686  80.6755733  61.7036247   5.3243774  80.7478237  60.7813740
   6.3258904  81.2558270  61.7962074  10.3489673  95.1233006  56.7402935
   9.6434826  94.7411251  56.2183142  10.0126386  95.1200485  57.6364565
  43.6912823  93.0038357  52.2583342  42.8898239  92.9780865  52.7810526
  44.3068933  93.5099220  52.7885532  18.6869097  74.7632456  41.9369841
  18.9652753  74.2000914  42.6592016  17.7965200  74.4741583  41.7373085
   2.7770051  65.4867125  22.4557424   2.2552218  65.4086065  23.2544136
   2.1358433  65.6619310  21.7669463  30.3687835  65.3407526  79.1652203
  31.3012671  65.1397228  79.2445564  29.9431181  64.4851494  79.1105938
   7.3187524  74.6681023  76.0612679   6.5569884  74.3200111  76.5247059
   7.6987368  73.9081907  75.6203842  37.0284581 101.0456944  61.2301588
  37.7343011 100.9214211  60.5956697  37.4401379 100.8894539  62.0800638
  52.1714910   1.4647239  78.7504864  51.9331344   2.1488803  79.3760586
  52.7123245   0.8569282  79.2547846  36.7803836  88.1279850  68.8828802
  36.7388892  88.4216595  69.7929716  37.3816371  87.3833466  68.8986683
  19.0594065  65.2659559  25.3294706  18.2741868  65.4747152  24.8234248
  18.7461495  65.1695061  26.2288022  36.8911982  96.9162273  49.1676617
  37.0325422  96.6875744  48.2489824  37.0330787  96.0974884  49.6428204
  41.8467379  52.1748829  51.5994263  42.0938301  52.7788687  50.8991575
  40.9851551  51.8478107  51.3406992   7.6946062  89.3905258  66.0581827
   8.2746249  89.5262718  65.3089285   7.4316311  88.4723759  65.9942389
  47.8145989   3.8176578  67.3135948  47.9109319   3.9410537  68.2579088
  47.0091637   4.2849486  67.0919180  43.0282736  72.8219080  58.3726788
  43.4676218  73.4742594  58.9182377  42.1677685  72.7117252  58.7771749
  18.3723807  63.8806677  37.4115801  18.5616648  64.7552586  37.0717382
  17.7766454  63.4973288  36.7678523  55.6554842  66.2508011  54.6013451
  55.8369684  65.6110287  53.9128780  55.2265739  65.7448292  55.2914667
  15.5344188  89.0772724  73.1361008  15.3887534  88.2276535  72.7199745
  14.9930334  89.6860504  72.6335859  17.7326274  84.7264385  69.8819256
  17.0923364  84.3944168  70.5112267  17.7891123  84.0427589  69.2143774
  41.0386705  93.0774879  53.9406872  40.5552101  92.2835732  54.1691351
  41.6358089  93.2142639  54.6761799  72.2969226  41.1005885   8.8023073
  71.6524802  41.5789515   9.3239290  71.9295268  41.0901362   7.9184801
   8.8273126  63.3866024  66.6576052   8.0803031  63.4566402  66.0632133
   8.4991449  63.7154818  67.4944925  31.2376714  75.2485847  27.9640794
  31.8893719  74.7651482  27.4563313  31.4735317  75.0822306  28.8767290
  83.3380890  93.2466984  32.0842123  84.2666626  93.3127689  32.3069406
  82.8867054  93.6812305  32.8078651  59.2345381  93.9921951  54.9606991
  60.1167297  94.3397903  55.0916576  58.8258314  94.6015453  54.3459749
  93.7514464  83.0923939  51.1295700  93.7663452  83.0518532  52.0857954
  92.8783969  83.4225559  50.9174156  38.1108236  69.6108341  76.3163853
  37.6275015  69.4851303  77.1329784  39.0316653  69.5787573  76.5757179
   2.4327984  71.8181324  67.2872925   2.8346485  71.0934019  67.7663755
   2.4896814  72.5622463  67.8866959  53.9775427   7.0103591  60.3518581
  54.6266731   7.6413863  60.6627655  53.5669025   6.6764968  61.1494446
  55.5549288  93.4191608  66.5102291  55.5966902  93.3405113  67.4632740
  56.4106750  93.7681580  66.2609720  76.6242032  23.8566548   7.9357702
  77.4849258  23.5284430   7.6756460  76.0646836  23.6888368   7.1774751
  20.1929402  82.9041862  42.5122547  20.8221650  83.5116005  42.9012918
  20.4619575  82.0431137  42.8322744  50.9892066   3.1941169  80.5337429
  51.2833317   3.9528315  81.0378075  50.3430339   2.7682155  81.0970306
   8.5998112  97.4757767  53.4672213   8.2849258  98.0787468  52.7937937
   8.6121583  96.6210175  53.0365610  36.2667918  79.7483635  32.7854657
  35.6340051  79.6915865  32.0695114  36.0651922  78.9971876  33.3434343
   1.6039807  77.5707483  71.9721889   0.8660484  78.1039429  71.6765738
   1.8209717  77.9202652  72.8364754  14.4618273  76.0018969  45.0328064
  14.9550354  76.1576271  44.2273712  14.9777210  76.4298964  45.7161093
 105.6655539 100.9440422  68.5179806 106.5855762 100.7183933  68.6553574
 105.5758388 101.8211365  68.8906479  10.4802215  96.8762302  51.1616707
  10.2104127  96.0119820  50.8509970   9.7010410  97.4223042  51.0572147
  99.8748193  47.4336815  86.5774250 100.4028485  47.5337458  87.3695087
 100.0243483  48.2415342  86.0862446  32.4480391  67.0985794  40.3444195
  33.1809187  67.6556396  40.6067228  32.7640581  66.2058067  40.4834318
  31.7879605 101.7057419  55.4324675  31.5517974 101.1408234  54.6967220
  32.5657368 101.2948513  55.8099079  73.1925233  23.2135302   6.8257791
  72.9296300  23.6122901   5.9962541  73.3965401  23.9559991   7.3944170
  17.1088922  78.5922670  79.8196411  16.6751826  78.7694597  80.6543446
  17.1652055  79.4471550  79.3927622  90.8534638  35.0755548  82.1683884
  91.1136774  35.9845257  82.0190716  91.5521197  34.5576477  81.7685318
  11.9382179  93.2514668  24.1727161  12.8543627  93.0150795  24.3177366
  11.8099582  93.1459141  23.2300377   5.4430491  74.7103643  55.4303646
   5.2352202  73.7969017  55.6268787   6.3503093  74.6894360  55.1259422
  27.7896976  51.2467384  73.3521461  26.9413114  50.8220816  73.4791946
  28.3429313  50.8891201  74.0466070  28.6377239  62.5479794  70.8349037
  29.4601870  62.0775604  70.9708929  27.9632044  61.9480610  71.1532593
  51.8603849  98.9729404  55.7090139  52.7832222  98.8111973  55.9050941
  51.7794991  99.9267101  55.7072163  32.7366638  68.7914896  62.9795599
  32.1654439  69.5498085  63.1015778  33.6197090  69.1594982  62.9474354
  30.4982328  81.9204521  48.3127117  31.1272907  81.7696953  47.6071644
  30.9293103  81.5771198  49.0953541  28.1075478  30.6088740   0.7790548
  27.2564745  30.5311591   0.3479368  28.4899998  31.4059550   0.4121477
  42.9277277  68.4832764  55.9034729  42.7794790  67.6949167  56.4257193
  43.7315512  68.3006144  55.4169226  73.8936710  81.8205738  50.5609941
  73.6047125  81.3894176  51.3652563  73.5692167  81.2580204  49.8577881
  35.9632730  78.9541006  55.4671431  35.7712626  79.4032288  54.6439505
  35.7292342  79.5873356  56.1457253  90.1507739  50.2901268  52.4516296
  89.4611828  50.5842209  53.0467796  90.0622825  50.8556461  51.6844320
  30.6818867  57.2068167  58.3552837  30.6316018  57.9005766  57.6977110
  30.9646702  57.6532984  59.1533566  80.4258307   3.4075778  48.2652664
  79.9135073   2.6977580  48.6524487  80.0898274   4.2007487  48.6826563
  81.6595801   2.3740905  65.3447151  82.2566279   1.6273253  65.3906536
  82.2286280   3.1259101  65.1798296  39.1730404  62.5277424  46.8419981
  38.9341807  63.0385828  46.0685492  39.1413069  63.1561995  47.5632906
  37.0547271  70.2849293  69.7945595  36.3036585  70.5094051  69.2452526
  37.0420647  70.9366083  70.4955482  60.1028164  13.0316108  71.3069296
  60.6101426  12.5815337  70.6314468  59.9854954  13.9187377  70.9671164
  26.8173647  61.5394020  47.4447489  26.8597364  61.3771296  46.5023518
  25.8846927  61.4907122  47.6544714  69.1443475  18.8799708  74.6510410
  69.6135505  19.6592086  74.3529272  69.7155865  18.1501906  74.4115877
  26.0531402  71.2100983  48.0409050  26.6440535  71.4919138  48.7392139
  26.3596320  71.6782665  47.2642994  46.9209441  19.7962516  84.5018768
  46.7225095  19.1156619  85.1450443  47.8524431  19.9785083  84.6256828
  18.4532487  64.4487858  65.7670403  18.1373954  64.5411587  64.8681879
  17.8940952  65.0334358  66.2786674  96.6105549  55.9740210  58.7003899
  95.9265343  55.6922197  58.0929899  96.1549596  56.0991049  59.5328712
  52.2052860  64.4940662  58.5688829  51.7159128  63.8483620  59.0785980
  53.1190014  64.3517590  58.8160801  26.3116097  77.0972633  43.4741449
  26.7201328  77.4926567  44.2442179  26.2315297  76.1694145  43.6953163
   7.3168123  86.9357300  27.6647806   8.1377834  87.3505783  27.3999333
   6.6348696  87.5004482  27.3010778  55.5198201  11.3056128  64.7831774
  55.4940876  12.2263759  64.5228815  56.3691886  10.9924357  64.4721699
  19.7338533  48.8646507  83.3340645  19.4172812  47.9617310  83.3065605
  19.0514088  49.3435097  83.8043785  62.0735796   3.0422061  63.9748240
  62.8108128   3.0276149  63.3644915  61.7143115   3.9258616  63.8953543
  25.7117915  91.3172531  68.6559820  26.4875937  91.5281105  68.1364584
  25.0306487  91.8972111  68.3155060 101.0501872  77.5202942  65.5854273
 100.7841865  76.8844557  64.9212122 101.9842617  77.3555374  65.7142353
  14.4896448  66.1146212  76.3200998  14.3280530  66.7350245  75.6093073
  13.8461947  65.4195070  76.1822033   9.2699599  70.5007362  35.4676962
   9.8214692  69.9931192  34.8723888   8.9473557  71.2272406  34.9344492
  88.4189908  73.6306858  34.9498010  88.8948325  73.0084705  35.4999423
  88.5860936  73.3355284  34.0547085   3.3226967  50.0793177   9.9948770
   3.2689929  50.5869014   9.1851121   3.4502030  50.7349688  10.6805212
  20.2923465  90.6498051  85.8964348  19.6011424  90.9747791  86.4733791
  19.8248243  90.2760792  85.1494503  32.0022678  72.9519844  64.4145727
  31.4948392  73.4500122  65.0554419  32.7944636  73.4720993  64.2798948
 103.2867564  73.7672997  74.9336863 104.0441970  74.0010262  75.4702377
 102.5496624  73.7732935  75.5443335  48.9138365  93.9883900  80.8552837
  49.0942192  94.8255920  80.4277420  48.0430984  94.0974045  81.2376022
  77.9108151  17.8284781  83.9266968  77.9511794  17.8208774  82.9703808
  78.7984379  17.6037066  84.2056847  28.2684898  83.3282852  81.4864922
  28.2847047  83.4607697  82.4343395  28.8941860  82.6203728  81.3328648
   3.7466478  26.5253329  79.1407156   4.0430507  27.3181963  78.6937857
   4.5091403  25.9467340  79.1329241  31.1628914  86.9457436  38.6602616
  31.4328837  86.4159203  39.4103479  31.7197251  86.6453171  37.9419875
  38.3274007  90.5225277  67.5006437  38.6060691  89.6856308  67.8723621
  38.8908815  90.6447220  66.7365789  67.4629116  66.4979410  38.4687281
  67.4759865  66.8092680  39.3737912  68.3430529  66.6807318  38.1398273
  11.7395055  65.5050659  73.5582876  11.9529712  65.1222277  74.4092274
  10.8658469  65.8780718  73.6758471   3.1785271  81.8000507  56.6567087
   3.7607095  81.2675095  56.1147785   3.2025802  82.6676369  56.2530279
  18.4583819  82.5838089  30.7317162  19.2657089  82.2072887  31.0819793
  17.7586985  82.1247101  31.1963654  41.9879293  79.4961405  54.0705252
  41.1992550  79.9842072  53.8338423  41.6606855  78.6685371  54.4229794
  48.9801522  14.4580405  57.2854471  48.4745058  14.2260497  58.0643749
  48.8576027  13.7178081  56.6910887  92.5093822  87.6472282  69.2549181
  91.8748276  87.8312492  69.9475241  92.7708332  88.5103321  68.9341116
  36.6390371  62.4764824  37.5171852  36.9437933  63.1153107  36.8727803
  35.6951976  62.6253223  37.5741386  49.9900055  96.5857124  74.9067879
  50.3185034  96.8519783  75.7655191  49.0379524  96.5801525  75.0057364
  22.3591709  81.3142967  81.1503410  22.5309491  82.0543766  81.7325783
  21.7201447  81.6481686  80.5207348  15.6580877  75.6208181  29.9805522
  16.0010958  74.8554659  30.4418683  14.8871267  75.2949381  29.5161676
  35.8346152  76.6838694  41.2015057  36.1523533  76.7386770  40.3002453
  36.6290641  76.6294861  41.7326593 101.7227801  -0.1064164  73.3389997
 100.8147629  -0.3977735  73.4217882 101.6949519   0.5768722  72.6692486
 105.8913812  69.3272448  69.4339323 104.9964629  68.9912176  69.3845415
 105.9386402  69.9855614  68.7406683  32.5705314  97.6086712  64.0818691
  31.9742441  97.5947571  63.3332157  32.0007896  97.7419281  64.8394108
  81.7513494  35.1194770  12.2735292  82.4336068  34.9157912  11.6337854
  81.1512695  34.3750674  12.2289449  54.3931198  93.1346607  43.7137461
  53.9046812  93.9413261  43.8778782  54.4140339  93.0571938  42.7599192
  84.1396721   6.2829249  67.8720284  84.5879754   6.9325679  68.4135246
  84.1635140   5.4798644  68.3923626  33.4276557  96.5202713  59.0421724
  33.2568693  97.3233318  59.5342731  32.8438544  96.5742779  58.2855415
  41.4490366  87.3429394  54.2701530  40.5049038  87.4690723  54.3646860
  41.8370247  87.9795456  54.8705053  33.2658362  54.6910763  82.1806335
  33.1668711  55.4598093  81.6189480  33.4917831  55.0491762  83.0390835
  89.3528326   4.6106856  73.8633776  89.8678072   5.1192611  73.2369709
  88.4850224   4.5473044  73.4644794  91.2684600  85.5008698  68.3139372
  90.7036774  85.3453255  69.0709448  91.6695241  86.3529205  68.4853888
  96.0806958  52.0997245   9.6833307  95.8850376  52.4202353  10.5638010
  95.2636878  51.6981608   9.3875677  80.4195486  31.8906981  14.1102106
  80.0371901  32.6048667  14.6201211  80.4734294  31.1593158  14.7253591
  98.9605598  61.7830849  55.3065920  99.0324811  60.8319330  55.3864145
  98.2760273  61.9173479  54.6511364 106.6101044  70.5079079  78.0875969
 106.2448410  71.2442255  77.5970364 106.4340235  70.7199097  79.0042639
  46.6257080  13.1005996  72.8856373  47.2615167  12.4833911  73.2476139
  47.1533402  13.7196296  72.3810101  40.4383659  88.8669682  68.0537367
  40.7611132  88.7256813  67.1637297  41.1837959  88.6545277  68.6153746
  85.1353018  54.2048168  57.0713425  84.2713539  53.8045263  57.1692848
  85.2298586  54.3428659  56.1288786  36.1327362  91.0375690  86.9729805
  36.8742490  91.3605213  86.4610291  35.8771658  90.2243233  86.5376091
  12.9805470  68.9035463  28.9349842  13.7293768  69.4540310  29.1640115
  13.3692420  68.0749512  28.6546755  94.1969260  15.8921473  46.4768171
  94.7586163  15.2242988  46.8701649  94.5560988  16.7221682  46.7903233
  29.0043378  58.5343361  61.5702868  29.5799494  57.8034735  61.3450193
  29.5976257  59.2726517  61.7085934  33.7444687  72.1778107  71.3932371
  34.0124321  72.9171038  70.8474588  32.8498912  71.9848251  71.1126709
   3.5588315  96.1577034  74.8384333   3.4150600  96.8512630  74.1945839
   4.4185430  96.3519573  75.2117872  11.0015488  61.1942196  84.8502159
  11.5511835  61.0987663  84.0723801  10.2226269  61.6547203  84.5380402
  38.2749176  99.5142651  87.6237392  38.2628536  99.1343212  88.5022163
  37.3696423  99.7824669  87.4663258  21.5348911  63.1765032  76.3431025
  21.4514375  62.2983027  75.9715700  22.2154665  63.5956860  75.8164787
  31.4800596  48.8359976  83.2455730  31.6615129  49.0669775  82.3345470
  31.4004755  49.6775103  83.6947346  47.1813440  58.5215902  64.0892267
  46.2266159  58.4883213  64.0289927  47.3949528  57.9489422  64.8258924
  28.1393361  59.5373201  77.5430393  27.2404170  59.8104334  77.7263021
  28.1402993  59.3277836  76.6090536  93.4388320  55.5921656   1.1830884
  93.7437407  56.2469680   0.5549985  92.6067631  55.2845866   0.8235151
  43.8607788  50.2519131  51.2189150  44.3936920  50.5378389  50.4769707
  43.1904507  50.9294367  51.3075399  32.9383945  69.0714121  47.1160650
  32.5992966  68.8741159  47.9891777  32.1580482  69.2453432  46.5897226
  53.1767615   0.2584308  48.6718416  53.8237329   0.8776706  48.3338976
  52.4609812   0.2896254  48.0370855  36.5494251  72.4805546  49.6048927
  36.4406848  71.6953421  50.1414108  37.4485517  72.4267054  49.2810059
  95.9322373  88.0800629  56.4420176  95.6679503  88.8105297  57.0013094
  96.6499988  88.4300232  55.9142113  24.7720909  80.7134151  80.1101780
  23.9393878  80.6867981  80.5814743  24.9050736  81.6401863  79.9110413
  40.6799030  96.4436150  60.9644079  41.1671686  96.6935444  61.7494774
  41.3229513  96.4941406  60.2571821  18.5981762  58.4215784  55.5113697
  18.1854391  57.8968430  54.8254204  18.5305882  57.8819466  56.2990665
  36.5425396 101.1633682  35.9555244  37.2168684 100.5852318  35.5987763
  36.5253377 100.9624577  36.8912435  77.4739305  81.7902088  58.7447357
  77.7140061  81.3010120  59.5316792  78.1935279  81.6299248  58.1342316
  73.7053641  28.0045264  67.2355700  74.2825564  28.2304900  66.5061712
  74.2365249  27.4373382  67.7944946  67.0442949   9.4986255   3.3363134
  66.3411431  10.1392276   3.2293588  66.7410217   8.7277753   2.8566820
   3.3308157  69.0168381  77.9965830   3.2501251  69.3793297  78.8788080
   4.0811515  68.4247923  78.0486059  64.9114402   6.6947406  76.2489367
  64.3176802   7.4329036  76.1118412  64.9736269   6.6108935  77.2004271
  27.2789955  60.1539993  74.8677635  27.6058173  59.8087263  74.0369749
  27.8041196  60.9388781  75.0240993  16.5133703  82.3256493  78.6845922
  16.3006079  81.8361378  77.8900242  15.9603679  83.1057072  78.6406374
  71.0235882  81.7451954  61.9364357  71.9722605  81.6471672  61.8549252
  70.8947706  82.1089172  62.8124189  59.9005890  80.0578213  73.4262133
  59.0003872  80.3661728  73.5301018  60.0237513  79.4330883  74.1408968
   9.7897696  43.2706118  65.6356525  10.2634001  42.5390530  66.0315418
   9.6359146  43.8766146  66.3604450  24.0215540  72.0533609  53.5812759
  24.1789961  72.9489565  53.8801956  23.1975079  72.1039057  53.0968952
  53.0199528 100.9543896  75.4319572  52.6377010 101.1896706  76.2773895
  52.5674677 101.5136814  74.8005486  17.5133657  73.6100435  76.8009520
  17.2477376  74.2922640  77.4175978  17.0358455  72.8308105  77.0855570
  64.1132689 101.8465519  81.8906784  64.6062565 101.2291336  82.4310493
  64.7315645 102.1177006  81.2121391  28.8467336  94.4703388  58.6062765
  29.7158098  94.5111752  59.0053654  28.8142228  95.2300549  58.0248833
  51.1224755  14.2394393  35.8115268  51.1294528  14.3719142  34.8635626
  50.2603980  14.5483058  36.0901904 107.8711478  50.7104213  13.3387548
 107.0525376  50.3191192  13.0337984 107.6180808  51.2323005  14.1002256
  16.5821218  64.9129629  68.2660770  16.9268906  65.3617096  69.0380812
  15.8434379  64.4015455  68.5962725   1.4885531  61.7259979  78.8062954
   0.9404868  62.2920656  79.3498278   2.3290202  61.6958380  79.2633963
   9.3362367  83.1554699  38.7202764   9.7340566  82.7815056  37.9340696
   9.2714155  84.0920448  38.5335898  98.6995683  82.0752621  64.9281168
  99.4012765  82.0504093  65.5786705  97.8936724  82.0521450  65.4440928
  37.9005456  55.2992868  49.2624474  37.6752639  55.7347775  48.4403610
  37.6729155  54.3809557  49.1172266  31.5639900  17.8526919  41.6071796
  31.4858853  17.5607245  40.6989479  32.4753871  17.6738589  41.8387127
  64.6548080  61.8182087  46.7720032  64.6468306  62.7392054  47.0326328
  64.7901344  61.3391018  47.5895500  16.5405023  93.8702393  70.8530617
  16.3323808  94.0368366  71.7723894  15.8181787  93.3265018  70.5386925
  42.6789618  28.1927688   1.3123971  42.5852776  28.0968625   2.2601682
  42.7550411  27.2957093   0.9872419   5.2377504  85.0469971  39.2438626
   4.2867804  84.9385548  39.2325354   5.5271447  84.7119522  38.3951998
  40.0784206  65.0606203  55.4239511  40.0518179  64.4671488  54.6734095
  39.1746330  65.0905228  55.7378054  59.5056208  10.9060138  59.2231274
  59.4137844  10.0550979  58.7944841  60.3401812  10.8508723  59.6886396
  16.9461461   7.1524375  73.0085230  16.5594586   6.7693274  72.2211695
  17.8654428   6.8876117  72.9770756  22.3199248  80.8511543  67.7587366
  22.6277828  81.7382717  67.9443979  21.7224002  80.9550667  67.0181990
   7.3935467  71.7680502  19.9483788   8.1463587  72.2590685  19.6191227
   7.6943880  70.8598423  19.9781203  30.1215696  60.4858351  64.4629717
  29.5615292  60.1099825  63.7837648  29.7686791  60.1400757  65.2828217
  28.3620596  64.4333315  35.1045322  29.0304899  63.8710976  34.7129726
  28.4729719  64.3158960  36.0480022  22.4168038  84.5213985  72.5372791
  23.2424593  84.9377632  72.2899675  22.0873141  85.0540829  73.2611036
  61.2589455  69.2648315  76.5366220  60.7508373  68.8179874  75.8595800
  60.6282377  69.8411942  76.9681835  17.5485647  73.3188438  72.2120619
  17.9902482  73.8687372  72.8591824  17.4396443  72.4744987  72.6496077
  92.4331812  77.0213032  62.0958900  92.8472595  77.8302479  61.7952728
  92.6595799  76.9670391  63.0243492  14.0999496  47.9916191  70.7173872
  13.4999216  47.3536396  71.1036205  13.6868119  48.8392258  70.8820629
   7.4785179  72.8026390  34.6899438   7.7154475  72.6439142  33.7762141
   7.5744569  73.7484741  34.8014283  33.4785604  70.9910822  51.4339876
  32.5258136  71.0748053  51.4726543  33.8055325  71.8499231  51.7017794
  14.7045803  87.4181461  59.0669298  15.0988162  87.8406048  58.3038187
  15.4138207  87.3717213  59.7080612 104.6686838  35.5287719  73.3763742
 105.0231857  36.1895394  72.7814388 103.7903489  35.3504348  73.0402851
  24.0579295  73.8404608  58.3537579  23.1188655  73.6627054  58.4066153
  24.2743587  74.2376852  59.1973209  49.5686960  72.0316792  65.4302979
  48.9163971  72.2490454  66.0962534  49.7060013  71.0894394  65.5280781
  26.8366122  72.7523661  67.8741789  27.1839309  72.3681116  67.0692253
  26.0480094  73.2183218  67.5962973  23.8008070  73.6448812  24.8626876
  23.5936022  74.1404343  25.6549788  22.9516387  73.4865141  24.4502974
  16.8730748  83.9536285  59.7981882  16.9037426  82.9971790  59.8205566
  17.2766054  84.1867065  58.9620829  35.3992343  89.1735744  80.9173489
  34.9235749  88.3485985  80.8204079  35.8260584  89.1050148  81.7713737
  42.5665855  69.6238852  61.5768337  43.1363297  68.9112663  61.8663120
  43.0761671  70.0813389  60.9080315  18.1305289  71.0015631  42.2612476
  18.7529635  70.2743864  42.2563553  18.4471059  71.5831709  42.9524374
  48.4340545   3.4312766  41.3534212  47.5108298   3.6001533  41.1653566
  48.9077028   4.0709060  40.8216619  70.2667189  88.4211159  52.4643040
  71.0291767  88.1856728  51.9356680  70.0545216  87.6225853  52.9475784
   2.3798689  94.9940014  31.4924550   2.2976685  94.8088455  30.5569386
   1.9993806  94.2281723  31.9225264  22.2038436  65.3223038  59.2661715
  22.6026964  64.5565987  59.6794987  22.3713756  66.0391998  59.8779106
  25.8695054  88.2184410  15.3743863  26.5619111  87.5575256  15.3756440
  25.4411602  88.1149483  14.5246565  32.2229158   8.9255946  84.7046089
  32.9253172   8.5216945  85.2142525  32.4722116   9.8476260  84.6419048
  29.4467878  99.8034286  57.8222990  29.7478127 100.1489353  56.9819164
  29.4038129 100.5694580  58.3946466 100.1123063  66.1613512  52.3947620
  99.9301676  65.4308176  52.9858446 100.2240167  66.9155693  52.9734755
  93.7384002  32.3210151   7.0909864  93.5471909  33.2537753   6.9928533
  93.5463230  31.9454581   6.2317449  57.2536008  83.7350655  50.4522943
  56.4799897  83.4756184  50.9527397  57.6256244  84.4647980  50.9475803
  19.3243062  63.2308578  33.7041664  19.7625554  62.6777983  34.3509245
  19.4549727  64.1233921  34.0243793  22.2273135  64.1758394  46.6883945
  21.8081403  64.8621511  46.1692572  22.2840452  64.5435429  47.5703239
  55.2737471  18.9398902  48.4198856  56.1773928  19.2227786  48.2797718
  54.7562440  19.7406905  48.3353901   0.8807848  90.7494354  48.0957603
   0.4198177  91.1198997  47.3430967   1.4659524  91.4490032  48.3863020
  57.4692591   1.7218154  35.8726358  58.1163009   2.2562354  36.3330364
  57.8731116   1.5337317  35.0254273  17.8701007  78.5124063  61.5709066
  16.9902408  78.7809563  61.8354034  18.1597233  77.9223108  62.2667074
  50.7559057  21.1675303  62.0144320  50.9954031  21.9064753  62.5737572
  50.1236650  21.5313380  61.3946342  30.8249378  98.3567524  65.9875679
  29.9056768  98.5656357  65.8215666  31.1838126  99.1517925  66.3817310
  35.0392652  72.2291517  66.3783169  34.1383481  71.9206190  66.2814093
  35.1633573  72.3129177  67.3237371  76.4255341  11.1316245  74.2602110
  77.0420989  10.9630530  73.5477018  75.9463819  11.9123881  73.9826155
   3.9051706  86.9631195  41.9582176   4.7970861  87.1829796  42.2272491
   3.4763575  87.8100491  41.8355370  58.6710978  90.3623104  34.9844623
  59.6152067  90.3485680  35.1416111  58.4428358  91.2918758  34.9782228
  91.3964613  14.4665568  64.9589539  91.2110146  15.0324672  65.7083368
  92.3437031  14.5321887  64.8378658  49.9941874  84.5107841  86.2092495
  50.9495258  84.5527267  86.1667442  49.8045254  83.6023712  86.4438438
  51.5916252  91.2964725  79.2509794  51.5279007  92.0348549  78.6452007
  50.7232809  90.8942413  79.2304993  38.4850574  61.5292835  34.8522353
  38.4799814  62.4815273  34.9493575  37.5867677  61.2636614  35.0490904
 104.9909837  71.1806822  49.5212746 105.4961305  70.5654478  48.9897251
 104.1878055  71.3258934  49.0212250  59.3067932  80.9001923  44.8765087
  59.2967939  81.3482857  45.7222891  59.1801977  81.5983772  44.2340517
  28.0812120  97.0344067  51.3169336  27.7830434  96.1348629  51.1822081
  27.5290537  97.5591087  50.7372475  26.0152316  94.5401764  31.4839196
  25.8786464  93.6246014  31.7274404  26.7930222  94.5261955  30.9261751
  19.2975557  95.1509953  67.6387167  19.4716680  95.6326485  66.8300581
  19.7303295  94.3066025  67.5124598  43.6800909  76.0066414  49.3536139
  42.8354216  75.9811306  49.8031902  43.4813261  75.7426786  48.4552526
  35.8628662   1.8353885  73.6321354  36.0774997   2.7681487  73.6210394
  35.5304380   1.6766017  74.5156002 104.7787897  41.2560088  26.4226419
 104.6156017  40.5596930  25.7864458 103.9612452  41.7531783  26.4485628
  60.1212390   3.5755198  56.3723946  60.4302271   4.3908160  56.7674208
  60.8433922   3.2923739  55.8115435  41.1579724  22.4913829  57.1358681
  41.7153164  23.1585830  56.7353249  41.6634335  21.6817897  57.0630074
  25.8803177  43.7286765  16.5305215  26.6409445  44.2997367  16.6380769
  25.9612274  43.3871848  15.6399709  84.2347972  43.0120475   1.7167837
  83.8693480  43.8272006   2.0606023  85.0379233  43.2793719   1.2698442
  33.8080995  13.3127444  65.3294325  34.0131967  13.1489509  66.2499428
  33.9835607  14.2457622  65.2072954  87.8460845  18.5096591  85.3004646
  87.8263911  18.2283252  84.3857574  88.7676867  18.4455245  85.5509949
  95.7690756  22.7620942   5.6721574  96.0693304  21.9868190   6.1465246
  96.5737502  23.2134635   5.4172212  23.8986778  89.0674305  51.4160585
  23.5719347  89.7708416  50.8550930  24.7185612  89.4078350  51.7740393
  46.5957880  61.3365650  60.8108282  46.5141439  61.0197830  61.7103958
  47.4336195  60.9859896  60.5085611  52.2891522  43.6323172   1.0689527
  51.9753552  43.3108432   0.2237207  52.8317833  44.3900020   0.8505613
  45.9970474  76.0102701  50.4634190  45.1447725  76.1649609  50.0560760
  46.4432335  75.4109669  49.8650980  18.5762453  96.7751026  33.9495993
  18.9850044  97.5937557  34.2305756  19.1441870  96.0902786  34.3027258
  36.0827661  98.1876469  70.0673676  35.3934360  97.6404858  69.6909809
  36.8469310  97.6129627  70.1123857  20.2177954  41.8171889   7.4042493
  20.5776310  41.7086894   8.2845766  20.5781460  41.0835463   6.9061071
  94.3667309  31.4071376  14.6393186  94.6462075  30.8080871  15.3316099
  94.7775332  32.2418315  14.8645860   0.4407740  62.7613456   7.1127588
   1.3884616  62.6490218   7.1869451   0.3224445  63.2773311   6.3152677
  13.5878360  81.7401791  58.5075808  14.2805862  81.3125515  59.0110350
  14.0372598  82.4306965  58.0203152  87.0289477  39.9897139  77.6783133
  87.2479208  39.3507617  78.3565664  86.5196141  39.4936603  77.0374203
  40.8532431  27.6981967  45.8759451  41.5084775  28.2193320  46.3399696
  40.1731693  28.3274310  45.6355190  80.5367192  32.7955287  53.4637594
  79.7564896  32.2857421  53.6818981  81.1369141  32.1598666  53.0739784
  29.4750404  85.9833813  85.6159210  29.0005922  85.9943295  86.4471912
  29.9444008  86.8173885  85.5970287  45.6318140  94.8366070  53.6349010
  45.8845186  95.4330349  52.9301739  45.0762939  95.3648758  54.2081070
  89.3381981  21.4378268   2.7284605  89.0880732  21.7938382   1.8758661
  90.2770965  21.6119630   2.7946264  71.5144014  85.3521347  59.5674849
  71.7090178  85.8804417  58.7933779  71.5563965  84.4476795  59.2569399
  41.3541746  78.2436180  74.7386599  41.2211895  77.8856659  73.8609266
  40.4889441  78.5556555  75.0036907  47.0448923  99.5322323  76.1522579
  46.2170792  99.9038601  75.8475494  47.6727772 100.2505779  76.0749674
  39.9831653  77.9430866  17.7778959  39.3193293  77.3987150  18.2012284
  40.5458450  78.2356215  18.4948659  51.8765640  83.8735485  72.6682091
  50.9235287  83.9488983  72.7159595  52.0711470  83.8859940  71.7310762
  66.2127980  10.0858157  85.5261993  65.8370384   9.5921081  84.7973061
  66.7489871   9.4475310  85.9966469  90.7467048  58.1867606   4.0678293
  90.1052277  57.4881274   3.9387781  91.4447705  57.7792460   4.5805437
  52.3854160  88.2920456  68.3747101  52.9741621  87.5480843  68.5017204
  52.7978230  89.0088558  68.8567114  64.1638287  27.9291194  71.8253040
  64.0589055  28.3799785  72.6631260  64.2664917  28.6335795  71.1854315
  94.2457199  86.2467194  55.9884596  95.0430679  86.7604160  56.1172533
  94.3195057  85.5283737  56.6167641   1.0558225  77.9153013  86.2448502
   0.3679287  77.6937532  86.8725014   1.8420897  77.4946880  86.5928459
  87.4202744  49.3791968   7.2427827  87.6670043  49.5628650   8.1492216
  88.2261614  49.5118815   6.7436105  43.7389088  94.2037296  46.2905121
  43.2999039  94.6906090  45.5930424  44.5835781  94.6420765  46.3935566
  37.4910212  77.8149319  68.4248447  37.3307562  78.5819387  67.8750753
  38.2725215  78.0408716  68.9292622  57.6480675  97.7866268  64.7593832
  57.9495049  97.9574585  65.6516743  57.0260096  97.0648766  64.8507738
  42.3560508  29.1864245  53.4410572  42.3553511  28.4434836  54.0446091
  41.4533772  29.2409747  53.1273127  22.0941182   5.7945579  43.4565783
  21.6026731   5.7855170  42.6352167  22.6495787   6.5716498  43.3947945
  41.1675406  74.7578001  43.9892435  42.0932245  74.9481106  43.8371611
  40.7748795  75.6109238  44.1742563  39.8145485  66.2559993   2.4932176
  40.4641485  66.9587237   2.4724371  40.2708054  65.5200488   2.9011899
  80.2635670  87.1108723  78.0353737  79.4078398  87.2763348  77.6396561
  80.1964855  87.4822044  78.9150572  99.2092101 100.8948994  58.0113554
  99.5401321 101.3888168  57.2611856  98.6197035 100.2449036  57.6289558
  60.4630788   3.3874839  68.1287098  61.2239536   2.9715674  67.7233601
  60.5619892   3.2083362  69.0637779  21.2135172  70.6175041  45.1202965
  21.1274409  69.6751976  45.2648020  22.1358061  70.7422447  44.8965645
  62.7667092  58.7966258  13.2087308  62.6377271  57.9020602  13.5239202
  62.6666353  58.7326915  12.2589284  23.9533830  97.9512119  45.5535936
  24.2120790  98.6969948  46.0949945  24.0940690  97.1881199  46.1140680
   8.5890103  55.4793746   0.4626352   8.0668163  56.2815768   0.4679472
   9.2277861  55.6140334  -0.2374094  29.9182510  67.9517317  63.1169510
  30.7265663  68.4579706  63.1980467  29.2357397  68.5356188  63.4478331
  77.6643713   0.5166762  70.7365942  77.3373230   0.6297152  71.6290569
  76.8793686   0.3592627  70.2119732  54.3127155  99.6351528  49.9779987
  54.4543362  98.6971378  49.8503113  53.5912180  99.6852779  50.6050253
  70.0286150  57.0639753  82.6909542  69.1767693  57.1775150  82.2694206
  69.9149942  57.4373198  83.5649872  15.0175869  86.3488007  55.0686884
  14.4346714  86.5948963  54.3504381  15.5366528  85.6247807  54.7185516
  33.9717245  73.8730431  86.4321709  34.0752649  73.9876127  87.3768330
  33.4718871  73.0616331  86.3426781  55.8071526  19.0560096  36.3662696
  55.1978966  18.3263915  36.4789724  55.6737467  19.3420356  35.4625988
  65.2290056  25.3371484   9.5679647  65.4832290  25.2154214   8.6532098
  64.4259958  24.8250300   9.6635705   9.4043446 100.0249386  60.5007315
   9.5270509  99.2992020  59.8887825   9.8182297 100.7733345  60.0708055
  40.3606129  98.0679893  41.4129019  40.4023600  98.7526798  42.0805025
  41.0713482  98.2798672  40.8077574  47.7415892  14.8583835  50.6900215
  46.8649026  14.6494906  50.3675127  47.8654846  15.7808631  50.4665947
  21.3186741 100.5003071  61.7947245  21.1469245 101.4190197  62.0013332
  20.4517102 100.0958347  61.7629242  30.7133341  90.4734325  45.9555531
  31.2919164  91.1641121  46.2787104  29.9999261  90.4409122  46.5929079
 107.6365081  65.7862329  60.1894808 107.1556611  65.5758858  59.3889952
 106.9583372  66.0321665  60.8186340  67.0287784  25.1884406  80.2406311
  67.6412734  24.4795936  80.0440979  67.3986658  25.9535926  79.8002243
  16.0345721  95.8430958  75.3997040  16.5872538  95.3698921  76.0216808
  16.6363776  96.4318657  74.9442863  68.8779528  15.4554088  19.1718561
  68.6737050  14.5678050  18.8774568  69.7026355  15.3655393  19.6494085
  99.1741614  88.4725380  58.3807087  99.9027983  88.1465912  58.9089870
  98.3974896  88.0708122  58.7701035  78.9016207  24.9629634  84.9233627
  78.9086684  25.8112758  84.4800282  79.4084366  24.3885463  84.3494225
  31.4979053  85.0761986  44.4802284  30.7585716  84.4687271  44.4558096
  32.2352695  84.5698833  44.1393995  48.4925517  17.6970523  74.0806961
  47.9952558  18.5147136  74.0993643  49.4088205  17.9736083  74.0947819
  50.6679583  66.3565016  60.3122616  51.4809752  66.5390635  59.8411942
  50.0200129  66.9299126  59.9028730  93.6339991  43.6904532   6.8908578
  94.0240280  43.6442763   6.0179407  94.1478412  43.0765445   7.4155599
  61.6953945  92.4604893  73.2129097  62.4250889  93.0505466  73.0241871
  62.1100187  91.6166496  73.3925200  49.5891190 100.1617241  58.4035683
  48.9736652 100.5902386  57.8087425  49.6418524  99.2605495  58.0852270
  72.3964199  24.6261065  81.7337608  71.6834815  25.2188628  81.4958763
  72.5728591  24.1305964  80.9340286   9.7426605  42.9134757  28.4228593
  10.0100565  42.2722251  27.7644331  10.5433464  43.1024653  28.9121610
  43.0141449  60.1733589  33.7923265  43.2126331  60.7135773  34.5571756
  43.3898449  59.3176842  33.9994550  23.5253882  85.1329517  49.4770861
  22.9046702  85.8294392  49.6912193  23.0496025  84.5665264  48.8696146
  93.1811587  48.7842090  16.8268949  93.0796830  47.8740889  16.5483076
  92.8019540  49.2969043  16.1130506 105.8621081   8.8500731  77.4884272
 106.3343533   8.8757842  76.6562319 105.0449666   9.3173163  77.3146486
   8.6020321  99.5497513  81.5385342   9.4439930  99.3990803  81.1088467
   7.9711562  99.5948982  80.8200741  27.7405167 100.4873657  49.5931244
  27.0766616 100.8812046  49.0270710  27.6908231  99.5502663  49.4044209
  83.6865242   9.6785968  77.5114822  83.4426745   9.0745013  78.2127953
  83.0487450  10.3895133  77.5751829  77.3928269   0.8455890  30.2091908
  77.0981129   1.3944285  29.4824553  76.6282757   0.7740157  30.7806540
   6.7729831  75.5173635  32.6792145   6.9063008  76.4617634  32.7602577
   5.8344835  75.3948212  32.8221631  65.0923570   7.6196521  49.3003654
  65.6200703   8.1720202  48.7236166  65.6993588   6.9469588  49.6090031
  62.5343140   5.3776782  71.8057108  63.3559664   5.5367701  71.3411570
  62.7594789   5.4753535  72.7309132  72.4231577  75.8389902  83.3539391
  71.8376207  75.9005690  84.1086483  72.9925823  75.0956726  83.5525894
  52.8501940  70.2866793  69.7140884  53.2550478  71.0091925  69.2341900
  53.2380438  69.4989157  69.3329954  46.0794624   9.6860640  78.8865662
  46.5214427  10.2461379  78.2484341  45.2457758   9.4629138  78.4725571
  33.2053924  91.8542767  66.2688446  32.2733712  91.6844559  66.4057112
  33.2298946  92.5026894  65.5651474  78.7532624   3.8156169  24.8263383
  79.2528733   3.0116218  24.9684691  78.7366780   4.2419379  25.6831980
  76.7963552 100.2452087  25.9706688  77.3437214 100.9740353  26.2629676
  77.4196672  99.5713902  25.6992197  29.1658356  18.0194610  75.3350878
  28.6290439  17.2725623  75.6000996  30.0095322  17.8716510  75.7623577
  49.7411489  93.8256836  85.1756287  50.5057716  93.3149147  84.9097347
  49.0178061  93.4548092  84.6702003  62.1242794  10.7968848  73.7551355
  62.1105417  10.0118106  74.3025923  61.2042316  10.9603827  73.5477448
   6.4763916  92.4046135  54.3370199   6.0430080  92.7636337  53.5627365
   6.9823772  91.6626263  54.0058613  87.2773795  39.0231902  13.1271249
  87.4330310  38.3008201  13.7355501  87.7790193  38.7905700  12.3457891
  69.7479161  18.5667270  47.5928593  68.8838609  18.2056849  47.7910709
  70.3396352  17.8164332  47.6489973  17.6850748  81.4486217  57.5450039
  17.4330878  80.6903934  58.0720949  17.1467459  81.3816547  56.7563629
  10.0791542   0.3799003  60.4282427  10.7717697  -0.1333673  60.8442593
   9.3690483   0.3885310  61.0700417  72.9829272  20.1471370  45.9887743
  73.8319691  20.4253715  46.3322067  73.0153402  19.1908687  46.0158014
 107.7503725  88.6080647  42.1152353 107.1498580  89.1783237  42.5952482
 108.0892157  88.0055332  42.7773380  65.5570324   1.3088744  63.1324339
  65.9526857   1.9362300  63.7375021  65.6372388   1.7220157  62.2727203
  49.9727488  77.7855635  68.1916714  49.1486931  77.9592800  67.7367020
  50.3347206  77.0189476  67.7472544  63.9137062   1.1862319  78.9223194
  63.6459144   1.2366431  79.8399162  63.3665308   1.8333285  78.4772301
  72.0831092  21.7359488  54.0103388  71.5556868  21.3450187  54.7069216
  71.5232213  22.4184936  53.6403465  27.7294993  99.7830200  77.0472050
  27.0226407 100.4098129  77.2012043  28.5138845 100.3240967  76.9566011
  27.8785324  96.5611744  64.3778324  27.2031212  96.8999481  63.7902212
  28.2423353  97.3400211  64.7988605  13.6213839  97.1629715  42.6275253
  14.4874239  97.4689198  42.3580742  13.1151688  97.1316242  41.8157387
  52.5591660  74.3866396  60.8972406  52.5641251  74.2784119  59.9461937
  52.0483541  73.6443090  61.2201166  42.4698782  92.8180027  62.8824997
  41.7369938  93.0234718  62.3020744  42.4620771  91.8631649  62.9493141
  40.6832790  57.9948235  48.5872412  40.8384943  58.9390993  48.6090565
  41.5426588  57.6149988  48.4043932  66.0327371  15.8359092  77.4529600
  66.2685212  16.2203067  76.6086388  65.2897223  16.3584083  77.7548790
  30.8371496  87.5637817  66.9633532  30.9336424  88.1122112  66.1848021
  30.8668280  88.1797600  67.6954174  46.3915475  19.7902625  69.4059134
  45.7959624  19.1632503  68.9955807  46.7351409  20.3066485  68.6768579
  17.3281753  99.1824436  70.7381725  16.5211737  98.7559605  70.4499102
  17.9275727  98.4598064  70.9245872  18.8251042  99.5862007  63.0091906
  18.3624923 100.3890896  63.2491875  18.2209182  98.8821316  63.2447147
  58.1644297  77.5067186  45.8446217  57.7115870  77.4974680  46.6878796
  57.4612999  77.5046110  45.1951313  38.6603236  83.9893913  80.4868793
  38.5906839  84.2183208  79.5600653  38.0465269  84.5782948  80.9258270
  63.2251128   5.5758613  65.9150028  63.9043363   5.0307410  66.3121557
  63.5872134   5.8289473  65.0658512  68.6899360   5.7609885  44.7747374
  69.3316468   6.3707679  45.1388884  68.1805714   5.4694789  45.5309105
  92.7830712  72.1855361   5.8199007  92.5841228  72.8350455   5.1455194
  92.8514163  71.3583857   5.3430540  59.4852924  93.4127235  45.7688284
  59.8002863  92.6244354  46.2111092  60.2019262  94.0407848  45.8594751
  80.7548626   4.2157119  55.5736208  79.8186453   4.4149154  55.5666399
  81.1458834   4.8827594  55.0093651  49.3895817  98.7397385  85.7007408
  49.5721436  99.6791458  85.7211971  48.4391642  98.6783028  85.7964516
  33.0309939  90.6117821  54.1599989  32.3189855  91.1256027  54.5411396
  32.5898933  89.9412346  53.6384439  36.1018610  77.6584721  63.2325220
  35.2390218  77.5374603  63.6288786  36.3165212  76.8031502  62.8602600
  45.8363867  99.7751904  61.2831068  45.5827427 100.6962490  61.3427258
  45.0139284  99.3096066  61.1313772  35.6584817   6.0091632  67.2475243
  35.1142866   5.9435695  68.0322409  35.0493266   6.2628596  66.5541267
  91.6473254  20.1459735  65.5728769  91.8188628  19.2259353  65.3720379
  92.2868212  20.3665584  66.2500906  55.8014961   8.0345862  75.3649807
  56.4072426   8.7120383  75.0643635  56.2886318   7.2166007  75.2658510
  20.1182485  77.3199797  58.1020451  20.0106764  77.4499798  59.0442562
  19.3076944  76.8927193  57.8251362  65.4248723  31.2167399  82.3425007
  64.7387465  30.5660193  82.1940994  65.9113606  31.2440055  81.5186024
 104.9885027  74.2898280   3.9208490 104.8184101  74.7063453   4.7657281
 104.1261284  74.2166144   3.5119707  30.1372719  85.9804821  77.5549555
  30.5254006  86.8039036  77.2590446  30.7299161  85.6684589  78.2388020
  95.0483458  50.2802760   1.1562902  95.1185338  49.4034964   0.7787305
  95.5068914  50.8459861   0.5350381  15.9651462  19.7953074  41.8024921
  15.2559082  20.4377692  41.7812204  16.5981571  20.1577895  42.4222851
  43.0968523  86.6036701  79.3008852  43.9677906  86.9931698  79.2235279
  42.7261209  87.0005703  80.0890827  48.9169741  73.1503773  17.3829043
  49.8113108  73.4914875  17.3890114  48.7528324  72.8923893  18.2899487
  37.1408224  92.4031448  77.7320480  36.6060400  91.6222477  77.5890827
  36.8336320  93.0274487  77.0746994  29.1780019  86.7315102  49.2897654
  29.9304438  86.5483856  49.8523712  28.8449621  85.8677101  49.0465164
  64.8173857  86.6922855  76.1164331  64.8413801  86.4461994  77.0411491
  64.1468716  87.3736286  76.0672283  49.0020323  89.8145866  76.7991209
  49.9417019  89.6468258  76.7276478  48.6795521  89.1267776  77.3814917
 106.2726649  19.2395060  54.0362358 105.6688078  18.5117858  53.8879061
 105.8799561  19.9759429  53.5675335   1.2580235  80.3055000  60.9715891
   0.9961263  81.1396313  61.3612938   2.1392336  80.4652119  60.6336641
  26.7713213  84.0257835  46.0363531  26.1117315  83.3950138  46.3249826
  26.9900179  83.7528419  45.1453400  12.4866199  75.5926371  65.2977514
  13.0500352  76.3530254  65.1541901  11.6023684  75.9125662  65.1189280
  31.6877031  94.5946980  86.1597443  31.5547562  95.4952145  86.4557743
  31.0592842  94.4817734  85.4466057  49.7616991   0.7478850  48.6312962
  49.9472662  -0.0874860  49.0601873  48.9421328   1.0437243  49.0275621
  37.9510570  73.7232161  64.6979427  38.4939957  74.4744587  64.4590282
  38.1527758  73.0617666  64.0361071  49.8140478  83.7859344  42.5856113
  50.3369188  83.0314159  42.3144245  50.2454090  84.5359039  42.1760845
  65.3990444  15.8588927  61.4526415  65.0468954  16.5492385  60.8908224
  66.1092623  15.4722541  60.9404612  11.7689395  79.6467686  57.7099848
  12.4559450  80.3007317  57.8387499  11.5676463  79.6917009  56.7752695
  20.0805616  81.0307884  56.1014032  20.5524039  81.7900276  56.4436722
  19.2919147  80.9756660  56.6410637  12.3761499  96.4609146  40.0961924
  12.5203419  97.2290421  39.5435405  11.9140363  95.8422470  39.5305729
  27.9237652  82.0066261  64.3018007  27.0012951  81.8031883  64.4563913
  28.0050564  82.0406723  63.3486652  17.9774916  85.1348495  86.9683456
  17.0619845  84.9011040  87.1214581  17.9362297  85.9148026  86.4149952
  39.0023338  22.3832744  71.4767122  38.5358264  22.7490466  72.2282553
  38.9534890  23.0669826  70.8085823  84.8104962  18.8117736  83.2364082
  85.7292422  19.0261023  83.3982754  84.7652157  17.8608649  83.3361721
  63.5387802  95.1673317  63.6954927  64.4907665  95.2653790  63.6769342
  63.2853889  95.4553699  64.5724535  40.1036930  90.2623940  47.7483988
  40.7127333  89.5415497  47.9086685  40.0614309  90.7301807  48.5824394
  29.9809504  99.9197388  26.8608999  30.8664560  99.6472168  27.1014023
  29.4281530  99.5900440  27.5693846  72.8220423   3.9098208  77.2896481
  73.2224830   3.0815165  77.0254517  73.4636911   4.5756858  77.0423746
  30.8823872  82.4304295  44.3856859  31.3476157  82.1392727  43.6014509
  30.1158023  81.8593597  44.4352818  39.4107151  83.5183430  47.7126169
  39.3370223  83.2453442  46.7981339  38.5985970  83.9941311  47.8867245
  79.0319691  20.3916413  21.9117433  78.4474437  19.6652943  22.1284944
  78.7048785  21.1256797  22.4317724  30.8060219   5.3846686  63.7175846
  29.9734708   5.6885570  64.0791655  30.5668863   4.6547835  63.1463480
  89.2247637   5.4799979  80.9975147  88.3701380   5.2127402  81.3357830
  89.0616473   5.6979697  80.0798512  30.7820106  76.4908791  77.3761559
  30.0135565  75.9210300  77.4075365  30.7391620  76.9034767  76.5135098
  22.4723673  42.6407725   5.6531221  21.6494751  43.0900199   5.8461362
  22.2408629  41.9919116   4.9885828  35.7861733  65.2153206  43.2338858
  35.2655339  66.0132456  43.1417656  35.2333975  64.5250273  42.8675985
  43.1446791  46.5909863  60.2723980  43.4778547  46.3731527  59.4018984
  43.8490152  47.0957565  60.6790257  53.6095377  25.1104777  82.0261669
  53.5098227  24.6108478  81.2158203  54.4780406  25.5070250  81.9577122
  20.0346518  98.0104256  83.2932377  19.5985651  97.3060131  83.7726784
  19.4722235  98.7736893  83.4249020  11.1858332  80.3146172  27.5653911
  11.3163471  81.1709785  27.9726362  11.8634880  80.2642155  26.8912435
  74.4313526  77.9757786  27.7063107  75.0902081  78.4316635  28.2300591
  73.7106562  78.6011791  27.6308179  77.7146435  94.1462421  37.0333290
  77.3793650  93.3793354  36.5689158  77.0322990  94.8088169  36.9254541
  11.7081118  61.1918170  11.2183172  10.7890654  61.2172801  11.4846593
  11.7935038  60.3726870  10.7305032  36.2643433  90.4521275  75.6022310
  36.0129929  89.8819733  76.3288546  36.9096971  89.9437332  75.1110315
  59.4941807  74.7987890  59.1059637  59.5247841  74.1401100  59.7998238
  59.6039772  75.6328917  59.5625210  74.6741867  81.8273067  44.6021986
  74.1375065  81.3298988  45.2192783  74.1242170  81.9159222  43.8237953
 102.8844301  85.5621631   2.4157506 103.0971376  84.6500785   2.2180635
 103.7327020  85.9778792   2.5701696  63.3113583  17.3337024  70.7231712
  63.3802184  16.4865153  70.2829838  64.1726311  17.7348178  70.6067514
  59.0693188  85.0459099  21.7812943  58.3100224  84.4642639  21.7440677
  59.7697353  84.5026112  22.1424937  77.2504338  38.4542506  82.9047489
  76.9544085  38.1770843  83.7718010  77.2322806  39.4106334  82.9398537
   7.2095966  95.2930743  12.4616605   7.2364330  96.2262256  12.2501451
   7.8891945  94.9031932  11.9117719  25.8011365  85.4375267  34.1926789
  26.4909005  85.1982212  33.5736585  26.1174870  86.2414932  34.6047330
  57.7880200  15.7990306  67.5540781  58.1718739  15.9772246  66.6955137
  57.6502307  14.8518413  67.5629187   7.4288940  93.1432152  36.1125255
   7.2525191  92.4144650  35.5174994   6.5819931  93.5766411  36.2180233
  31.1131740  85.0310230  71.6748667  32.0600891  84.9189949  71.5910149
  30.7449698  84.4854546  70.9798765  70.2983332  91.3913631  84.8333454
  70.0426292  92.0060539  84.1455936  69.4698763  91.0986805  85.2131271
 102.5703486   4.0812438  48.3661079 101.8903836   3.4311812  48.1892204
 102.1068724   4.8031943  48.7906218 102.4171345  75.0795276   3.3163530
 102.5490539  75.3781516   4.2161638 101.4742772  75.1609809   3.1727582
 107.8024761  63.8395316   4.6834547 107.3065559  63.3004481   4.0672666
 108.3782403  64.3674571   4.1302568  62.2997960  29.7880118  38.9972782
  61.4641603  30.1879352  39.2381072  62.9128607  30.5218356  38.9539218
   6.6310835  50.5154807  15.7311231   5.8229017  50.4431064  15.2233392
   6.4585591  50.0149161  16.5285570  30.5069494  55.1291568   3.2090074
  29.5581532  55.0646502   3.1000978  30.8326864  55.3606135   2.3392087
  32.9495072  90.1895714  70.8052254  32.8399968  89.3026543  70.4622841
  32.1362162  90.3655529  71.2783194 100.6996791  65.9552867   7.6374513
 101.1381404  66.2211234   8.4457284  99.7711865  65.9235103   7.8679353
  43.5797787  83.3103561  67.2829056  42.8505564  83.7948513  66.8959522
  44.1863823  83.9881897  67.5809145  13.5189152  88.5323436   4.4903070
  14.2572403  89.1239936   4.3451768  13.8594484  87.6655967   4.2689020
  70.0572070   6.8152183  48.7934017  69.2165955   7.2506755  48.9347601
  70.2944740   7.0389121  47.8934574 107.2260072  99.2816639  78.7119961
 108.0252015  99.5580006  78.2634878 107.1704317  98.3408833  78.5444880
  67.7224874  66.4224052  86.1564732  68.5504913  66.2978363  85.6926537
  67.9789162  66.5925264  87.0628548  37.7030206  84.5675945  64.0897036
  38.2284164  84.0230370  63.5034895  36.8046880  84.2650318  63.9567184
   4.9689055  48.4609515   2.4633295   4.1528654  47.9720313   2.3572046
   4.6887112  49.3555838   2.6566202  55.3943539 101.0410595  77.4410915
  54.5413876 100.6589794  77.2344589  55.5543661 100.7916355  78.3512640
  55.6324864  46.0482032  18.6625177  55.5578327  45.5770594  19.4923860
  56.1766243  45.4829032  18.1142599   2.2479057  70.2713973   3.2371694
   2.6112819  69.5887286   2.6731187   2.5949216  71.0882384   2.8785688
  50.9693881   8.3883708  62.3277235  50.4616900   8.0099719  61.6098833
  51.5209003   9.0490764  61.9087601  25.3255654  91.1066253   0.8991891
  25.6931114  90.4048163   0.3619749  25.9725046  91.8103415   0.8492452
  29.1553259  75.7620955  80.4217529  29.1627717  76.6807461  80.1529503
  28.2268548  75.5350828  80.4730988  41.7998266  87.2905731  61.1352587
  42.6033592  87.1968937  60.6236076  41.1029243  87.0165348  60.5390549
  66.6978168  95.8316994  61.2345123  66.9564629  96.6057014  60.7342529
  67.3126411  95.1518345  60.9587955  60.6793555   4.8594611  86.1973190
  61.5033563   5.3463309  86.1829567  60.0954016   5.3927749  86.7365742
  26.4225531  88.8882828  77.7648878  27.3474145  88.7601566  77.9757118
  26.3922524  88.8847065  76.8081760  48.2562467  22.6546138  40.2983713
  48.1732424  23.3355754  40.9659338  47.3622509  22.5151675  39.9860311
  54.7733974  77.3114395  73.9685345  55.6261921  77.5298882  74.3443680
  54.2047071  78.0365467  74.2274809  71.2766798   9.1325038  40.1378441
  70.9293016   9.9674457  40.4515839  70.7276472   8.4711974  40.5591154
  56.1939859  82.0838356  62.7060223  56.2005949  82.9197121  63.1723928
  56.9618845  81.6184521  63.0376625  48.0899954  94.7062302  45.6084347
  48.2549334  95.5989552  45.3049994  48.4543848  94.6828461  46.4932537
  76.5544518   4.1937392  47.6265335  76.5806588   3.3745616  48.1209898
  76.5391358   4.8773997  48.2963181  92.0133885  41.4744800  53.7228775
  91.4447697  40.7046359  53.7381458  92.8818186  41.1268275  53.5199165
  78.6081561  15.9364551  61.5420961  77.9957016  16.1976569  62.2297764
  78.0682333  15.8651870  60.7549238  46.3515234  92.5852108  75.5607271
  45.9191751  93.4367561  75.4960394  45.6399059  91.9674301  75.7285786
  44.8153832   2.4546760  54.6277380  45.4009064   2.6686042  55.3541183
  43.9849885   2.2301906  55.0476027  35.3661728  59.6272380   2.6784975
  35.9693670  59.2113788   2.0625001  35.4799748  60.5657393   2.5285417
  57.1600660   6.3023417  70.6536150  56.6221341   6.2433284  69.8640728
  58.0491217   6.1152976  70.3522396   8.6349535  89.9514777   1.6127759
   7.9299069  90.5377108   1.8875104   8.9896345  89.6035487   2.4309236
  10.5685520  39.1247470   7.3451215  10.3505898  38.3656985   6.8042261
  11.1467648  39.6529490   6.7947561  86.2197121   6.7150824  78.3048248
  86.6411456   6.4850085  79.1328859  86.3614615   7.6577132  78.2177258
   6.1317545  79.9178457  86.5353775   5.3328437  80.0649929  86.0290909
   5.8225590  79.7306490  87.4217033  55.4230642  87.7435493  75.3051186
  56.0323238  87.0054340  75.3198433  54.9599028  87.6885223  76.1409950
  29.7913313  78.0997950   7.2142202  30.0417185  77.3190028   7.7080709
  29.3028307  78.6332805   7.8411180  73.6908849  24.7745269  71.5407753
  74.4881590  25.1866954  71.2080574  73.3626874  25.3856032  72.2003937
  59.4764122  10.2042239  72.2401524  58.9687999   9.6656459  71.6331100
  59.4584139  11.0805171  71.8554211  39.9693489  92.4277306  46.1118507
  40.8933783  92.4820232  45.8680201  39.9062157  91.6285610  46.6348886
  74.5362838   7.8941958  38.5994673  75.2029117   8.0410808  39.2704844
  74.6640643   6.9846480  38.3299589  20.5424357  49.8795134   4.8623449
  20.2052069  50.5029685   4.2190630  20.3034163  49.0212924   4.5122701
  49.7636938 100.1202202  79.3759155  49.0354490 100.3614902  79.9483442
  50.4392099  99.7958946  79.9715042  63.6150551  98.5731316  55.2267456
  64.0380430  98.0782890  55.9284925  62.8684521  98.0324841  54.9688339
  81.6907795  21.9512027  52.9219007  80.9601124  21.9514506  52.3035526
  81.6664656  21.0815280  53.3210373 100.6838425  21.9125884  83.8881683
 100.5763587  21.1992019  84.5172596 101.2337979  22.5512450  84.3419266
  51.5425444  94.8169994  38.1749606  50.7392597  94.5908165  38.6437917
  51.6329956  94.1333580  37.5111175  44.4628384  20.1943343  61.7055225
  44.7220965  19.2739146  61.6625404  43.7517442  20.2132075  62.3460102
  44.8275884  12.9580443  76.7642784  44.7316005  13.4409278  77.5851583
  44.3067434  12.1649592  76.8906212  52.4495395  29.3346637  70.0609732
  52.4642678  28.3890288  69.9133778  52.7713331  29.7100394  69.2413521
  54.0849670  21.7971747  52.9351950  55.0163027  21.9584601  52.7840853
  54.0280267  21.5752356  53.8645649   6.6010380  98.9614201  63.5054207
   7.5195020  98.8163948  63.2782173   6.1962634  98.0973244  63.4297609
  76.2346674  75.8252437  15.1567823  76.3836933  75.5730349  14.2455083
  75.4034094  76.2995822  15.1411420  66.9739866  87.1392632  79.2178345
  67.3217010  87.5158501  78.4094334  67.2982359  87.7159786  79.9095631
  75.2920016  13.4660857  73.6548519  76.0023697  13.8654082  73.1527042
  74.4977697  13.8798755  73.3169031  64.2739916  79.8158503  28.7690234
  64.5330763  80.6508064  29.1588402  64.9095821  79.1856527  29.1082978
  67.0228156  11.2877410  76.2410831  66.6289958  12.1462100  76.3965273
  66.8297966  11.0983985  75.3228617  98.5464104  10.2421039  64.2779922
  98.6196192  10.0607913  63.3409786  97.8430518   9.6668570  64.5790195
  71.4414557   0.0213759  79.3509150  71.2153395   0.8840411  79.6986341
  71.5214404  -0.5355508  80.1252937  60.4407644 100.6309700  82.2879791
  59.8531866  99.8754406  82.2752953  60.7288742 100.7255936  81.3800907
  59.8969841  26.0633094  10.9814626  60.6483841  26.2265927  10.4114038
  59.2530251  26.7229659  10.7237703  20.6419230  48.3308894  22.4540216
  21.4872265  47.9179675  22.6306325  20.8541155  49.2493064  22.2875577
  18.8146337  53.5297530  31.4024854  17.9293748  53.3589595  31.0809612
  18.6853608  54.0530436  32.1934867  93.6674269   4.5765822  60.1895618
  93.5495814   5.1974528  59.4706249  94.5138749   4.1653293  60.0145483
  75.2247675   6.0289424  78.9690495  75.8528551   5.9306090  79.6846390
  75.2948102   5.2121203  78.4749508  67.5836667  12.5815146  53.6760712
  67.5959357  11.7213767  54.0958738  67.9660734  13.1708281  54.3262339
 106.4828817  73.0455024   6.9657499 107.3138015  72.9297931   7.4266321
 106.4224379  72.2858245   6.3865549  35.9408287   2.8343814  82.4325848
  36.6282805   2.2000068  82.2295666  36.2658498   3.3017104  83.2021332
  52.4968334  26.1720889  54.5396090  52.9846033  26.7418998  55.1342773
  53.1518205  25.8613723  53.9145708 105.6583334  77.8362322  75.9085941
 106.0856068  78.4625864  75.3243494 106.3300259  77.6131010  76.5530109
  60.3254366  97.1075821  83.4687614  59.8519468  97.9243469  83.3108807
  61.2068987  97.2732449  83.1343842  39.4779205  59.0113074   9.3253118
  38.6905003  58.9338118   9.8640043  39.9077702  58.1598288   9.4055540
   1.6944194  66.8769080   8.1705076   0.7817507  66.8480689   7.8833849
   2.1737313  67.2101504   7.4119264  60.1680883  20.6895011  56.6170454
  59.3523439  20.2469294  56.8514252  60.7615574  19.9812739  56.3671446
  86.9856890   3.6185592  43.2493162  87.1735199   3.4619849  42.3238754
  87.8474196   3.6859363  43.6605501  64.4860649  79.8656130  57.9744244
  64.7465086  79.8246193  58.8945961  64.1558313  80.7565212  57.8584337
  38.9852881  85.7105064  66.1602449  38.5273600  85.2783871  65.4392672
  39.5144391  86.3865662  65.7369518  62.1932538   3.1078380  77.7462292
  61.5713366   3.3632224  77.0648861  61.6653713   3.0491488  78.5425520
  93.0993692  42.0577151  19.6674520  93.9775602  41.7323977  19.8653966
  93.1341187  42.9890448  19.8857099 104.0689222  41.9081504  14.8949987
 104.1990582  42.1212394  15.8190614 103.5210220  42.6181132  14.5603448
   1.6299574   7.2805255  53.7872982   2.2458498   7.0611136  54.4864178
   1.9614450   6.8130248  53.0206251  89.1273888  10.3191798  86.0049343
  88.5115870  10.9678500  86.3458824  89.2055567  10.5291026  85.0743198
  77.4353322  34.0032046  82.0390129  77.9080447  33.1709140  82.0475578
  76.5972336  33.7983935  81.6244316  50.6852007  86.9896317  56.7990208
  49.8549843  87.2251511  57.2131538  50.7279682  86.0362816  56.8733311
  38.2931828  74.1930103  67.9043293  39.1979909  74.3912745  68.1456757
  38.3434367  73.9238358  66.9871330   1.3190484  60.0853736  22.8988058
   0.7663322  59.9352939  23.6657506   1.7436338  59.2421538  22.7408582
  16.7691088  73.4229285   5.0971300  15.8132506  73.4101588   5.0481302
  17.0018673  74.3457610   4.9950010  82.7416762  30.0296061  63.4725428
  82.8987130  30.3493731  62.5841045  82.2244414  30.7198470  63.8875961
  54.4102570  10.5065577  49.6964455  53.8475975  11.1058276  50.1868773
  54.3406244   9.6749442  50.1652622  11.9681931  56.9808299  17.5540048
  12.4204207  56.5408904  18.2738477  12.6054621  56.9884402  16.8398172
  71.8758472   6.0236304  63.2797670  72.2552284   5.6548827  62.4820662
  71.2976321   6.7206996  62.9699421  14.1848183  41.2535006   0.7571298
  13.6956358  40.5317981   0.3620607  15.1000500  41.0637671   0.5507833
  38.1996560 100.1766491  59.0426922  38.9824724 100.5552864  58.6426067
  37.6019001 100.0319672  58.3092165  32.0870884   4.0148871  82.0979977
  32.4263086   4.8604720  82.3914814  31.6534980   4.2063277  81.2663841
  74.5581110  10.3542369  41.2348747  74.0452250   9.5750564  41.0202837
  74.2879423  11.0047954  40.5867863  18.9857376  69.4374037  65.3157902
  18.9713776  68.9687109  66.1502647  18.0687118  69.6534491  65.1466179
  86.5789127  91.6024113  75.9552097  87.0963097  91.0682106  76.5578413
  85.8388138  91.9070530  76.4802551   6.8576431  44.8964126  42.6937372
   6.6110993  45.0234324  43.6098749   7.7955198  44.7071654  42.7221185
  97.4092778  12.9853290  75.6857252  97.1931847  13.1540244  74.7686243
  98.3019074  12.6405471  75.6619596  31.2591219  89.1315460  17.0233774
  31.7436528  88.3064270  16.9980049  31.3850355  89.4559193  17.9150951
  34.8713970  53.5242469   5.2656538  35.5748224  54.1106612   4.9871904
  34.9350596  53.5103995   6.2206346  44.8060205   4.9492591  53.1644154
  45.1919617   4.6604674  53.9913845  43.9097711   5.1967090  53.3918715
  74.9476155  15.7046454  48.2719564  75.0970682  15.1374095  47.5155592
  75.5994352  16.3998836  48.1824732  30.5980969  75.4260165   7.6769907
  31.3906098  75.5481917   7.1542818  30.3960133  74.4943148   7.5914175
  81.3646563  23.2817691  38.1599522  81.7800625  22.7826732  37.4566889
  81.5464362  22.7761691  38.9521360  59.0752204  16.2790626  65.3126335
  58.7289484  15.6684344  64.6618986  59.9966010  16.3845675  65.0756550
  79.7715863  35.8685058  77.1730137  79.2869147  35.7829326  77.9939890
  79.7323712  34.9967044  76.7797422  43.9479208  36.1492450   4.9415475
  43.9668846  35.3027827   5.3880674  43.9016819  35.9283549   4.0113336
  22.7570176  84.3884850  75.6106138  21.9921827  84.9298191  75.4151249
  23.2844901  84.9241734  76.2030935  52.0998355   1.1378520  46.1873865
  52.9347726   1.5197890  45.9167624  51.4537831   1.5370696  45.6047440
  40.2742195  89.0656185  71.4687347  39.7839952  88.9762688  70.6514645
  40.4841185  89.9980259  71.5214157  14.5747662  80.3776461  27.1204835
  14.5867920  81.0944754  27.7547056  15.4902506  80.1081950  27.0461828
  64.1843279   8.6987346  64.7325993  64.8678525   8.4343284  65.3483248
  63.6046132   9.2617743  65.2455902  30.8236694  46.3557441   7.3929864
  30.1031113  46.9847209   7.4304754  30.6824970  45.7845218   8.1479818
  89.4655760  34.9884265  53.7692499  88.6747797  35.1441424  53.2528925
  90.1352414  35.5294364  53.3508158   2.6741290  54.3818957  24.0764219
   2.4922156  55.3161723  24.1777307   3.1054878  54.3128497  23.2247240
  64.3007382  12.6366942  60.4120922  63.8623508  11.8199676  60.1733112
  63.5886343  13.2291263  60.6532574   1.3517693  31.9451213  60.9430218
   2.2266787  32.2947001  61.1120176   1.4599076  31.3930464  60.1685858
  75.5896584  26.8877745  82.5307274  76.2758891  26.2425828  82.7011585
  74.8923604  26.3890052  82.1050072  62.5880216  33.2376201  17.2988302
  63.1055830  32.9696757  16.5395052  63.1570087  33.0659301  18.0491716
 104.5050223  12.3225749  65.0807953 105.3251783  11.8659067  64.8936272
 104.0244679  12.3007143  64.2532539  63.2908752 100.3237057  42.0641756
  63.4698464  99.5280767  42.5653505  62.3986604 100.2058009  41.7381620
   6.7722851  42.6352119  27.9363227   6.5265912  42.7712345  27.0212460
   7.6732379  42.3142910  27.8972530  13.2827544  27.0703983  78.3803177
  13.8404000  26.3242674  78.6006641  13.1486809  26.9983792  77.4352932
  88.7120334  61.8636703  64.2270184  88.4497575  61.5002108  65.0727940
  87.9587452  62.3828125  63.9454508  81.6400220  72.3369772  51.0242558
  80.9981414  72.9865391  50.7373953  82.4428221  72.8391344  51.1641932
  99.1281078  10.5821395   5.9342194  98.4863995  11.2237716   5.6296706
  98.6025910   9.8348218   6.2198424 102.1016876   1.1664302   1.6104681
 102.7663652   1.5335233   2.1932870 102.3350660   0.2413041   1.5336401
  33.2080913  48.1229067  60.2734709  32.8457618  47.2771740  60.5374527
  34.0052772  47.9021215  59.7918320  75.3634079  81.5697581  56.5845442
  76.1794253  81.3692553  56.1261272  75.6436332  81.9443745  57.4196291
  16.8281114  13.3567786  53.5185051  16.4397812  13.8331997  54.2523003
  17.7494276  13.6163223  53.5251331  91.6131787  31.1960506  58.5543728
  91.6571812  30.4201508  57.9955578  90.7013301  31.2317109  58.8433218
  21.6617703  32.2761273  34.1378522  22.2341847  32.6958513  34.7800398
  21.5769315  31.3739133  34.4461441  38.5013223   8.8545251  55.4751444
  39.2313528   9.4230741  55.7201767  37.8338528   9.4529516  55.1395798
 100.3835305 100.1017099  68.0510902  99.8166712 100.8592994  68.1958723
 101.2577518 100.4068538  68.2936954  13.2800090  51.7624760  61.8378353
  14.1872728  51.8384218  62.1333647  13.0377746  50.8583403  62.0380735
  58.8677502   4.9669489  24.6691656  58.3319855   5.7272661  24.4430995
  58.4211969   4.5736820  25.4189420  68.3171145  10.1605403  63.1182051
  67.4667994  10.5223477  63.3677912  68.8145081  10.9144664  62.8013039
  25.1306653  49.4003773  78.3415699  25.3362465  49.0464973  79.2068672
  25.1400447  48.6381388  77.7626610 104.0073360  22.6941943  77.8486729
 104.7775827  22.1373224  77.7353382 103.4345971  22.4624920  77.1175671
  97.7135138  55.5920172  47.2322702  97.3359339  55.1370621  47.9850531
  98.5217695  55.1147699  47.0446873  81.8522159   3.7546471  59.8849630
  82.1547572   4.2949462  60.6148815  82.4342624   3.9833847  59.1603041
   3.8156098  48.0323696  55.5466652   3.9737338  48.9425230  55.2959776
   3.2304549  48.0901718  56.3019705  14.9366856   1.0727412  57.8809023
  14.6123707   0.1724889  57.9053497  14.9388266   1.3013896  56.9514132
   1.1404361  45.0015306  74.0228271   2.0373258  44.7093439  74.1854477
   0.6156887  44.5391417  74.6763325   1.0698850  27.6685071  53.0447817
   1.9120222  27.9144335  52.6619530   0.5184456  27.4535298  52.2924995
  25.8261943  15.8601558  60.7456064  25.4674792  14.9730182  60.7222986
  26.6330171  15.8058000  60.2334404  19.8323214  33.2920432  53.3978271
  19.0208650  32.8200889  53.2106686  19.7838855  34.0773010  52.8526163
 104.6193315  45.7903385  73.0671310 105.4955463  46.1609697  72.9617119
 104.0427757  46.4061689  72.6148415  20.6414866  19.4431567  45.1097059
  21.0145998  20.2955985  45.3341198  20.9557676  18.8557124  45.7969952
  83.2451741  14.2018449  80.4127121  82.9130379  14.9489427  80.9104729
  82.8138964  14.2707300  79.5609570  23.6790276   6.1026788  57.2275114
  24.1091871   6.6938329  57.8453541  24.2770004   6.0596192  56.4813185
  28.1445813  41.2351847  35.7949948  27.8457689  40.3995943  35.4362011
  28.7497807  40.9922647  36.4956784  87.9432432  25.7227015  62.4994850
  88.5291664  25.3401828  61.8463373  87.9784862  26.6642427  62.3306942
  75.5073897  13.5808730  39.8811102  76.1005108  12.8567421  40.0812960
  74.6374385  13.1817663  39.8697138  97.2853641  20.0621867  29.6991301
  98.0951498  20.3210664  30.1389718  97.5520067  19.3695569  29.0946484
 103.1620983  10.6644595  48.3902836 102.7738247  11.4541590  48.7669134
 103.7387614  10.9878027  47.6980829 105.0788177  28.3884931  65.4444456
 105.5618035  27.5755715  65.5931568 104.9010332  28.7255192  66.3225317
  94.6294169  16.4953995  34.6024847  95.3436856  16.3058257  33.9941168
  94.5763223  17.4509799  34.6192265  33.5424423  33.5578704  80.7241821
  33.6877894  33.5829329  81.6699505  32.6595187  33.9088988  80.6081581
  68.7671753  99.3716451  51.0524082  69.3675025  99.1179753  50.3513432
  67.9378833  99.5445275  50.6067419 106.0919775  64.1160154  79.6291161
 105.9550097  64.0510082  80.5742359 106.4471301  63.2629585  79.3793344
  14.3167222  24.4687510  51.5735960  14.3999493  23.5394144  51.7872381
  13.4914839  24.5309663  51.0926151  90.8368317  25.3676724  50.6610203
  91.1816291  26.1587667  50.2468777  89.9976723  25.6385565  51.0333967
  93.3742372  43.7708950  33.7206388  94.1176383  43.9163828  34.3058062
  93.6637179  43.0712461  33.1350446  41.9255829  21.0630012  60.0681543
  42.1950197  20.4206586  59.4116259  41.1140871  20.7083154  60.4313421
 107.0149838   4.5975143  80.8593845 107.1429939   5.4735899  80.4956055
 107.8674196   4.1723222  80.7655907 102.4798058  20.4911089  62.3616982
 102.6189331  20.4330349  61.4164448 102.5728951  21.4227533  62.5607014
  63.4388508  94.2983610  42.9453278  63.1247636  94.8287720  42.2130394
  62.9187371  93.4960575  42.9003620 107.7070364  56.2864256  54.7251272
 108.6244747  56.5246391  54.5917273 107.4409569  56.7823601  55.4993916
  61.0151132  77.1631040   7.7896482  61.1110266  76.2611379   8.0954057
  60.2266201  77.4822320   8.2285863  71.7633223  49.9108141  82.2981405
  72.0322561  49.1514305  81.7811846  70.9158563  50.1624494  81.9311076
  20.5368519  19.6268094  51.7730761  19.8871160  20.0754237  51.2319469
  21.3571310  19.7192740  51.2884903 105.3578694  31.3285851  26.3429713
 105.6315727  30.4115963  26.3217258 106.1012141  31.7915201  26.7294455
  80.4798714  17.2889113  50.6504536  80.9039656  18.1398809  50.7610321
  81.1963169  16.6560495  50.6997013  41.7324543  63.0627775  58.5651493
  42.4621582  62.5626898  58.9307642  41.5317106  62.6239300  57.7384996
 104.8578463  37.2220993  71.1912489 104.7902487  37.9839826  70.6157494
 104.2251001  36.5973711  70.8368778 104.7095306  21.8669248  82.8288746
 104.3193321  21.0667562  83.1805992 105.1841946  22.2469282  83.5681534
  20.7017803  58.2695293  36.3904071  19.8218322  58.5915899  36.1949658
  20.6703353  57.3384190  36.1706805  71.2967473  66.2898929  55.9439325
  70.7983695  65.7619984  56.5677738  71.8393948  65.6566364  55.4740858
  41.6617584   1.4637715  79.9991274  41.4792347   0.5799346  79.6801519
  41.5147257   2.0276028  79.2397165 101.3587670  30.3221846  53.3633709
 101.7971234  29.9204326  52.6132584 100.5498330  30.6846428  53.0021524
  21.7902493  64.6328974  24.0738869  21.5950346  64.3557787  23.1787181
  20.9656787  64.9956226  24.3975282  18.5074008  56.7019463  58.1927013
  19.0914607  55.9910250  58.4567022  18.6639249  57.3922920  58.8370323
   3.5052403  95.7035698   2.0362932   3.9497241  95.0083841   2.5214464
   4.1850575  96.0761656   1.4748174  24.4339299   5.1959193  79.9089289
  24.3934894   4.5396081  79.2133331  23.7331057   4.9489224  80.5123138
  93.9598755  15.1762938  64.5064688  94.5430736  14.6279335  65.0312662
  94.3389587  15.1565850  63.6277533  23.9271426  48.5639286  68.3439159
  24.0068126  48.3892488  67.4061680  24.7093749  48.1684256  68.7285233
   0.2880707  16.3781548  55.4228544   0.2713032  15.7164991  56.1143494
  -0.0805169  15.9352100  54.6585417  91.6689257  41.8006134  70.4458523
  92.2445456  41.0820770  70.7077599  92.1087174  42.5884676  70.7653856
   5.3155077  21.7179823  83.1488895   6.0496563  21.5677619  82.5533295
   5.4887480  22.5786448  83.5303116  84.5038768 100.9504218  48.3112144
  84.1761800 100.8925056  49.2087030  83.7814911 101.3379189  47.8170109
  91.3849465  28.9449477  40.1575994  90.6070177  28.7509155  39.6347165
  91.2620644  28.4448361  40.9644604  30.5456305  38.2751942  72.6509953
  29.6186113  38.2834387  72.8893185  30.6178093  37.5830889  71.9937229
  18.3024573  52.8782082  53.8613081  18.4294868  52.9998255  52.9204035
  18.3979273  53.7558317  54.2312956  87.9603426  39.3221784  52.6430655
  88.3352987  38.8849068  53.4075499  88.7183313  39.5751381  52.1160936
  24.3616533  13.3355987  60.8737516  23.4568930  13.2079291  60.5885458
  24.8339725  12.5839603  60.5157185  31.5052462  59.6024418  73.5508394
  31.1664629  59.5314121  74.4432592  31.3090420  58.7547064  73.1519890
 105.2242849  42.7580404  81.4610577 106.0138772  43.2665491  81.6459942
 105.4052035  42.3307323  80.6238556  20.7284832  56.2675524  53.8480568
  20.1625657  55.9510088  54.5521641  21.0782027  57.0960331  54.1759920
   7.2785699  45.8209753  68.1269979   7.3460227  46.7704487  68.2278633
   6.5004063  45.5813360  68.6302567  10.9291029  34.5580673  85.9907341
  11.7742991  34.5074821  85.5442810  10.2914274  34.2959404  85.3267288
  10.6042671  53.0636835  70.1798534  11.2553155  52.9449797  69.4882774
  10.8349144  53.8996840  70.5849981 107.2189089  53.9486122  47.3525047
 107.4646894  54.3131495  46.5022516 106.2671484  53.8570595  47.3077679
  99.0184711  15.5328465  55.2799273  98.5907147  15.1705265  54.5040560
  99.2484234  14.7671032  55.8062267  19.5235860  48.9468336  66.6753006
  18.7890673  49.4837141  66.3778591  19.3303978  48.7650394  67.5950098
  16.5919912  31.8384147  80.1239872  15.7693195  32.0879459  79.7030687
  17.1713638  32.5865984  79.9798346  88.1905739  54.9201393  61.8693018
  88.0979065  54.8118162  62.8158283  88.3336942  55.8588409  61.7485237
  24.0489793   9.9085039  76.6957378  23.4517741   9.8015928  77.4361086
  24.8527002   9.4672877  76.9706726  95.6952707  18.3359313  82.9412460
  96.4481930  18.6305630  82.4288654  95.1939456  19.1335535  83.1106663
   9.5451242  15.5681181  88.0397797  10.1171362  16.2045085  88.4687805
  10.1077962  14.8106956  87.8787041  78.4689848  18.6430478  64.1190529
  79.3130771  18.5372615  64.5578575  77.9123418  17.9662573  64.5041990
  91.0123317  12.8456783  48.1362343  90.3205828  12.5141001  48.7087440
  91.7040483  12.1862006  48.1896210 103.8104753  35.1266599  40.9823608
 102.8888724  34.9198103  41.1375761 104.2347760  34.2738318  40.8880997
  23.5880637  29.8803735  43.6702967  23.9541149  29.4601345  44.4485283
  24.2025399  29.6630001  42.9692984  51.7054272  34.9037266  50.8454037
  51.2135458  34.1104245  50.6333733  51.8681049  35.3183126  49.9981260
  83.9157693  24.5929837  21.0311747  84.0484349  24.2237163  21.9042563
  84.7990672  24.7809482  20.7138658 103.3803735  68.5659075  69.0963316
 102.7803670  69.0720034  69.6441317 102.9035662  68.4347248  68.2767677
  11.9484723  40.5557060  76.6851473  11.1241674  40.6648779  76.2109756
  12.2563565  39.6851587  76.4329767  87.4662558  19.2722332  44.6898317
  87.1551101  19.5192504  43.8189650  88.1797520  19.8838651  44.8716545
  61.0534986  97.3540358  35.7779980  61.1665901  96.5054185  36.2061214
  61.7707773  97.8902677  36.1159301 100.9225915  49.6687460  59.3162775
 100.4027824  50.4128075  59.0122938 100.2872078  48.9611387  59.4249535
  94.2135422   5.5221713  86.9243145  94.2295448   4.5960590  86.6828728
  94.3433480   5.9874094  86.0979176 104.2920883  37.8000689  49.0759325
 103.6208246  37.8046417  48.3935738 105.0742302  37.4614811  48.6402225
  88.5130493  18.9725614  71.1286926  88.0407016  18.1983340  70.8226013
  88.2914142  19.0366220  72.0576715  20.8298540   9.2061919  83.0710888
  21.4557123   8.5154039  82.8534985  21.3636303   9.9968141  83.1500244
   3.5866597  18.7102509  53.2126951   4.1038251  18.3457172  53.9309454
   2.7306747  18.8905025  53.6013222  30.1511312   2.8157562  36.2907648
  29.4097733   2.2544441  36.0637212  30.9097648   2.3787290  35.9038353
   8.5211891  59.4553518  30.5269599   7.8449684  59.6242523  31.1830306
   8.7046278  58.5193586  30.6075501 105.8134712  17.4259126  38.9771295
 105.9503892  17.5582802  39.9151921 106.4193071  18.0371201  38.5580587
  96.6695778  18.5133064  74.7567081  96.6925399  17.7251434  75.2993917
  97.4242036  19.0258336  75.0466871   7.8517318  28.3180666  60.1540995
   8.1351769  28.7337685  60.9683943   7.7164018  27.3999023  60.3883886
  98.9939515  28.1440830  18.7386334  99.7052006  28.0352759  19.3699169
  98.9714305  29.0847588  18.5629749  25.8013988  39.9616027  48.2696009
  26.3780832  39.8626447  49.0271425  25.9354997  39.1622162  47.7604532
  11.2613595  71.4604950  37.0349193  10.5742133  71.0789537  36.4885783
  10.8290839  71.6462612  37.8685021  32.0242834  13.0079496   7.8270674
  31.4420104  12.2834408   7.5984281  32.7735329  12.9075253   7.2398955
  33.4610081  72.8863764  39.2773294  33.7918639  72.4566841  40.0660801
  33.5991669  72.2457170  38.5796952  98.8598649  23.9515448  54.1367483
  98.0857400  24.0549231  54.6901703  99.2711083  23.1453037  54.4483376
  37.7999306  38.8771725  34.3970060  37.9329920  39.6227455  34.9823666
  36.9367003  38.5379553  34.6336341   8.7140989  47.1369600  32.1462584
   8.1741822  47.8493118  32.4887156   9.3241310  47.5659561  31.5462136
 107.8868079  53.4185171  50.2162218 107.6372497  52.5023985  50.3373718
 107.8610545  53.5504532  49.2685080   5.8222359  56.0317183  60.6070328
   6.3498968  55.2496624  60.7688665   6.4417201  56.6694546  60.2523947
  11.7770791  20.5644560  51.9003725  10.9768474  20.9574890  51.5519667
  11.5373778  19.6562016  52.0843554  22.6809931  56.7648268  32.9052472
  22.3600030  57.6571178  32.7748132  22.6058745  56.3549089  32.0435309
  97.1908001  20.9309196  64.5267534  97.7297394  20.6157374  65.2523136
  96.3352422  20.5264878  64.6705914  21.5032053  14.8604369  43.3694410
  21.7624354  15.5602002  43.9689112  21.4103699  14.0886831  43.9280224
 100.8144496  23.1299114  59.2173290 100.4692684  23.7125897  59.8937654
 100.8189921  23.6624765  58.4219790  95.3445010  33.8180637  31.8889618
  94.4534294  33.9630747  31.5708518  95.8376006  33.5592532  31.1104369
  17.5315702  22.9932237  86.5458584  17.6278245  22.2200489  85.9898376
  17.8888404  23.7106156  86.0224724  19.6988642  46.7763281  61.7892885
  20.4972768  46.6262531  62.2954941  19.1809487  47.3726273  62.3300505
  25.3428626  26.7538953  43.9162254  25.6186771  27.6699471  43.9479876
  25.6912374  26.4274955  43.0865717  15.4044759  54.3473244  57.9048967
  15.4997241  55.2368736  58.2452917  14.4791067  54.2785788  57.6699591
  94.2945115  32.9141021  28.9300537  94.5266358  32.2123241  29.5382142
  95.1259534  33.3460188  28.7341356   6.7263043  32.2184610  28.8878369
   7.4166471  31.8922949  28.3105373   6.6817158  31.5750718  29.5951509
  91.6079478  26.7265940  36.5517116  91.9743280  26.1823416  35.8547282
  92.0979683  26.4751458  37.3345804  34.9939752  28.5121036  54.1890097
  34.8198605  29.1961837  53.5425138  35.8735681  28.7066436  54.5125866
  53.7132474  87.8387274   7.2720033  53.5740181  88.3376016   8.0769712
  54.6625134  87.8424658   7.1490652  93.4516339  34.3725061  35.9861565
  94.0771727  33.8095474  35.5300736  93.3535842  33.9712453  36.8496418
 108.0168396  59.3297386  34.2124867 107.7468312  58.5460138  34.6911359
 107.6016489  60.0526142  34.6829128  16.6706717  46.2901354  20.3052974
  17.4711943  46.4316607  20.8106351  16.1186159  45.7554483  20.8758903
  92.1599416  47.9000854  65.9424686  92.1249430  47.5841761  66.8453598
  92.9925446  47.5695705  65.6051826  27.4678206  10.1777542  49.9752760
  26.9844460  10.9929085  49.8407269  26.9360256   9.5097435  49.5426273
  10.2140498  32.4405074  71.2219763   9.2578661  32.4359846  71.2658453
  10.4799497  33.1027699  71.8598938  22.4683571  53.9851093  79.2551804
  22.2942710  54.2972898  78.3672237  22.6419401  53.0496264  79.1504478
  24.4055700  33.0930305  70.2991390  25.2127385  33.6075282  70.2979660
  24.5300364  32.4537659  71.0006237  27.5875717  96.8165057  72.9218167
  28.2972586  97.4526733  72.8331333  26.8026495  97.2944253  72.6540071
  26.3542843  37.5383639  46.9437599  27.0843625  37.1077418  47.3884869
  26.1651301  36.9750595  46.1933327 106.5456463  30.5458570  64.0084362
 106.9946421  30.1002550  63.2900524 105.9464985  29.8879623  64.3611765
  74.5172970   9.0669000  81.3111115  74.3561904   9.9491543  80.9765911
  75.4362146   9.0763927  81.5789413  79.6983020  54.8723125  33.6776638
  79.5469348  55.6271315  34.2464924  80.1951782  54.2596292  34.2198515
  19.8160374  21.8996191  46.7364788  19.1941500  21.2498760  47.0640802
  20.5723000  21.8218684  47.3180771   3.0431822  47.8343821  58.1454849
   3.9765581  47.6566887  58.2615328   2.7295423  48.0506086  59.0236139
   6.4097285  16.9316983  51.1607409   6.1601406  17.0986104  50.2518511
   5.6191051  16.5735543  51.5643263  94.0058688  33.0789447  42.1879292
  93.3199851  33.6004257  41.7709684  94.6188645  33.7254333  42.5379610
  25.2088094  32.8524876  52.6224804  24.6226192  32.1530271  52.9112148
  25.9441662  32.8164911  53.2341862   8.1538624  11.8647873  39.3066597
   7.3253876  11.5346503  39.6543241   8.4657019  12.4777758  39.9724174
  43.8078547  47.6045942  69.7481394  44.7609615  47.6321173  69.6641159
  43.6547184  47.3787260  70.6656218   8.9778304  59.4536400  48.5532236
   8.2502419  59.2780113  47.9565668   8.5590440  59.7553444  49.3593407
  97.7598445  21.6549659   8.8715869  98.3589701  21.1640930   9.4340134
  97.6648573  21.1105800   8.0900156  98.2537858  26.7890263  50.3887129
  98.8039581  27.5464272  50.1889944  98.5760401  26.4750290  51.2335730
  47.2794588 101.4833563  87.8033543  47.0861514 100.8945114  87.0738792
  47.4219998 102.3357315  87.3918056  94.5413367  48.5926247  84.3936539
  94.2847602  47.8085661  84.8790932  95.4726879  48.4675026  84.2115498
  15.6385374  55.3929663  87.4018288  15.1678300  55.8325958  88.1099129
  15.1732004  55.6535053  86.6069603  28.9078379  51.9422436  41.0157919
  29.4299078  52.7177572  40.8102322  28.5700703  52.1073294  41.8960714
  10.3131843  56.3243484  33.0591202  10.8370543  55.5242109  33.0987215
  10.2438295  56.5192080  32.1245337  63.8471262   7.8981501   0.1623804
  63.0481021   7.6150376   0.6069452  63.6573677   7.7816493  -0.7685584
   3.8578376   9.1567165  28.5009241   3.7281573  10.0386834  28.8495636
   4.5332375   9.2610162  27.8307080  16.8953788  30.9221721  55.4075575
  17.5068319  31.3906741  55.9757662  16.0787809  31.4170218  55.4748058
   0.1571791  15.0887263  53.2208490  -0.7457383  14.9207246  52.9511309
   0.6375821  15.1905394  52.3992157 105.9913078  15.9777570  47.7489805
 105.3044589  15.3652537  48.0122471 105.5547699  16.8291247  47.7199936
   2.7664489   9.8323011  57.9847622   3.2499889   9.3089569  58.6239290
   3.2515985  10.6558418  57.9333591  87.5364940  58.0982351  52.6408195
  88.1279699  58.4919691  53.2821941  87.1022860  58.8437176  52.2261477
  77.8676107  92.9944725  39.7208953  78.1414117  93.2193334  38.8316822
  78.3886172  93.5669971  40.2839231  22.9009676  60.3927994  58.2647085
  22.6585984  60.5212545  57.3476505  22.5998592  61.1872864  58.7055683
  32.0014739  52.2522736  59.0902138  31.8155241  53.0241728  58.5555840
  32.6079798  52.5659800  59.7610092  92.2852914  25.4391486   3.2123739
  92.1765677  25.2749020   2.2756559  91.5315513  25.0121028   3.6194879
 102.7238874  54.2060137  50.9052944 102.8302072  55.0984859  51.2345743
 101.9753603  54.2575979  50.3109217   1.5664603   1.4802025  24.1912580
   1.1790298   1.2279361  23.3531094   1.3382873   2.4043216  24.2921185
   6.8926072  28.9690113  33.0641723   6.5994573  29.3468022  33.8933706
   7.3478764  28.1651974  33.3148670  84.3275849  44.5212364  40.6574154
  84.7461359  44.4965267  41.5179014  83.6349503  45.1758480  40.7466888
  12.0937014  53.1628609  67.9972172  12.9376149  53.0941629  68.4436703
  12.3198247  53.3186531  67.0802498  74.0382370  54.5635639  11.9958574
  74.6608194  55.2791647  12.1244604  74.0917333  54.3646349  11.0610944
  55.6252623  30.6223106  16.6702724  55.7232189  30.2287793  17.5373185
  54.6904469  30.5487466  16.4780807  40.0049210  49.5399284  81.2860012
  39.8186064  49.0091372  82.0604515  39.2649674  49.3777943  80.7008362
  85.7993762  64.4073915  58.2488251  86.7220060  64.4621325  57.9998398
  85.6619613  63.4833193  58.4572506  19.7270930  10.4540539  36.2356925
  19.3633533  10.1744461  37.0757771  20.0401998  11.3445044  36.3947296
 101.0810856  23.0220914  32.4428034 101.8094228  23.5918474  32.1955490
 100.4927306  23.5884857  32.9420710  19.8614538  56.7162848  45.5483627
  20.4022264  57.0247936  44.8213005  20.4803920  56.5777969  46.2652779
  88.0240377  98.8474203  57.4557638  87.7180751  99.4406915  58.1417990
  87.9935809  97.9795928  57.8584766  16.0928977  33.3492446  45.9349823
  16.5650523  33.7669897  45.2147102  15.8146596  32.5045562  45.5809832
   9.1500163  89.3280697  30.6980181   9.1431504  90.1093864  30.1450968
   9.3423092  89.6575832  31.5758967 100.2731500  26.1159158  44.7495699
  99.4760202  25.6892800  45.0638914 100.1283835  26.2319326  43.8105202
  93.8262646   6.4112604  27.0773458  93.2617823   7.0108306  26.5893817
  93.6482577   6.6095263  27.9967117  89.1968982  26.4226365  55.9566832
  88.4048597  25.9455609  56.2042904  89.2734854  27.1161461  56.6119766
  23.0874848  19.7445941  76.6802263  22.2248864  19.3772328  76.4873552
  23.4653735  19.9324286  75.8210707  53.5918856  31.1586308  62.1531725
  52.8843880  30.5881405  61.8527985  53.8152647  31.6869426  61.3868713
 106.3382020  45.2142859  56.8549824 106.9182244  45.8539009  57.2681379
 106.4506757  44.4182634  57.3745298  97.6378660  34.4544268  26.1225605
  97.8479091  33.6592650  26.6122818  96.9364445  34.8675799  26.6260934
 102.2128330  48.8224459  68.8550520 101.4493607  49.2800331  69.2071199
 102.3441343  49.2072296  67.9884911  12.0761514  18.7672555  28.2919455
  11.7918146  17.8930259  28.0252886  11.9403279  18.7847137  29.2392993
 101.9536589  57.7167273  25.7156730 101.2472985  57.3619938  25.1758099
 102.4653761  58.2584047  25.1148725 103.1218139  62.8283119  65.1058674
 103.7051643  62.5529671  64.3986750 103.5058258  63.6431694  65.4295540
   9.5193589  49.3564558  55.4603386   8.8568383  48.8205051  55.0243855
   9.6163392  50.1234436  54.8959303   5.0866777  42.1707916  42.2324800
   5.2871466  43.0978584  42.3613119   4.5066527  42.1547174  41.4712000
  28.6572194  42.7280378  23.5144496  27.8875065  43.2236195  23.2348514
  28.9263535  43.1451702  24.3328619  10.0980365  49.6606159  48.9013243
   9.5564139  49.0996885  48.3461332  10.9757912  49.5938730  48.5253906
  36.3641071  44.5737600  67.7744389  36.2280273  43.8941765  67.1142292
  35.7598805  45.2733755  67.5260925  -0.0831674  47.1440935  58.2619095
   0.8271066  47.4398661  58.2742643  -0.5807682  47.8860378  58.6056328
  10.3610659  39.1310549  58.3309698  10.6470942  38.3314180  58.7725592
  11.1739016  39.5730662  58.0857038  98.4373196 101.1491101  75.4260778
  99.3583639 101.3471252  75.2566671  98.4589179 100.4489977  76.0784626
   0.1353239  37.9331875  33.2829070   0.6181663  38.1309390  34.0853977
  -0.5609544  37.3388839  33.5626078  23.5274553  36.5559316  59.8485470
  23.6563468  35.7475924  60.3447437  23.7311673  37.2540689  60.4709148
  30.3514576  45.6037855  54.2382240  30.0937200  45.3123474  53.3636570
  29.6855807  46.2466097  54.4823885  65.8183750  86.7930283  21.8786890
  66.2173089  86.7050470  22.7443296  66.2350687  87.5673546  21.5005094
 106.6222430  38.2612133  45.6984282 105.8590735  37.7025819  45.5510044
 107.0996879  37.8319955  46.4083910 103.6211948  26.9187880  55.4888344
 103.7563727  26.0022068  55.7293272 103.9000208  26.9701576  54.5745897
 104.5487783  26.2935948  52.6982832 104.7478129  26.1325812  51.7759514
 103.8829298  25.6416345  52.9169750   6.3646847  20.7049751  57.4111462
   7.2986788  20.6146312  57.2221327   6.0059512  21.1455894  56.6408205
  20.1812053  60.3723097  87.3303032  19.6681857  59.5760345  87.1924782
  21.0919404  60.0806427  87.2887897  22.1727514  70.4457474  27.3637652
  22.5981903  69.5940161  27.2648764  22.2353721  70.8468437  26.4969134
  46.2677813  22.9742408  46.4700460  46.1854744  22.6541829  47.3683882
  46.9991446  23.5909629  46.5015745   9.6625149  50.6299829  63.5339785
  10.2023315  50.0567865  64.0782928   8.7626427  50.3712082  63.7327147
   5.4658765  20.4934859  51.8384743   5.8777368  19.8804832  51.2295151
   4.9065560  19.9451351  52.3886585  17.6868248  44.1666889  58.5969543
  16.9440186  43.9647818  59.1659021  17.7395737  43.4215546  57.9984379
 101.3401560  39.7738695  67.3895645 101.3067196  40.6439590  67.7871323
 101.9625316  39.8640299  66.6679335  56.9484377  56.3310194  22.3703074
  56.3603449  56.8096018  22.9545474  56.6802740  55.4162788  22.4572802
  97.9018943  12.9015040  48.7640238  98.2430641  12.5127852  49.5694637
  98.5150723  12.6214087  48.0844688  36.7625666  30.9184480  62.6325750
  37.5588107  31.0048890  63.1567478  36.1218572  30.5352736  63.2316589
  22.2705173  16.8093514  63.1838131  22.5205016  17.5357890  63.7548018
  22.4422908  16.0250342  63.7049389  40.3305769  21.5732551  51.4302969
  40.3869343  22.3221803  50.8368635  41.0065269  21.7373180  52.0878744
 104.9574600  22.1009135  65.4840040 105.3225071  22.4045038  64.6528530
 105.6935231  22.1335578  66.0950470  21.1004448  45.1809072  27.4718022
  21.4289045  44.3149328  27.7135301  21.7615581  45.7888222  27.8028631
  57.9678627  99.2785767  60.2644682  58.9180895  99.3939026  60.2656317
  57.7548929  99.0545706  59.3585443  95.1179222  71.0014057  50.6557083
  94.4736807  71.6994286  50.7738161  95.8841209  71.4422560  50.2885246
   2.8587374  24.9029422  59.6458530   3.7723321  24.6176672  59.6598148
   2.3668481  24.1193080  59.4005108 105.1992406  40.6355953  60.9178734
 105.9082983  40.2923632  60.3741264 105.0710378  41.5316772  60.6066847
  38.9428806  47.2860336  25.4369903  39.7547555  47.4045038  24.9439859
  38.4350753  46.6637897  24.9162436  38.7168579  88.1056060  21.7249471
  38.8599070  88.6480512  20.9493619  39.1482048  87.2760667  21.5199167
 100.6496767  26.5712309  48.1253099 100.7126025  27.5132251  47.9674673
  99.7941057  26.3259792  47.7730560  85.4983227  37.6885653  36.6383529
  85.9811680  37.3912573  35.8671856  85.3022591  38.6080265  36.4584017
   5.6644434  43.4003210  32.7483225   4.8953587  42.8745699  32.9681468
   5.7345319  43.3356285  31.7958856  85.8307950  51.3276100  44.4442844
  86.5108077  51.8741369  44.0504313  85.7139341  50.6071997  43.8249397
  23.8536692  23.0152154  28.9402390  24.1643929  22.4503112  28.2327342
  23.3819437  22.4252534  29.5281601  21.5789533  27.9913211  68.9280844
  21.7550993  28.7670493  69.4604826  21.9652104  28.1930017  68.0758142
  52.6583930  99.8744706  26.5982771  51.9774898  99.8238116  27.2691250
  53.4255560  99.4713938  27.0047522  14.7612154  45.2029514  83.4307384
  13.9275038  44.8617506  83.1070995  15.3724599  44.4726515  83.3344555
  15.4424965  14.9886620  86.8513966  16.1906290  14.4126284  86.6941929
  15.8039606  15.7191062  87.3534203  27.6219058  75.5498457  24.5956063
  27.8514838  74.9187326  25.2776766  28.4640503  75.8480358  24.2519379
  77.3041312  29.8937988  47.0214272  76.9242446  30.3737092  46.2854862
  77.2239582  30.4919624  47.7643967  13.8261199  54.7609425  73.5869265
  14.6376121  55.2440834  73.7427664  13.1805491  55.1894569  74.1489267
  25.5572081  24.6349382  26.8928623  25.9374523  24.2075944  27.6603436
  24.6790838  24.2608404  26.8209028  29.1780496  52.6478767  53.3069181
  29.4782043  53.3266544  53.9113998  29.8283863  52.6480198  52.6045704
  12.3440635  23.5548520  23.6806536  11.7962337  22.8131247  23.4238362
  12.1751928  23.6646676  24.6164179  88.7019674  57.3847294  35.5867338
  89.3331150  57.5748491  34.8926592  89.1984836  56.8788099  36.2299657
  19.3534374  22.0647383  29.2812252  19.6708429  22.9526711  29.1167307
  18.6195123  21.9568300  28.6762929  11.8099511  62.3716021  60.0029373
  11.6543341  62.8011942  59.1618299  12.5378466  61.7730665  59.8351383
  85.0281974  95.8745117  51.5231895  84.2056092  95.3980566  51.6353130
  84.9491223  96.6294444  52.1063280   5.7184523  53.5371876  41.6508722
   4.8298866  53.8001585  41.4110184   5.6583595  52.5926161  41.7937231
  17.9443991  65.8236170  27.9882503  18.5223663  65.7867908  28.7503719
  17.8115797  66.7588139  27.8333497  26.7837501  56.5754890  63.0956507
  26.2654090  55.8027697  62.8710175  26.9484997  57.0056009  62.2565460
  31.7752481  27.0594311  41.6844225  30.9690166  27.1623540  42.1900177
  32.3425651  26.5287328  42.2436619  97.6505121  77.9093558  50.3596640
  98.4887775  77.6188333  50.0003004  97.8832944  78.3806140  51.1596394
 108.0997127   6.7378396  62.3722267 107.2231853   7.0452398  62.6033878
 108.4543930   6.3885593  63.1898069 104.5104079  12.9924524  18.5718727
 103.8088156  13.6167669  18.7568891 104.5275209  12.4176860  19.3371069
  31.2837839  21.1671638  45.0413799  31.6821599  21.9463730  44.6536160
  30.7118154  20.8237767  44.3549633 105.4778026  56.3158941  20.0324345
 105.3739927  55.4776716  20.4828119 104.6631907  56.7859411  20.2104616
  52.0139933  19.6751368   9.1309035  51.2812471  20.0300264   9.6342641
  52.6871157  19.4900620   9.7857964  81.4605657  34.1892314  71.8350887
  81.7001240  34.3098426  72.7539444  81.3130538  33.2475162  71.7476559
  10.6664312  11.5897584  56.9772625  10.8994102  12.4401617  57.3497772
  11.0990572  10.9526360  57.5457191  33.6485314  46.7065430  68.0986071
  33.8185453  47.2604036  67.3366594  34.1628456  47.1025324  68.8020992
  95.1230602  29.6488762  34.3533874  95.9390847  29.3472457  34.7525811
  94.5138149  29.7316289  35.0870109  29.0577364  19.9120235  49.8230076
  29.3922663  20.0310516  48.9341021  28.9149261  18.9687455  49.9008703
  35.9642982  60.8970451  51.5554810  36.7702127  60.7614183  51.0571432
  35.6788731  61.7782402  51.3141155  25.6782866  49.5725060  44.5198154
  25.0822711  49.7312164  45.2518034  26.0323000  50.4361439  44.3076086
  74.8651473  48.1826305  83.7196827  75.5961983  48.0326319  84.3190956
  74.4388048  48.9714909  84.0545845  36.3507438  66.8328238  35.4344654
  35.8018351  66.5522289  34.7022080  35.7410550  66.9356728  36.1651731
  43.2744455  22.2252107   6.6452569  44.0748978  21.8084073   6.3262296
  43.3188152  22.1320820   7.5968814 101.4624814  34.5582151  45.4370308
 101.4380084  35.3253341  44.8650503 100.9975420  33.8795948  44.9476051
  17.2305954  28.1193924  61.7817593  16.7191458  28.1529808  60.9733534
  17.2272766  27.1946883  62.0290327  21.7873716  26.5821481  54.6999502
  21.4922309  26.9786286  53.8802385  21.0163975  26.6021347  55.2668953
  70.8381732 100.5022820  22.3412228  71.4172080 101.2630590  22.2946525
  70.8488915 100.2492813  23.2643199  13.1160295  50.2141953  43.3872938
  12.7058315  50.6356430  44.1425133  12.4262381  49.6641254  43.0160236
  31.7456365  57.8193188  86.5992451  31.4028454  57.8134155  87.4929428
  31.7824554  58.7461662  86.3629627  35.7224941  20.9401917  42.6165962
  36.0004520  21.6241026  43.2258892  36.3182664  20.2107191  42.7873421
   6.1032033  37.0262337  42.0402288   5.4896712  37.5622606  41.5377522
   5.5758190  36.6607118  42.7505064 105.6389309  50.8366251  11.3063335
 105.9972998  51.7229748  11.2595809 105.2884967  50.6734657  10.4306591
  24.3772745  74.6488857  51.1193895  24.1874766  75.2866888  51.8074369
  24.0977931  75.0784206  50.3109217 101.3293568  19.2933524  72.0604706
 100.8280412  18.5200381  72.3191214 100.9854583  19.9968731  72.6109457
  92.2484450  12.7381194  30.5630088  92.0828478  13.2872498  31.3293409
  92.4454431  13.3589232  29.8615646  11.0410404  12.1247828   5.3177655
  10.4353619  12.6834929   4.8307052  11.5522885  12.7335036   5.8509791
  33.5903811  35.8874226  41.0456276  33.5303092  35.7429910  41.9899607
  32.8180885  36.4118075  40.8339262  36.3718319   4.3030459   8.9713556
  36.7693901   4.4249207   9.8335153  36.2153435   3.3606679   8.9108163
 103.3802639  16.0427642  71.9636679 104.1814832  16.5611839  72.0379686
 103.2027803  16.0095561  71.0236549  21.8962455  33.5727358  68.0678129
  22.7316856  33.1603384  68.2873535  21.7748213  34.2414784  68.7418127
   3.6965895  15.8501720  64.4404507   4.1140369  15.8731246  65.3015232
   3.7331277  16.7556942  64.1323471   6.9381881  46.7949820  74.9901819
   6.8292707  46.9063234  75.9346247   7.7721119  46.3342333  74.8979282
  34.5266223  10.3529179  25.8317447  35.0155067   9.5306593  25.8651185
  33.6112165  10.0915158  25.9314013 105.7386760  61.5099382  49.9695921
 105.3876416  61.0406065  50.7263851 105.9400962  62.3845053  50.3024483
  84.4576065  19.7314119  58.0929422  84.0737526  19.3435919  58.8793802
  85.4017917  19.7010362  58.2472897   2.7987820  29.8836446  27.1607018
   1.8904537  30.0748658  26.9270229   3.0210277  29.1090870  26.6440797
  22.1984100  69.9780846  51.1040401  21.4387655  70.5217600  50.8952522
  22.9523325  70.5311060  50.8991051  88.3205466  45.4268169  51.0241175
  87.8648607  45.3501320  50.1858425  87.7092139  45.9025574  51.5864086
  71.5228367   2.4436855  47.5583267  71.0099697   1.8858972  48.1431961
  71.6255236   3.2647792  48.0394650  91.4002125  66.7161989  53.3905554
  91.2350063  66.9822407  54.2950773  90.6772832  66.1256552  53.1787491
  16.8054974  43.4542036  53.5659599  17.3452914  42.6983976  53.3344173
  16.2754965  43.1529427  54.3039131   1.9485533  62.5404453  34.7874475
   2.1470255  63.2429266  34.1682863   1.1610548  62.8380680  35.2429676
  37.8030396  41.2698460  35.6168175  37.5338268  42.1792126  35.7464719
  38.6293435  41.1943197  36.0940456  39.5705414  26.0953736  32.3833942
  39.0461278  25.5055952  32.9250407  40.1485920  26.5397072  33.0036020
  22.0985508  47.0635462  69.6324110  21.4789224  47.7205467  69.9496460
  22.5992632  47.5149393  68.9528799  20.3771830  38.7343001  46.7348862
  20.5804801  39.5553541  46.2868071  21.0153246  38.6855030  47.4466610
  21.2297916  35.7929826  85.1591015  21.9880176  35.7897234  84.5748806
  21.4699888  36.3991570  85.8598804  12.5870681  40.0587130  41.4069176
  13.1401002  40.1738262  42.1796656  11.7029440  39.9542332  41.7585421
 101.1742119  34.1367960  38.0317235 101.4901273  34.4758630  37.1941876
 100.2226685  34.2290354  37.9838777  25.2275205  22.6076818  69.8148012
  25.2440977  23.1203103  69.0066147  25.8265305  23.0679131  70.4026842
  30.2968383   4.8830011  48.4774065  29.7604585   4.9323881  47.6861477
  29.8835826   5.4958808  49.0855408  20.2815986  66.0350800  73.2183743
  19.9569309  65.5517578  72.4586248  19.6771550  65.8058071  73.9242887
 107.7090948  57.5359821  63.5643387 107.7997429  56.9162178  64.2881536
 108.1280409  57.1003199  62.8220987  38.5980320  19.7228253  10.0820339
  38.1671643  20.5024004   9.7315377  39.4811964  19.7514033   9.7140193
  96.9599895  23.6786556  41.1952591  96.4347355  22.9400349  41.5031195
  96.4727430  24.4529295  41.4768982  20.2475929  25.5616832  58.7868643
  20.7021403  24.8546839  58.3288574  20.5074954  25.4599166  59.7024632
  87.1351830  61.2530136  69.2432404  86.5220444  60.8664465  69.8684263
  86.5840022  61.7695951  68.6553860  23.5192776  30.7565713  53.3763647
  22.5713539  30.8764911  53.4337282  23.7541223  30.3116179  54.1906738
 107.3398658  55.5114698  65.6605244 106.5471217  54.9776268  65.6076050
 107.9430009  55.1071072  65.0368690  35.6156683  83.9628792  73.3391714
  34.8518014  83.8117409  72.7824879  36.0023427  84.7706127  73.0011129
  90.7736306  15.0091290  60.9552574  91.4671521  14.4007087  60.7001400
  90.4756812  14.6892548  61.8068075  28.4421492  91.2547588  48.0604315
  27.5982118  91.3247204  48.5066462  28.4974957  92.0476151  47.5270081
  28.2704854  61.8822956  44.9890327  27.8829551  62.7574873  44.9796057
  29.1507983  62.0139265  45.3411055  29.8424411  15.7338500  61.6393137
  29.9002862  16.6233921  61.9880295  29.7280478  15.1806390  62.4120426
  40.2457380  56.3145542  82.2195053  39.6888447  56.8916225  82.7420902
  41.0925198  56.7599726  82.1913242  10.5674314  14.4350851  37.4283123
  10.0580871  13.7718594  36.9625521  11.1573303  13.9329123  37.9905176
  15.9227443  60.8993196  52.3757696  15.7247925  60.2774048  53.0759621
  15.9858489  61.7458487  52.8180742  25.9272146  30.4882026  17.8613126
  25.7464838  30.0006151  17.0576799  26.0045648  29.8151779  18.5375428
  73.9899143   1.1230700  54.2562771  74.8813113   0.8211844  54.4309330
  74.0125307   2.0604938  54.4485235  58.2399209  98.8043798  14.9104005
  58.4400567  99.4759668  15.5624372  59.0799936  98.6209883  14.4898302
  35.9828234  66.9855070  50.3098917  35.5920553  67.8309631  50.5306530
  36.8329930  67.2065687  49.9296618  27.0208168  68.4182644  25.7391667
  26.9332576  68.0165434  26.6035676  27.0243597  69.3597507  25.9118462
  31.9132090  40.3646660  50.2251530  32.4548125  39.9241447  49.5702934
  32.5362515  40.6727839  50.8832645  18.6027539  73.9812708  60.5284882
  17.7606583  74.3060637  60.2097130  18.3959138  73.1413126  60.9382677
 107.0259963  82.0026588  31.0703182 106.5337039  81.7412663  31.8484902
 107.6409465  82.6643085  31.3869929  29.2236781  51.3928032  68.3030176
  30.1311588  51.2081671  68.0608940  29.1988611  51.2683535  69.2517710
  18.2879663  27.4836636  23.5233378  19.2296481  27.3121762  23.5310531
  17.8865945  26.6213560  23.6308455  11.7227387  32.5052047  47.4855852
  11.7891669  33.3752942  47.8789854  12.5915003  32.3412776  47.1186876
  87.6096002  79.3397665  20.3697515  88.1384818  78.9197445  19.6914458
  87.3282639  78.6197376  20.9342360  38.3940887  44.2817974  75.9605694
  37.5649071  43.8035917  75.9630632  38.8249683  44.0098715  75.1502419
  41.2901258  16.6955602  73.9328384  41.9745493  16.1663079  73.5233450
  41.2419510  17.4843466  73.3927202   3.1455377  70.5300951  80.2808285
   3.8382733  71.1097527  80.5975914   2.4409309  70.6265306  80.9214973
  26.6680789  60.9710550  34.5192409  27.4879980  61.2378550  34.9349093
  26.2788177  60.3495646  35.1344323  21.0889363  46.2342644  48.1687593
  21.7020559  46.4971018  48.8552237  20.5278707  46.9995117  48.0429029
  76.7597739  46.5252733  57.5050497  77.6145522  46.8468237  57.7917385
  76.3100879  46.2853193  58.3152580  37.4082613  63.7156868  60.8906364
  37.8005934  64.0770864  60.0958395  36.6776562  63.1831217  60.5762815
  19.2791653  38.9956951  51.3287640  19.8166001  39.4821262  50.7036352
  19.6807492  38.1275749  51.3652420  51.4662075  46.6200924  72.3063183
  51.6685915  47.0018864  73.1604290  50.9120321  45.8657217  72.5064278
  47.4505854  51.0041094  59.6576595  47.8695250  51.1264038  58.8057375
  48.0585527  51.3993454  60.2824783  40.2608633  64.0522718  67.4727297
  39.9611497  63.8696289  66.5821981  40.5411291  64.9671936  67.4482012
  44.7658873  56.6138601  52.3484802  44.4242716  56.3162374  51.5052986
  45.7167959  56.5555859  52.2556829  31.8480086  71.2508917  57.6805019
  31.4151692  70.5780983  57.1549225  32.7757239  71.0168314  57.6523066
   7.6181656  23.8861513  49.1419220   7.9384327  24.7806716  49.0257549
   8.1941485  23.5100770  49.8075342  86.7975227  40.6717021  15.3650743
  87.1107487  40.0834281  14.6780092  85.8435766  40.6083781  15.3180772
  18.1799507  55.0825405  55.3624058  17.2477770  54.8658800  55.3439188
  18.2376218  55.8432388  55.9405422  28.9453149  45.5505610  35.2494836
  29.7839022  45.3517771  35.6660032  28.7816310  46.4683294  35.4666042
  96.7432062  82.8376102  45.4729033  96.0223977  82.3750210  45.9003115
  96.5184168  82.8239059  44.5425749  16.9751775  35.3985858   8.1069630
  17.1460319  35.0840330   8.9947116  16.2515485  36.0170984   8.2071370
 107.6332692  40.4860830  47.9421520 107.2558660  39.7655106  48.4467077
 108.3920566  40.7655096  48.4543943  20.5994821  42.4605513  77.3963070
  20.3567982  42.1307659  76.5311050  20.5513692  41.6936588  77.9670954
  33.6080003  16.1695576  38.4547114  34.0433264  15.4776144  37.9567766
  34.2379856  16.4077842  39.1348600  30.3294230  45.4150724  45.1427174
  31.2256169  45.2233505  45.4189634  30.3487301  46.3383722  44.8909616
   8.8821208  63.4400892  56.4106655   9.4254422  62.8246975  55.9183979
   9.4790947  63.8277626  57.0506382  35.7374406  34.3280268  61.7746162
  35.8039641  33.4749866  61.3455105  36.1796331  34.9315810  61.1776066
  42.4119043  61.3411570  61.8617153  41.9634914  60.5475378  61.5696144
  41.9537497  61.5938950  62.6632404  36.8967605  56.2382030  51.7825747
  36.2922645  56.9736814  51.6831112  36.8020725  55.7389593  50.9713936
   2.6252028  36.3628173  74.8628807   2.8263587  36.0021210  75.7263994
   2.9771948  35.7201862  74.2469597  95.4896943  67.9469109  27.6940107
  94.5551304  67.8911209  27.8932810  95.8819453  68.3144379  28.4860301
 106.1944992  66.1380720  23.6344194 105.4558207  66.6163921  23.2578683
 106.2798813  65.3585339  23.0855465  56.3855696  80.0124168  67.2656250
  56.9374561  79.2420959  67.4007607  56.4394474  80.4934978  68.0913925
   8.9110607   9.5079356  56.4441109   8.2071495   9.8532909  56.9931746
   9.5394659  10.2271080  56.3798428  99.2320595  69.4340038  61.3792992
  99.4377957  68.9083433  62.1523380  98.7634234  70.1940155  61.7242479
  26.4844012  67.1069050  46.5699387  26.6380525  67.1421862  47.5140715
  26.8904686  67.9047823  46.2312126   0.1397765  46.5721989  63.8317394
   0.7839608  46.2075758  64.4386244  -0.0697001  47.4332333  64.1936445
  81.1776892  38.4685159  55.4226446  82.1000974  38.7139964  55.4943132
  80.7083074  39.3026018  55.4079914 105.4207302  69.7980452  45.1423550
 106.1802680  70.0764227  44.6306515 104.8517726  70.5674791  45.1644564
  56.4870866  90.4134716   4.7353059  55.9691759  90.6101717   3.9547235
  56.5650686  91.2528242   5.1887876  16.1721349  64.4955969  56.7543125
  15.4532588  65.1088667  56.6015053  16.2316430  64.4289780  57.7073336
   5.8511734  25.4451275  28.1090450   6.0791689  24.8168349  28.7942457
   6.4842105  25.2781868  27.4107432  36.4848638  18.1908011  72.5875854
  37.2755075  18.3044970  72.0601511  36.4117074  17.2440934  72.7085161
  94.3299059   6.4670527  45.6787062  93.6724417   6.8933505  45.1289415
  93.8255541   5.8867788  46.2489223  14.2876208  73.8834572  66.6249418
  13.6449349  74.1862011  65.9834337  14.7350204  73.1568670  66.1912012
  36.0353518  55.7513475  46.9328022  35.5586219  55.0604868  46.4727259
  36.9316483  55.6838942  46.6036654  28.0021405  71.4774418  14.4513476
  27.1605277  71.8297100  14.7408724  28.5841107  72.2370148  14.4270217
  43.2692385  76.8956232  64.4853973  42.5164747  77.3692274  64.8393488
  43.9040518  77.5796652  64.2724943  10.8056724  66.8755960  56.1428595
  11.1850345  66.8339109  55.2650356  10.5548167  67.7928638  56.2520647
  39.1756010  43.1492329  63.9120817  38.8962007  43.9958858  63.5637331
  39.4060159  43.3294773  64.8234844   9.2827249  37.9992270  22.4226761
   8.9445126  37.1851659  22.7957010   9.8108578  37.7189183  21.6751933
 105.6242410  39.5242143  79.8418522 106.2989394  39.0350747  80.3127670
 106.1040346  40.0063229  79.1683531 104.1184847  58.8473463  56.2756205
 103.6059428  58.1284285  55.9059095 104.3883578  59.3642235  55.5165148
  13.4454989  92.5842094  62.5634861  13.7465167  91.7326546  62.2465229
  12.8011537  92.3740768  63.2394218  15.6522155  66.6250658  72.3542166
  15.2133036  65.7760382  72.3018932  15.2659822  67.0474768  73.1214333
  41.1054420  23.2399035  53.9058733  41.2085247  23.7421656  53.0975819
  41.8723917  23.4700465  54.4303274  57.3086929  44.9500465  30.3745532
  56.9952822  45.6844854  30.9023833  56.8696260  45.0569582  29.5307398
  26.9111109  76.2828112  31.2947488  26.1072803  76.2708902  30.7751870
  27.5662303  75.8701658  30.7319188  33.9946485  60.1183414  26.9233632
  33.2851505  59.8082256  27.4861026  33.7596607  61.0233307  26.7184114
  74.5628224   3.9417750   3.8506013  73.7768395   3.4639508   3.5857469
  75.2881233   3.4114653   3.5205347   8.2677275  36.7914367  33.6792850
   7.4516916  37.2916484  33.6895704   8.9478779  37.4388790  33.8648796
  96.7891423  56.4720678  21.0800815  96.5311615  56.1227131  21.9330931
  97.4096207  55.8296108  20.7358527  14.6851623  67.0584202  36.8329525
  15.5892611  67.1049356  36.5220261  14.3898892  67.9688168  36.8479228
  24.7186422   6.1007899  66.5526438  23.9994884   6.4610159  67.0715714
  24.2984653   5.4742271  65.9634876  13.7462473  61.6291189  44.9856615
  14.0719044  61.6022635  45.8853626  12.8568184  61.2799311  45.0423574
  83.7491004  49.8714018  62.8038120  84.3232910  49.1994333  63.1712341
  84.3388931  50.5872822  62.5673914 101.6457681  46.8107700   2.0965834
 101.0823284  47.4566078   2.5228047 101.6318766  46.0556030   2.6845992
  91.8105368  95.9028625  67.4792480  91.9969324  95.2092552  68.1120110
  92.5173859  96.5363216  67.6030779  28.3541799  55.9231901  58.8211393
  29.1752887  56.4072561  58.7334156  28.6144495  55.0718069  59.1727591
  38.3287597  58.1411791  29.0721965  39.1476059  57.9484558  29.5289016
  37.8184867  57.3345852  29.1447258   3.4242779  61.6505337  64.1199350
   4.0568632  61.0873795  63.6739254   2.5713530  61.3409901  63.8150883
  39.9383354  31.7068911  14.0007675  40.8314991  31.4206982  13.8094974
  39.9849105  32.0593619  14.8894894  89.4859080  22.3750455   5.2429372
  89.5472614  21.9921977   4.3677885  89.6805732  21.6493708   5.8360082
   0.6805851  73.4182072  44.3934870   0.8750260  73.2494926  45.3154182
   1.5197705  73.6819744  44.0160942  91.5704278  53.5349178  80.4751015
  92.3787407  54.0332794  80.5954933  90.9225826  53.9971733  81.0069370
  21.5108132  45.2444601  15.9714723  20.6832409  45.7121372  15.8590674
  21.2663245  44.3190718  15.9608603  42.8237963  60.4799032  66.4015532
  42.0895529  59.9320507  66.1241198  43.4529781  59.8645258  66.7779493
  28.2446861  16.9419611  38.7160683  28.8094902  17.7052975  38.5954595
  28.1231141  16.5921152  37.8334236  43.3043528  78.2070351  69.7069073
  44.0913391  77.7355385  69.4338369  43.6239100  78.8759947  70.3123903
  17.6164389  68.0773544  57.1403503  18.5127127  67.9541445  56.8277121
  17.0743036  67.9812336  56.3573551  36.2025547  60.5182409  70.6143379
  36.6367674  60.0966072  69.8727751  36.9119930  60.7189226  71.2247944
  27.7016091  31.9252753  79.9905062  27.9591346  31.0599804  79.6724224
  26.7557096  31.8603706  80.1220131  22.7538967  29.8124981  29.8569083
  22.3487353  29.3844938  30.6111550  23.4209919  29.1935468  29.5600653
  36.3268089  41.5856123  84.1743183  36.2319708  40.9842062  84.9129295
  35.4878044  41.5364695  83.7161732  14.9694300  60.4630899  31.0995436
  15.7489645  60.9135246  30.7744861  15.1575518  59.5337868  30.9682322
  46.7342758  68.4515142  64.2266607  46.1694336  67.7038765  64.0311527
  46.1543751  69.2109823  64.1704226  14.5226896  13.3790231  63.7762690
  15.2805066  13.9633071  63.7526608  14.1776550  13.4700418  64.6644688
  21.4679432  82.4873257  70.9990263  21.0693741  81.8922806  71.6340780
  21.5236855  83.3253384  71.4582205  96.1417083  44.4862556  46.9499969
  96.3284222  44.0239525  46.1329031  96.7769114  44.1354179  47.5742245
  38.0023122  89.4830322  29.5325756  37.7091575  90.0339222  28.8067579
  38.8878679  89.7913742  29.7247958  92.6249401  91.9070148  54.7011948
  92.3311047  92.0977020  53.8103914  92.5568096  90.9552765  54.7772932
 105.7684677  59.7861004  72.2432375 106.1293800  59.5794725  73.1053734
 105.2597586  60.5850124  72.3817539 103.4686325  63.2339668  37.8340888
 102.6485090  62.8209877  38.1044197 104.0559919  63.1108141  38.5797930
  15.8947003  82.5387764  28.9003825  16.7779768  82.4414921  29.2561793
  15.6329811  83.4255219  29.1482091  47.7684879  75.2302170  52.5009871
  47.3351860  75.5391598  51.7053509  48.1922340  76.0093975  52.8609180
  30.8848906  31.5500212  14.3101156  30.4925847  30.6928682  14.1439390
  31.7875671  31.4637780  14.0035677  33.7775230 100.0619221  56.4651346
  34.2954016 100.2888870  57.2374868  34.4147086  99.7066593  55.8454466
  20.8475518  57.3335552  43.0864286  21.7675304  57.4174738  42.8357792
  20.5089355  58.2284021  43.0578423   7.9598331  47.9245234  58.8855362
   8.4640461  47.1134663  58.8208389   7.0879602  47.6430559  59.1627502
   6.2733161  48.0559683  39.5432734   6.9358206  48.3366346  40.1745796
   6.5483075  47.1770477  39.2822862  45.4520893  89.6559811  19.5063412
  45.9571743  90.1638317  18.8713551  46.0763597  89.4556808  20.2037621
  19.9015975  65.2196312  29.7999930  19.8277485  64.3655443  30.2258062
  20.8115005  65.4804134  29.9424696  23.5976601  56.0670471  45.1212215
  23.7631369  55.2820158  44.5991325  23.4992433  56.7673540  44.4761467
  32.6699281  48.8174772  52.9237843  31.8955350  49.2525959  52.5671101
  32.8105068  48.0672741  52.3461485  57.1774244  51.0697699  64.2778778
  56.7498398  51.1620665  65.1292801  57.4950027  51.9491434  64.0727615
 103.7437926  82.9620171  67.8615713 104.4527711  83.5452843  68.1324625
 103.1893046  82.8824711  68.6377478  87.1021811  55.4490137  69.1743708
  87.7567093  56.0688066  69.4963789  87.4754493  54.5876932  69.3615294
  76.6828601  85.4980946  80.7054806  76.9018022  85.0471592  79.8900366
  77.3171369  85.1657867  81.3406944  31.1616802  68.0890226  53.0068254
  31.0919452  67.1364260  53.0695629  31.7103958  68.3384943  53.7504005
  19.4710362  44.1910648  60.6638861  19.6554625  45.1280403  60.7293987
  18.8580585  44.1181850  59.9323273  66.5036329   8.2785647  54.8619699
  66.1491712   7.7740901  55.5941534  65.8574971   8.9685576  54.7114468
  35.1427794  29.8459983  58.4140778  35.7060814  30.1440787  57.6998854
  34.4318628  29.3760419  57.9782200  18.6585999  60.4163027  37.7756166
  19.3801689  61.0425854  37.7177787  17.9105949  60.8769417  37.3954391
  39.1215205  74.1716099  38.3500338  39.7950053  73.6754322  38.8152838
  38.2953548  73.7876129  38.6436749  33.7999344  82.4872017  35.0585890
  33.5697865  81.9693851  35.8300400  34.7459459  82.6148415  35.1293063
  26.5926576  60.5315304  54.3442059  26.5173459  59.7878027  54.9420595
  26.5189576  61.3010359  54.9087143   5.4861695  30.5729389  61.4796209
   5.5961829  30.5127454  60.5306673   5.1525050  31.4580131  61.6263914
  30.0427771  69.7504807  72.4919796  30.7006407  69.1597319  72.8586674
  29.6518970  69.2560959  71.7715454  20.6812119  69.2616892  42.0663595
  21.5077734  69.0115070  42.4791956  20.2173924  68.4342337  41.9382143
  21.5155196  35.1092577  23.2721496  22.1081281  35.7398462  23.6812997
  20.6432414  35.4816818  23.4012222  25.2147150  87.4323750  74.2317486
  24.5515037  87.3755741  73.5438871  24.9152231  88.1461334  74.7948647
  27.0120358  73.8355541  33.1684232  26.8453383  73.0706120  32.6176906
  26.8861413  74.5832920  32.5842404  23.6860561  61.1171961  68.5409498
  22.8927016  61.0802507  68.0066681  24.1548467  60.3098106  68.3297777
 100.8739583  62.5020552  38.8804173 100.4402582  61.9985104  39.5693159
 100.3654150  63.3106184  38.8184786  13.5039413  39.5513153  65.0760651
  12.8303611  39.9124026  64.4997501  14.0894604  39.0724325  64.4894886
  18.3400285  17.5521731  46.4343452  19.2527997  17.7890456  46.2701130
  18.3894145  16.8206573  47.0497084  15.6683743  32.1085835  39.8722315
  15.6847239  32.3684692  38.9511299  15.6544828  31.1517239  39.8509073
  38.1769037  71.1543179  59.5153952  38.4184527  71.4659929  58.6431885
  38.5307264  70.2659702  59.5587921  18.8246191  24.9699879  36.2581182
  18.9979625  24.8505282  37.1918821  18.7807918  24.0806079  35.9069514
  19.2510712  35.3203130  51.8756628  19.9201417  36.0048342  51.8787193
  18.8655853  35.3660822  51.0007143  33.3154988  62.7051163  26.6741347
  33.8976288  63.4180069  26.9370794  32.4783325  63.1332254  26.4949489
  21.0431528  38.1386280  79.4338655  20.8671021  37.6068830  78.6576653
  20.9631014  37.5273848  80.1661205  93.0220250  72.3553419  35.2644038
  93.2285647  71.6383839  35.8640242  92.5948564  73.0120420  35.8144093
  22.5295448  79.3807697  16.3649392  22.3355842  80.1444626  15.8214426
  21.7453098  78.8357115  16.3007510 106.3739117  15.6964956  81.6185158
 105.5996712  16.1527430  81.9481009 107.1068796  16.1053787  82.0787376
   1.4400776  50.3842306  25.1495147   1.0664286  49.5675135  25.4805660
   1.1797333  51.0444164  25.7918572  50.4410791  62.8219652  60.5478048
  50.1482964  61.9811726  60.1962614  51.3587809  62.6784039  60.7789898
  15.7359517  43.2397795  24.0115905  16.1765695  43.8164043  23.3874202
  15.0135922  42.8560257  23.5144377  27.2107911  62.8294802  62.5478697
  26.6463590  63.4171009  62.0455217  27.6934242  63.4078217  63.1384802
  36.3542318  88.1777096  43.5308409  36.1857653  88.5377026  42.6600647
  35.4849148  88.0614948  43.9142656  26.8378115  76.1537933  60.4251242
  26.8522716  76.4375305  61.3391924  27.3667455  75.3560925  60.4135561
  13.4879494  72.7693796  43.0853510  12.8475499  73.0391121  43.7436533
  14.0038896  72.0889235  43.5178089 106.7976383  49.7100687  84.3384933
 106.2785904  50.4876184  84.1329765 106.9138506  49.7437716  85.2880192
  40.5395508  55.1344490  61.5882111  40.2175999  55.0706577  62.4873877
  41.2651253  55.7568407  61.6371870  26.9778442  69.1457987  38.0924010
  27.7049327  69.7559118  37.9685736  26.1936402  69.6898222  38.0196786
  39.2541170  68.8236189  59.7168446  39.2123389  68.1621695  59.0262127
  39.7066331  68.3876896  60.4389381  39.2443633  64.0271044  48.9934444
  38.6795998  64.2955065  49.7181749  39.8688650  64.7461414  48.8974667
  47.3774529  48.2630444  59.9160242  47.2655249  49.1965675  59.7364807
  47.1945763  47.8346968  59.0797758   5.1157725  27.6456261  61.9267511
   4.1689813  27.6671028  61.7876244   5.4021633  28.5444355  61.7644119
  17.6910877  51.6328096  69.9305058  17.8149807  51.1250305  70.7324028
  18.4498894  52.2152805  69.8962021   7.9286397  66.1097097  34.8245716
   7.4956757  66.9290638  34.5849228   7.9338241  65.5963516  34.0166926
  21.1886787  70.6723356  61.2392712  21.3692021  71.2997103  60.5392456
  21.4386129  71.1303854  62.0417404  37.6395130  82.0327663  69.8786879
  38.2265687  82.7847099  69.9572897  37.2984099  81.9017029  70.7633924
  34.6960664  98.9601994  53.9172649  34.4460464  98.0411530  54.0124941
  35.2795005  98.9723206  53.1585264  82.6052992  59.3367004  52.0406008
  83.1647031  58.5606813  52.0736313  82.5308697  59.6173048  52.9527187
 105.5909487  71.7110586  55.0425959 105.0840760  71.2719393  55.7255936
 105.1517589  72.5530052  54.9223042  96.9519822  63.9438200  31.7272735
  97.1391134  63.2469130  31.0983562  97.7767436  64.0711832  32.1960783
  14.4546485  53.7281322  46.5839815  14.2441440  54.3766212  45.9121323
  15.1625848  53.2090569  46.2023783  44.6932077  52.1020794  59.8910141
  45.5707836  51.7470217  60.0325346  44.6535826  52.2749186  58.9503813
  32.9476023  53.7113857  55.0029516  32.0149183  53.9225483  54.9612093
  33.3397555  54.2170668  54.2910957  93.9898213   1.0706084  61.8928528
  93.1697758   1.1612361  61.4075232  94.6569022   0.9541266  61.2163448
  52.0223618  87.1662331  71.3920355  51.6353559  87.9087734  71.8558168
  52.9637814  87.2555161  71.5403366  23.4657431  48.3132648  17.4525726
  22.7630973  48.6434269  16.8926513  23.2620764  47.3854494  17.5705135
  94.0894000  61.7897892  46.3262129  94.1825120  62.6816320  45.9912777
  94.7176651  61.2763977  45.8183336  62.2907162  28.9640689  32.7389407
  62.0441961  28.9154935  31.8153071  61.4575529  29.0237641  33.2063913
  33.6395049  40.8809328  52.2070265  34.3833232  40.2960014  52.0627308
  34.0139651  41.6379166  52.6575661  40.8443928  91.0730648  43.3668756
  41.4298725  91.4160442  44.0420055  41.1220884  90.1647854  43.2479048
  23.3014941  47.3230743  72.3798418  23.0496192  47.3054314  71.4565420
  22.7160120  46.6930103  72.7999115  38.1405044  50.5952024  64.8721981
  38.2803154  50.7644558  63.9405155  38.8041019  51.1249256  65.3140831
  40.7653666  33.5568714  75.6087637  41.0107851  34.4484591  75.8558941
  39.8773909  33.4496593  75.9496975  17.4647760  48.4265471  75.3692818
  17.0144939  48.1145763  74.5843267  17.0328486  49.2543173  75.5801392
  37.3546457  67.4899006  20.7083678  36.4962506  67.1278238  20.9281158
  37.9389453  66.7317963  20.6983852  26.7344666  50.0396252   2.6351938
  26.7880893  50.4331636   1.7642844  26.2699342  50.6889343   3.1632414
  25.1618028  35.7123613  17.2921836  26.0938692  35.7519507  17.0779061
  25.0860095  34.9734402  17.8959084  11.0635936  35.3492761  30.6373429
  11.8131876  35.0684357  30.1124930  11.0239935  36.2971926  30.5103803
  75.1444112  12.5271947  17.8477747  74.4438977  12.6942355  17.2172147
  75.7818292  13.2230908  17.6875764  50.5410290  31.7690229  56.0662556
  50.9158754  32.2925067  55.3579569  50.8011198  30.8704352  55.8634567
  31.5915751  48.0737162  39.5953012  31.3634753  48.9725971  39.8323989
  30.8704519  47.5454092  39.9375081  27.4398375  43.3292198  62.4534082
  28.2887650  42.8929710  62.5258064  27.6531672  44.2607021  62.3981047
   5.4554373  56.7500687  37.0697474   6.2669569  56.6485977  37.5671124
   5.0902647  57.5808716  37.3741198  11.8241191  55.7518578  35.8673263
  11.3997531  55.4267550  35.0733137  11.6651702  56.6956806  35.8545732
  15.2188730  79.5807123  84.8159218  15.3105450  79.4202423  85.7551098
  15.7581735  78.9057398  84.4038486  31.3797021  74.5630026  41.3240099
  32.0492625  74.5089722  42.0059204  31.6869903  73.9691925  40.6390333
  26.9391847  59.9280882  63.2401705  27.5276065  59.6219349  62.5500536
  26.4738894  60.6669044  62.8478956   1.8107688  23.9731669  19.6107244
   1.7673542  23.2031631  20.1776814   0.8980215  24.1618705  19.3927455
  89.7339432  85.2099991  63.9067030  88.9316086  85.6851959  64.1227484
  90.3313009  85.8837605  63.5819912  12.9414892  67.6917171  60.1991844
  13.6583745  67.2683764  59.7268581  12.1483612  67.3112917  59.8217440
   6.2463850  77.2583723  25.9670806   5.4227185  77.3827887  26.4385939
   6.7133594  76.5927887  26.4722228  94.2938701  65.1571512  68.4780693
  94.7509877  65.0706911  67.6415253  94.6789817  64.4786835  69.0326881
  31.1035419  58.5873938  41.5713072  31.4708042  58.8847971  42.4037170
  31.4435220  57.6991558  41.4632368  40.1064873  74.4024515  57.6016712
  40.5742216  75.0256252  57.0456982  39.6409774  74.9488783  58.2348776
  37.3651242  80.4170418  74.8420906  36.8228650  81.0089970  75.3634167
  37.3847198  79.6036434  75.3463030 101.4632426  54.9836588  83.8603783
 100.7184635  55.5700016  83.7272072 101.3905315  54.7078371  84.7740936
  13.5902286  59.9956989  75.9399796  12.7040458  59.7647285  75.6614733
  13.4618628  60.5767918  76.6897011  15.3722644  37.7114725  81.7947197
  16.1052716  37.1266174  81.6026878  15.4520571  37.8962088  82.7305317
  24.7576332  27.2863507  12.8773665  24.9337268  26.5821528  12.2534049
  24.3309236  27.9667020  12.3565304  88.5384600   3.2154328   2.7452833
  87.6605956   3.5917479   2.6822835  88.3910303   2.2711284   2.7980405
  61.4638384  11.8801825  50.2715635  62.0720800  12.5648539  49.9931574
  61.9529303  11.0650962  50.1590919  17.1174574  43.0673885   8.1889892
  16.5647578  43.5453081   8.8073325  17.5463748  42.3964787   8.7201554
  99.9567376   2.7024934  65.0817299 100.5871968   2.1949799  64.5706654
 100.2278821   3.6125273  64.9610996  24.1772890   8.1559861  62.2364902
  23.8556242   7.2806853  62.4523878  24.1805863   8.6228120  63.0721283
  18.0441427  85.7310772  38.0042219  18.3067846  86.1994362  38.7966180
  18.6432111  86.0486984  37.3285985  99.2871479  67.9988003  63.7774372
  99.3591188  67.0838642  64.0493679  99.7063164  68.4919500  64.4826555
  34.8844028  85.4855061  31.3119411  35.5985308  86.1183548  31.2361193
  34.2659116  85.7390785  30.6268120  18.1941652  45.2542686  52.3514318
  17.6383579  46.0264111  52.4568176  17.8012013  44.5962238  52.9248333
  16.1289608  97.1856022  51.1421871  15.6555998  96.5096760  50.6571293
  16.1258662  96.8767834  52.0481968  41.2777185  59.8696470  11.8215394
  41.8494511  59.1664457  11.5135396  40.9190273  60.2543259  11.0217929
  53.8404942  85.2436733  55.9656763  53.6616230  84.3046188  56.0148668
  54.2159986  85.4609776  56.8189096   3.3021423  61.2757111  47.8074932
   3.2802951  61.9292212  47.1084404   2.3898458  61.0050821  47.9109669
  17.6306629  45.9108257   9.5748693  16.7383933  45.9196377   9.2284453
  18.1101990  46.5233564   9.0171242  33.9738059  71.8589354  36.5650868
  34.5214558  72.3636675  35.9637904  33.2297325  72.4320650  36.7497683
  57.0786381  69.9353456  47.2183228  57.4282837  70.3958511  46.4554882
  57.4842167  69.0690851  47.1818161  20.6112957  84.0460682  28.9591575
  19.7046137  83.9867878  29.2602301  20.7066250  84.9512863  28.6629748
  19.5164156  84.0344810  55.0942564  20.3530431  83.6049271  54.9160099
  19.5817232  84.8797798  54.6499157  30.8264351  65.4168463  53.8052845
  31.1701226  65.0025940  53.0137634  30.6357837  64.6867704  54.3942451
  11.7802906  87.8651905  37.2767162  11.2403774  87.8859806  36.4865947
  12.6368976  87.5642204  36.9736075  45.5392981  88.9140606  87.0642948
  45.7606125  88.0325222  87.3645496  45.3200340  88.8039589  86.1390781
  21.5918469  97.8539181  65.0614023  20.8031011  98.3117867  65.3520441
  21.2929773  96.9677067  64.8576164  47.5657272  63.3855152  56.7483425
  48.0162239  64.2120600  56.9218636  47.3374844  63.0505037  57.6154661
   4.3879211  95.9053898  58.4586334   3.5334307  95.8003521  58.8770151
   4.2266321  95.7173538  57.5340462   8.7470841  70.6976938  26.5810037
   8.8927770  70.3250504  25.7114410   9.4745958  70.3673601  27.1081090
  16.1536622  81.0370922  31.7894101  16.0947526  80.1311874  31.4859223
  15.2742779  81.3914585  31.6577387   1.1666545  70.9529686  64.9041367
   1.9582212  71.4048052  64.6117353   1.1414484  71.1014652  65.8494139
  53.2644129  66.5742111  62.9163027  53.2224083  66.0936308  62.0895576
  52.5310421  67.1879053  62.8741360  28.4023929  80.3198528  39.6278882
  28.0684328  79.5573378  40.1004028  28.6706543  79.9752092  38.7761307
  39.5870113  51.8386173  48.0325079  38.9428568  51.3731384  48.5660076
  39.4146061  52.7646732  48.2025957  32.2076178  74.4395065  55.7309484
  31.9980955  75.3492785  55.5196428  33.1467557  74.3644953  55.5617619
  36.9952373  -0.0922639  48.0786180  36.7735574   0.7386916  47.6583767
  36.9191512   0.0856345  49.0160561  27.6545572  71.7709875  64.8393822
  28.3374023  71.4385748  64.2567539  27.1495199  72.3757982  64.2958975
  68.6789513  72.3430061  57.3752022  68.1595898  71.5487671  57.5003815
  69.0493536  72.5255585  58.2387495  71.1640501  89.0811825  36.0215163
  71.1502218  90.0034523  35.7656693  70.3275108  88.9433098  36.4658380
  41.6764116  88.6144924  42.5942755  41.6470146  88.4139824  43.5297775
  41.1688948  87.9146862  42.1832657  33.0119967  51.0000038  46.2755871
  32.1797466  51.4046478  46.5202427  33.0061960  50.1524973  46.7204762
  44.0614271  75.7889366  59.3732309  43.1975508  76.1215878  59.1297245
  44.5938253  75.9064293  58.5864782  55.4545450  89.7886562  47.0291519
  55.2658796  88.9543152  46.5995979  54.6292400  90.2717018  46.9871187
  43.9642668  89.1144466  45.9381723  43.0730343  88.7711525  45.8742428
  44.4443560  88.6654949  45.2423382  31.4716935  63.3359289  62.5831795
  32.2184324  63.1885147  63.1635952  30.7052922  63.1689978  63.1318092
  44.2864609  73.8609028  56.0732174  43.7334919  73.9466619  55.2966213
  43.6701679  73.8443708  56.8054342  17.0742917  54.4942379  37.0157814
  16.4394593  55.0879765  36.6149139  17.2231448  54.8568535  37.8890419
  37.1540713  84.1200447  17.5843763  36.6761684  84.5634842  18.2852304
  37.9146886  83.7349510  18.0195737  25.0429201  80.8677959  53.1267595
  25.6295490  80.1138401  53.1872368  25.5763388  81.6097641  53.4116697
  67.8797960  95.3651905  65.4681826  67.6312780  95.6112957  66.3591957
  68.2578945  94.4904232  65.5579615  33.8752842  72.2845793  73.9212322
  32.9618979  72.5264740  74.0743446  33.9756107  72.3178196  72.9698849
  11.0410368  84.0212154  53.4514236  10.1937485  84.4133377  53.2403088
  10.8697677  83.4822941  54.2237377  27.1759892  64.6109533  45.3187037
  27.0925069  65.3615665  45.9067869  26.2770891  64.3105268  45.1847076
  62.0139694  71.0284328  38.3371472  62.9600048  70.9946442  38.4789467
  61.8429804  71.9335318  38.0767870 101.8734555  74.3478727  72.3388052
 101.2625847  75.0481510  72.5683260 102.5211762  74.3545294  73.0435371
  67.0423460  90.1185226  74.1181898  67.1358633  90.9198856  74.6332598
  67.8724194  90.0374794  73.6484623  23.8944650  85.9479809  70.4891777
  24.4340587  86.6254902  70.0816870  23.1842232  86.4300156  70.9127617
   8.0505651  90.1558971  53.8011694   8.7567312  90.4161835  53.2097149
   7.4040997  89.7373295  53.2327366  31.6666269  85.8279133  55.6972504
  31.6274929  85.6853676  56.6429663  30.9219265  86.3994503  55.5101585
  88.4458665  76.0511589  36.1541653  88.3238928  75.2488327  35.6465936
  87.7035658  76.6040754  35.9102249 101.9375102  78.6415958  55.2035379
 101.2047629  78.1169653  55.5261469 101.7211221  78.8177824  54.2879152
  20.6361508  84.7524929  33.3238459  21.4893055  84.8045540  33.7547159
  20.7619071  84.1165352  32.6195955   2.8547141  80.9946537  33.1446004
   3.4009436  80.3709412  32.6662159   2.4193051  81.5047455  32.4616241
  12.2095537  41.0649252  49.1214705  12.9512775  40.9841919  49.7211027
  11.6321623  41.7038393  49.5393705   1.3302189  40.1241255  63.3194304
   0.5939640  40.2943277  63.9069605   0.9433885  40.1261616  62.4438810
  15.5282617  59.4612741  40.6998539  16.2091875  58.8314486  40.9362650
  15.6761777  60.2046394  41.2844610  54.5367622  97.7211475  80.4920483
  54.5521116  98.6611748  80.6719112  54.2862988  97.6576996  79.5703793
  73.7156924   4.8050731  56.4252186  73.5868915   4.6521991  55.4891253
  74.1467412   4.0107291  56.7405558  11.7766440  55.7487345  38.6441159
  11.9106770  55.6106853  37.7064562  11.4063704  54.9234438  38.9572001
  71.9508791  73.6033249  54.4992447  72.3795557  72.8032351  54.8030949
  72.4782801  74.3122435  54.8673677  11.9260657  68.7712049  31.4470148
  12.3089206  68.6992693  30.5726695  12.6759577  68.9055777  32.0265293
  18.4693921  70.3464365  58.9639568  19.4044387  70.3976822  58.7657309
  18.1436610  69.6431780  58.4022093  53.2145166  82.9847431  25.6554723
  52.5891876  83.4340477  26.2240839  53.3748531  82.1472549  26.0903740
  10.1963651  87.4572849  43.5740232  10.1968253  88.4115696  43.6486340
   9.8740542  87.1509266  44.4216633  39.6498632  40.9669590  57.2321033
  39.3097615  40.6803131  56.3845205  39.7310615  41.9170523  57.1486902
  42.5124741  88.2068443  37.9192877  41.8421507  87.7543068  37.4073219
  43.0046272  87.5041485  38.3438301  33.2488251  73.4181452  27.3666883
  34.1532660  73.1144953  27.2891212  32.9858041  73.1637955  28.2511973
  28.5267496  53.0222464  43.4554052  28.5432339  53.9477015  43.2114935
  27.6642895  52.8939581  43.8502979  16.2823856  68.1407928  54.2293549
  16.2703300  67.1965122  54.0730906  15.4584622  68.4556293  53.8575268
  35.9644008  94.5611095  23.7083817  36.1262989  94.6094036  22.7662110
  36.7542720  94.1562080  24.0666890  33.4094524  65.5956697  52.2028303
  34.2730713  65.9258413  51.9550800  33.3642602  65.7298660  53.1494999
  12.2118676  72.4394608  64.8109341  12.7948129  72.8514147  64.1732025
  11.6741824  73.1582642  65.1432610  48.6276102  84.5768547  59.5090675
  48.8659811  84.4194508  58.5954809  48.8624096  83.7663460  59.9609232
  57.4045849  73.3093977  46.7266417  58.3363676  73.4572697  46.8883371
  56.9632006  74.0007925  47.2199869  27.8415918  47.6144123  60.3065920
  27.6224756  48.3059025  59.6820450  28.0090499  46.8447304  59.7627401
  30.3838825  73.0605602  19.4056499  30.2264142  73.2690811  18.4848058
  31.2717342  72.7032280  19.4218767  65.8636856  96.4569950  63.8722944
  66.2360144  96.2999153  63.0045795  66.5219164  96.1198330  64.4799805
  42.2370625  38.8405704  56.2080336  42.6346111  39.3526292  56.9122934
  41.4452362  38.4706688  56.5984249  38.9403868  42.1008492  15.7400000
  38.5259891  42.8543043  15.3195035  38.2186270  41.6356373  16.1629331
  52.3999548  66.5465736  52.9067039  52.9548550  66.9551897  52.2423649
  52.0608521  67.2800922  53.4197235  63.8236483  10.4910033  70.7718134
  64.1329750   9.7121757  70.3092289  63.2429989  10.1505320  71.4523697
  37.2941041  63.2174301  10.1285791  37.9347801  63.9197445  10.2404857
  37.4926972  62.8468513   9.2686582  37.2655439  35.4240775  49.8728895
  38.1384325  35.2273202  49.5329142  36.7426467  34.6537852  49.6504974
  31.0458541  99.5200539  77.9576445  30.2558804  99.0527630  78.2293224
  31.7526460  98.8859081  78.0782032  56.4463043  79.6435213  21.7398787
  56.4601278  78.7291336  21.4571404  56.5964556  80.1444244  20.9381413
  11.7906392  56.9156218  57.1949863  12.0160794  56.0444164  57.5211859
  11.5908790  57.4219084  57.9823875  46.7896175  95.7347965  61.5389395
  46.2416363  94.9614906  61.6728735  47.1581554  95.9197235  62.4027729
  23.3779526  62.0155239  33.6318684  22.8166246  61.5612745  34.2602015
  24.0826201  62.3852587  34.1638184  10.2877700  77.0584822  64.4458532
  10.6970489  77.8617954  64.1242790   9.9741393  76.6169357  63.6566114
  38.7812948  74.5626354   8.4496766  39.2405128  74.2177010   7.6839280
  38.7113500  73.8153553   9.0437406  46.1839437  93.7970352  30.1832318
  46.3980055  93.0476665  29.6274877  45.3910208  94.1654110  29.7936177
  26.9482851  66.1532259  70.6181097  26.6870666  65.7894039  69.7721624
  27.7367997  66.6611814  70.4271793  91.5297214  39.7894597  67.1321440
  92.2681276  39.1943669  67.0023251  91.0906677  39.4589567  67.9158735
  31.7751884  63.4861183  71.1292315  32.4703670  64.1416025  71.0717773
  31.6171479  63.2244635  70.2221537  22.0405626  64.8734331  51.6001987
  21.1504269  65.1724625  51.7858648  21.9876575  64.4938612  50.7230711
  55.2660306  26.6055816  78.7074757  54.4060727  26.8008559  78.3352232
  55.5912336  25.8711474  78.1868219  24.3136144  43.4695530  65.8433867
  23.5450387  44.0315771  65.9416294  25.0354886  44.0770388  65.6818676
  42.8022289  67.8850126  65.4118633  42.7729130  66.9726276  65.6998348
  42.4987984  67.8596163  64.5043850  30.5520773  59.3342304  33.8689208
  29.7746944  58.8776445  34.1905379  31.1312938  59.3857431  34.6292400
  47.9105473  54.0280437  63.0491972  47.7186155  54.5067024  63.8555956
  47.3754787  54.4582224  62.3822021  31.5942240  92.9713535  64.0354109
  30.6465483  93.0706787  63.9444256  31.9613194  93.6724567  63.4969616
  43.8693428  82.6806831  21.1545539  43.4306955  82.8119469  20.3139663
  44.1084862  83.5624218  21.4401889  32.1313763  57.3624849  52.1666002
  31.4115071  57.4449825  51.5411329  31.7705607  57.6878548  52.9913330
  60.5454683  76.2346888  61.3114262  61.2693071  76.4665699  61.8932486
  60.3099632  75.3425074  61.5659428  72.1520551  17.3903983  53.6748838
  72.4962958  17.5855010  54.5464706  71.7257627  18.2016700  53.3986044
  35.9438419 100.7664776  24.4224381  35.3072429 101.3674450  24.8094940
  35.9898448 101.0263252  23.5023308 101.7395608  29.1148860   9.1266233
 101.0212438  29.1451175   8.4946901 102.3838322  29.7358996   8.7867815
  35.2375293  84.7735214  69.1462946  35.2578092  85.7294941  69.1023445
  35.9916759  84.4938469  68.6273718  12.9674470  89.3703365  55.0960827
  13.6299014  89.0895557  55.7273865  12.1331632  89.1498280  55.5103016
  67.6911306  86.5479660  50.2053595  68.5659122  86.1618233  50.1620150
  67.3099756  86.3748264  49.3445587  22.4100804  85.1688290  55.4059362
  21.9516826  85.7376862  54.7874689  22.9193401  84.5756817  54.8536110
  10.8226848  35.2573371  56.6042471  10.4678583  36.0825205  56.2734842
  11.0104990  34.7450328  55.8177948  10.7704604  81.2813282  40.5555201
  11.4932227  81.3686466  39.9340510  10.1346850  81.9407368  40.2776670
 104.2907340  65.7852507  86.6219807 104.9039073  65.1541281  86.2452507
 104.0367756  66.3414097  85.8854866  18.9937496  68.7559605  50.8695412
  19.1046834  68.6091423  49.9301958  19.3671310  69.6240425  51.0220194
  42.0427895  40.7168627  48.3057928  42.3455477  40.3681612  47.4673557
  42.7564001  41.2819433  48.6018991   0.1803002  86.6743755  44.1078234
   0.5890984  86.7911053  44.9654293  -0.6620685  86.2615871  44.2982149
   1.8618552  63.6376905  84.2806053   2.5855958  63.9225101  84.8385525
   2.2810087  63.3694744  83.4629250  41.7401314  54.2876720  50.0450850
  42.4631596  54.9148989  50.0517750  41.0755968  54.6941280  49.4888258
  15.4259825  78.4810925  76.9546604  14.9926221  78.0828094  76.1998081
  16.3555479  78.2943583  76.8232346 105.1422561  72.1729898  59.3537092
 105.3836827  71.3194704  58.9939260 104.6965919  71.9689608  60.1758957
  27.6404095  66.3972759  60.5168629  27.9967880  66.8959427  59.7816420
  28.4056067  65.9915638  60.9244204  33.9952302  70.9947586  68.7225580
  33.9496136  71.9056463  69.0131283  33.2916141  70.9132051  68.0787373
  46.6274377   0.0058024  69.1450262  47.3999938  -0.2158982  68.6251879
  46.9077488   0.7421439  69.6885872  29.3385553  79.6940804  83.3581448
  29.5985699  80.4130554  82.7822208  28.4094906  79.8482895  83.5292912
  26.8382502  43.8341379  53.6994171  26.7920399  42.8794861  53.6470604
  25.9600449  44.1019535  53.9700842  76.9052982  79.9252939  38.2330537
  77.6331902  79.5665264  38.7406826  76.6081142  80.6801701  38.7410688
  17.1901178  69.1239119  61.9529247  17.9010189  68.5502243  62.2388220
  17.2649205  69.1407442  60.9988022  62.3437834  80.1756573  70.0730944
  62.2281837  80.8826256  70.7079697  63.2914209  80.1142883  69.9528790
 103.2903482  63.1803513  41.8655014 103.5851629  63.5740662  41.0443401
 103.7280215  63.6909580  42.5466442  31.9069886  96.0949993  26.1083460
  32.0056343  96.9813347  25.7606101  32.6370120  95.6060791  25.7285404
  26.1322260  66.3144779  34.3579173  26.4419198  67.0613861  34.8702192
  26.8450975  65.6776524  34.4079161  43.1100321  65.3335190  66.1593056
  43.1089926  65.2392244  67.1118498  42.7039433  64.5282936  65.8384705
  18.0135298  83.9728737  65.0628090  17.1603286  84.3238449  65.3179550
  18.5231400  84.7425652  64.8096180  21.0635757  94.9673271  59.3537998
  20.1067042  94.9819756  59.3742323  21.3216949  94.8954391  60.2727318
  59.9980497  67.3471832  65.6037474  59.4237280  66.8117666  66.1512041
  60.0754499  68.1758308  66.0765934  43.1612428  10.2728599  65.6423855
  42.8434070   9.9485820  66.4850378  44.0667387   9.9663299  65.5938959
  39.3323827  86.5110111  17.8628385  40.1062822  87.0029545  17.5884175
  39.2933393  85.7694626  17.2588372  25.5397344  48.0602551  38.6119294
  25.5673766  48.6361694  39.3759918  26.1017084  47.3221827  38.8478637
   4.2540425  44.6301222  49.2064714   5.0650346  44.1868687  48.9573765
   4.2547649  44.6108484  50.1634789  26.8895245  56.6170835  23.2804489
  27.2829628  56.9635439  24.0813231  25.9788680  56.9099188  23.3148742
  23.9282918  81.2259674  87.0086861  22.9908395  81.3135529  87.1811581
  24.2962456  82.0767879  87.2473240   8.9891124  99.2998791  71.7295408
   8.3290493  98.9787960  72.3439121   8.5809541  99.2060375  70.8688259
  50.1102448  94.9455547  60.7456923  50.0618267  95.8960629  60.8477497
  50.7752895  94.6704769  61.3767862  20.2584171  53.0267334  56.3650608
  19.4620264  53.2242823  55.8721447  20.0496840  52.2262430  56.8465996
  94.4485514  58.2890701  68.6862421  93.8293151  58.7594271  69.2444038
  94.2020718  58.5351706  67.7946615  37.2880363  44.0108728  52.2486877
  36.8732977  43.7414122  51.4291668  38.1157660  44.4086552  51.9787550
  21.1514425  64.3506479  66.4789820  20.4116464  64.3408871  65.8716631
  20.7489634  64.4020987  67.3459244  44.5310307  90.8878422  54.5885181
  45.4113913  91.2633705  54.6017647  44.5444536  90.2717018  53.8561106
  51.4553261  95.4388523  18.3134639  51.1608887  96.2223721  18.7778354
  52.1484947  95.0788212  18.8667476  25.1124072  58.1952906  48.8229942
  25.7482648  58.3301926  48.1203413  24.4058323  58.8109064  48.6280537
  26.1743474  55.5217457  57.1803284  26.9391274  55.5331707  57.7558374
  26.0180116  54.5932245  57.0081520  62.6008368  85.4534054  40.1204586
  63.4122562  85.9073448  40.3479958  62.1933460  86.0095787  39.4564867
  36.3263702  48.3905029  62.9137278  36.8568134  49.1148520  62.5817871
  36.9649076  47.7506781  63.2285643   3.4016776  61.8251085  37.2348523
   4.0636641  62.5155640  37.2706270   2.8920433  62.0224094  36.4489889
  34.1588330  60.4135704  86.4825344  33.7792969  60.8021688  85.6943893
  33.8327718  60.9582090  87.1989727  33.5792065  67.3041916  15.3699064
  33.6292768  66.3489008  15.4037285  34.1880250  67.6000547  16.0466897
  13.1078827  45.2694607  54.6451950  13.3170724  44.4032001  54.9945736
  12.7769434  45.7581377  55.3987932  11.4290428  74.6159029  16.8134379
  11.9938564  74.2205811  17.4774694  11.3779235  75.5390549  17.0612502
  56.1799574  68.0159187  69.4746447  56.6061211  68.8223410  69.7649908
  55.3085232  68.2937527  69.1924381   8.3683592  75.0197649  55.3807878
   8.5633641  74.1864395  55.8094835   8.3838105  74.8172808  54.4453764
  23.7532902  69.5587015  47.8266048  23.0563593  70.1296902  48.1498528
  24.5076776  70.1381922  47.7202129  22.7742147  54.5286989  53.0203485
  22.0498943  55.1511431  52.9559135  22.7276969  54.1991520  53.9178276
  41.1813879  58.2714319  65.3371048  41.4890099  58.2425499  64.4311428
  41.3281488  57.3854065  65.6682396  53.8381195  37.2407246  30.9831643
  54.1849661  37.4828649  30.1245046  53.8137102  36.2839198  30.9704876
  27.6548219  88.3444691  51.1832285  28.3397841  89.0126705  51.1593819
  27.8479362  87.7767849  50.4371214  17.2102344  70.6376219  54.9436426
  17.3988342  69.7713995  54.5826387  16.3739300  70.8846951  54.5489502
  40.0578499  86.7547894  59.2962265  40.3294945  87.4645615  58.7142849
  39.4725919  86.2178040  58.7620449  19.4783819  75.0857210  14.9558723
  20.1524949  74.8032951  14.3377769  18.6930549  75.1960897  14.4198573
  15.8173299  74.8822832  69.0031338  16.3754594  74.1576290  69.2852688
  15.4247749  74.5777655  68.1849623  31.1225057  68.6131525  49.1333675
  30.4280305  68.9012194  49.7257757  31.4164853  67.7779865  49.4971085
  40.2667761  63.8849211  64.2502832  41.2187576  63.8125992  64.3191242
  39.9401450  63.0341721  64.5431471  35.1756716  77.3201799  44.2687225
  34.4705367  77.7853966  44.7188234  35.6087947  76.8168449  44.9581337
   6.6718501  18.2290053  62.3322678   7.5393999  18.6284184  62.2685671
   6.1918288  18.5778606  61.5811920  29.1404462  76.5139580  46.2132502
  29.2864990  75.8606863  46.8974543  29.3505478  76.0581875  45.3981638
  50.1695585  40.5070400  29.3700099  50.6114864  39.7771764  28.9361548
  49.3341255  40.1419830  29.6615863  40.8001232  73.2328272  34.5582294
  41.4240646  73.6098480  33.9379239  40.0992680  72.8812790  34.0091872
  23.0966806  96.4156246  69.7656488  23.2746720  96.3519669  68.8273001
  23.6943722  95.7842922  70.1661730  18.9655924  84.5637703  21.3447452
  19.5058417  85.0720119  20.7397246  18.8934791  85.1160526  22.1232176
   5.0238121  59.4574690  60.6014633   5.8352613  58.9636135  60.4835987
   4.9949127  60.0529385  59.8525858  31.6964269  53.0041409  52.2562313
  32.6472592  53.0918360  52.1894455  31.3598609  53.8734245  52.0387459
 104.7273172  65.7825089  59.0498495 103.8478781  65.5091572  59.3108082
 105.1567219  64.9736881  58.7711906  26.0389209  85.9139061  48.1939411
  26.2669945  85.2124596  47.5838757  25.4573727  85.4980850  48.8304377
 104.5743887  56.4307124   4.2707712 104.0277020  55.6713588   4.4726354
 103.9759700  57.0539386   3.8588125  38.7881916  13.2476943  83.4804440
  39.4431852  13.6994594  84.0125370  39.2869671  12.8707927  82.7556038
  40.8780718  80.8239365  30.9234786  39.9721074  80.7459354  30.6245255
  40.8390856  81.4522076  31.6445804  42.1809912  75.7600021  53.7942266
  42.7901363  76.1672401  53.1783295  41.4018536  76.3151550  53.7629414
  24.8522830  84.6205616  67.9015875  25.5413532  84.9569607  68.4745169
  24.1777205  84.3006039  68.5006046  28.3555770  76.8991137  38.8514161
  28.5655093  77.0852137  39.7665811  29.1500854  76.4968681  38.5004425
  20.4953384  77.7293587  52.0938444  20.3712249  78.3696175  52.7944851
  21.0358214  77.0447159  52.4880171  30.4783320  74.1340494  61.9606829
  31.3119245  74.4242144  61.5903330  30.6988502  73.8373756  62.8436279
  28.9434743  39.3249059  53.5445261  29.3642735  39.0266418  52.7381754
  29.5189118  40.0153494  53.8737488   9.5683551  48.8445377  70.8077955
  10.1853573  48.9599991  71.5304375   8.7838644  48.4809780  71.2184429
  72.3329973  98.3006191  49.6414614  72.9541397  99.0286160  49.6624660
  71.6348839  98.5981846  49.0580845  85.2036190  87.2862148  75.4978228
  84.7221279  86.4616680  75.5651426  84.6354771  87.8534603  74.9766016
 107.9406889   9.2837375  46.2645531 108.0119904   9.6166175  45.3699350
 107.4558600   9.9621432  46.7346048  66.4465531   5.7668918  83.2910442
  66.0028633   6.6051143  83.1615543  66.4210447   5.6260913  84.2374897
  47.3737001  89.2141819  52.9259777  47.7582502  90.0612164  52.7003908
  46.5376711  89.1989994  52.4600887  49.7015818   7.0518249  42.4700928
  48.7565490   7.0322555  42.3192263  49.8738905   6.2807219  43.0104065
  67.5327206  89.8862934  51.1119461  67.5549459  90.7176685  51.5858173
  67.8788471  89.2465973  51.7342138  24.4200730  76.5897655  65.4876947
  23.9442730  77.4060297  65.3342056  25.2022743  76.8557405  65.9710693
  44.1732264  93.5604763  42.8938055  44.3782330  92.9753685  42.1645212
  44.8655081  93.3966446  43.5342216  48.3644017   2.4132865  58.6208344
  48.9123639   3.1069129  58.9880514  48.6524995   2.3367160  57.7112341
  48.7049341  84.1501141  33.3135676  48.6912727  83.3669472  33.8637471
  49.1919470  84.7948647  33.8267422  91.9774207   9.1428035  52.2434950
  91.6791256   9.2219012  51.3374090  91.5395268   9.8591464  52.7032089
  46.5941048  68.7488317  60.3615999  46.0456371  69.4617128  60.0341606
  46.0243654  68.2626724  60.9576511  24.1202712  85.8563519  43.8932276
  24.8387003  86.4216423  43.6094284  24.1137767  85.9378338  44.8469305
 100.7880783  98.0916977  72.5990629 100.9827709  97.4396324  73.2722235
 101.5763474  98.1187534  72.0567179  37.5623226  85.6841850  47.4073887
  38.2673097  86.3251972  47.4986744  36.8690157  86.0070705  47.9829788
  37.9087663  80.6545258  52.4911404  38.5342240  81.1146355  53.0508947
  37.0507574  80.9167767  52.8247213  59.2124605  70.0205755  63.5618639
  58.5441828  69.7870302  64.2061377  59.4069433  69.1994143  63.1100845
  49.8546314  89.7673416   7.4182546  50.2062273  89.0072823   6.9546598
  49.0199614  89.4646835   7.7759647  25.8311605  99.1352558  40.5740786
  25.6723499  99.9936008  40.1813316  25.8584523  99.3041325  41.5158701
  35.4070973  54.4192362  18.2823074  35.1496124  54.0034389  17.4594784
  34.7504425  55.1016092  18.4215951  73.9677048  62.5402498  50.2869701
  74.6483374  63.0356646  50.7425308  73.9944506  62.8675175  49.3878508
  59.7018194  67.5293016  75.0908375  60.1187420  66.7731476  75.5039215
  60.0632477  67.5476789  74.2046881  23.9359522  96.3976765  31.8019652
  23.4171891  96.1968422  31.0230017  24.7402644  95.8906460  31.6913581
  51.6628790  91.2399197  43.0986834  51.4756584  92.0197105  43.6212873
  51.0935545  91.3219833  42.3335886  60.2686501  53.2004595  83.5568428
  59.5785046  53.7198925  83.9692974  61.0192633  53.2901573  84.1440105
  80.1349267   8.2381766  46.5111637  79.8688658   8.5070842  47.3904419
  79.4475611   7.6358455  46.2266397  60.3417635  76.7783546  36.7941499
  59.6431780  77.0777988  37.3759890  60.1139164  77.1429253  35.9389281
  71.5797663  91.0878086  66.8917227  71.2654018  90.1901531  66.9995451
  70.9533262  91.4903450  66.2902546  49.1793966  97.5399113  25.3356647
  50.1043367  97.6299000  25.1062655  49.1860819  97.1378326  26.2042952
  55.9737873  95.5671215  77.7357864  56.4632702  95.5411911  78.5579586
  55.2287531  96.1396217  77.9185534  75.3363276  67.2494984  29.7014427
  75.2601528  66.4807892  30.2667046  75.2329302  67.9938936  30.2942443
  92.2400816   5.2674430  57.6829052  91.4940461   4.9644797  58.2004738
  91.9292410   5.2435248  56.7778969  39.6069884  82.7439880  44.9778414
  40.2048731  82.0193291  45.1612329  39.6088672  82.8204441  44.0236998
  41.8969774  85.7090473  68.8873148  42.3877478  86.4571476  68.5471201
  41.2790728  86.0913181  69.5104456  42.8720903  85.0856876  77.0263195
  42.9340124  85.4576969  77.9060936  41.9343138  85.0789738  76.8345737
  88.2568654  21.0730594  54.7728539  87.6912745  21.4393371  55.4526901
  89.1431483  21.1682837  55.1216602  68.4915074  10.0189345  54.9271441
  68.9538511   9.3588584  54.4106388  67.7147254   9.5657008  55.2548981
  71.1609650  92.1097851  45.4442024  70.3910065  91.5891838  45.2153587
  71.0366726  92.9378510  44.9804306  78.6405182  77.8775597  53.8555193
  78.4691381  77.7420855  52.9235840  77.9624939  77.3688364  54.3001652
  32.0814276  84.4421959  53.4088850  33.0314875  84.3811226  53.5083246
  31.8148518  85.0980854  54.0530729  82.4417075   1.1308330  13.4123755
  83.1219681   1.7636340  13.6426568  82.8412922   0.2775615  13.5811734
  61.8234348  84.8023510  42.7976084  62.7054548  84.4395447  42.8791046
  61.7684698  85.0963879  41.8883467  50.4573202  75.3423738  54.0401459
  50.8067274  75.5894947  53.1839466  51.1008787  74.7280502  54.3932343
  69.1366943  11.4181560  65.9912729  68.6563285  11.4445441  66.8187952
  68.4575017  11.3279956  65.3228426  29.9479699  92.9398632  77.7746820
  29.1722417  93.0413532  77.2231579  29.6357584  92.4586201  78.5409403
  98.0027636   4.6937697  39.0266252  98.9017876   4.9371188  38.8057899
  97.8366049   5.1258223  39.8644519  54.5886898  73.8601351  66.8792772
  53.6986065  74.2109251  66.8487358  55.1190090  74.5816422  67.2175407
  20.5878711  98.9258766  69.8860931  20.5956817  97.9791355  69.7452116
  21.4156747  99.1087246  70.3305483  37.5389290  97.2807598  85.8896828
  38.0161667  97.8920460  86.4507580  37.3187900  96.5487576  86.4658356
  57.5346613  95.3830338  42.0174217  58.1056976  95.1147270  41.2975836
  57.3549747  94.5732880  42.4951839  34.5508957  94.8412418  73.3871651
  35.0362968  94.9475002  72.5690413  33.9538193  94.1123581  73.2184744
  36.1996436  54.7684574  34.8788285  36.5399766  55.5433846  34.4317269
  36.5273476  54.0313721  34.3635178  29.1430593  78.5094881  61.9107437
  29.9460673  77.9948902  61.8295002  29.4449282  79.4152689  61.9790602
  50.0534344  65.2997828  57.0562649  49.6770668  66.0483265  57.5191498
  50.8100557  65.0468445  57.5852156  57.5961304  77.8557110  51.1046362
  58.0308723  77.0864201  51.4726400  57.7104044  78.5358334  51.7684174
  29.4881225  78.4461069  48.6367083  29.8890996  77.7595520  48.1037092
  30.1033783  78.5796165  49.3577290  12.4659681  82.7166843  28.2656074
  11.8579292  83.4373093  28.4306216  13.0891144  83.0697536  27.6305747
  25.1629949  95.2835274  65.5153227  25.1579046  94.4511890  65.0426531
  25.3553081  95.9387302  64.8445272  86.9241897  63.8745308  28.4424663
  86.4694921  63.1010818  28.7760186  86.2336985  64.5274734  28.3279204
  55.1399326  66.1764956  64.8421860  54.4548178  66.3259602  64.1906452
  54.7113466  65.6630325  65.5269480  69.0599871  76.8950796  41.5743303
  68.9908266  77.8006363  41.8766737  68.4662199  76.8467093  40.8251047
  95.5343827   6.9007914  63.3844662  95.0474938   6.9016688  62.5603485
  95.5709275   5.9790748  63.6400795  72.8686666  77.2814369  45.4517651
  73.1715631  76.5334988  44.9369144  72.8124475  76.9486189  46.3474798
  19.5478308  93.3904076  37.7961588  19.2567098  92.6539803  38.3338881
  20.0751901  93.9260101  38.3888292  57.4532986  76.9757938  48.5274267
  57.2703409  76.0770321  48.8012648  57.7523232  77.4129391  49.3247461
  30.5911875  63.5031176  32.9168177  31.1815906  63.1605291  32.2457814
  30.8178091  63.0138111  33.7076712  28.9674520  82.5531483  34.2127347
  28.8111138  81.6876316  33.8350129  28.7578678  82.4507523  35.1410770
  47.4817987  30.0326388  59.0544796  47.6205131  30.1756900  58.1182480
  47.5322124  29.0827983  59.1616917  55.5465460  92.4873829  17.5647545
  55.9549904  91.9809341  18.2668293  55.7752275  92.0148945  16.7643249
  33.2095242   7.0544726  18.9567548  33.1227780   6.1766965  18.5849744
  32.3969650   7.4985988  18.7144166  40.0492382  76.6228437  39.8393250
  40.1548243  75.8072996  39.3494558  40.9391212  76.9626904  39.9333596
  63.4980726  61.7197990  39.8479772  64.1804123  61.2510538  40.3285217
  63.7262154  62.6439714  39.9484229   0.8608572  21.6518634  48.2884693
   0.4610531  21.3732379  49.1123343   0.5526106  22.5495093  48.1641865
  52.6769972  75.1934433  51.5052700  53.2694864  75.0227165  52.2374153
  53.2522154  75.4647636  50.7899094  59.8093700 101.2609386  56.9185543
  59.7339296 100.3067780  56.9076395  59.0052080 101.5599442  57.3430061
  83.5221060   9.9936431  44.5009661  82.8645857  10.1728003  45.1731300
  83.3230647  10.6141036  43.7997961  77.5975990  85.0792789  58.1721020
  76.6444111  85.0699043  58.2591486  77.8994942  84.3959904  58.7706041
  45.7400608  94.5053577  65.9537983  46.5445852  94.9387646  66.2386322
  45.9935665  94.0229988  65.1668453  51.6950130  82.0947266  79.9811459
  50.7921124  82.0422840  79.6676922  51.7141676  82.8816986  80.5257034
  21.7723370  67.8939533  60.4479980  21.6927934  68.7032080  60.9529829
  22.4358988  68.0888319  59.7862244  98.7130833  67.0641184  35.0581622
  99.5598125  66.6972780  34.8037910  98.5022926  67.6856852  34.3614149
  56.6080713  89.2026997  73.5972452  56.1342335  88.6761761  74.2410469
  56.0233402  89.2387581  72.8402615  28.4483194  94.8908520  80.2678299
  27.6499319  95.2214050  80.6795788  28.1876707  94.0582466  79.8740578
  32.6671696  56.2698317  47.2894096  31.7456436  56.0854292  47.4711132
  33.1462169  55.6002426  47.7776670  59.3549442  76.2854528  55.0942469
  59.4455290  75.3397512  55.2111769  60.2510118  76.5983772  54.9702406
  44.9609184  53.4998423  21.9618017  45.8906269  53.5900695  22.1709043
  44.8721028  52.5996596  21.6487199  26.8159771  89.9019051  18.6314321
  26.4740944  90.2984715  17.8301346  26.8631554  88.9663887  18.4344184
  30.3530145  87.8539085  74.7678661  30.3782248  86.9012928  74.8579359
  30.4105377  88.0069256  73.8247299  40.5437382   8.5876220  87.2641659
  39.8662393   8.3233397  87.8865719  40.1515659   9.3118995  86.7764664
 105.5165092  33.1324965   1.9839365 106.2241094  33.5070140   2.5086004
 104.7855679  33.7396438   2.0993787  54.6250677  87.7356339  87.2869301
  54.7799540  88.6780930  87.2236538  54.3853378  87.5932407  88.2026196
  96.1818369   0.6563800  76.3909817  96.3781699   0.7925933  77.3178720
  96.0107478  -0.2825696  76.3178682  19.2878973  86.0426235  80.3888130
  19.9399590  86.5908146  79.9523115  19.5636630  86.0261345  81.3052845
  28.7282348  70.5488443  27.7597260  29.0378737  71.4068222  27.4694991
  29.5257902  70.0313187  27.8706455  53.2577515  80.5865192  68.6589861
  54.0014553  80.0050735  68.5007143  52.5456381  80.0003147  68.9149141
  42.6478672  90.3281784  26.1111522  42.0977449  89.5467091  26.0572863
  43.2334232  90.2613258  25.3569102  63.8610649  92.5895596  54.3122005
  63.9277172  91.8790817  54.9501705  64.6994781  93.0471325  54.3748188
  46.8259239  77.4272346  26.4198256  47.0831966  77.8394651  25.5951381
  46.5383482  78.1545591  26.9716692  83.4001978   7.3023646  78.8778734
  83.1294211   7.5482314  79.7624397  84.2460259   6.8705504  78.9976311
  52.4877262  97.3450947  47.3944807  52.6539803  96.4132786  47.2519445
  51.5595579  97.3904133  47.6240063  39.5925593  71.1807680  53.0976009
  40.3000116  71.8153667  52.9834557  39.7425294  70.8086252  53.9666510
  46.9700480  81.8302822  76.8141174  46.4286280  82.5939465  77.0138979
  46.4019775  81.0807323  76.9921875  43.6518049  75.3297424  25.1146841
  42.9149437  74.9031305  24.6773410  43.5192490  76.2635422  24.9513507
  26.1356759  80.4535389  66.7203712  26.3997698  81.1337185  67.3399210
  25.5886865  80.9106922  66.0815907  36.8215179  88.5251045  65.0733614
  37.4053860  88.5700130  65.8305359  36.0615754  89.0496635  65.3254652
  80.8171328   0.6508201  61.6451120  80.8278330   1.3244384  62.3250771
  81.5354546   0.8901923  61.0594988   2.1164782  63.4654188  41.0516071
   2.1623613  63.9824533  41.8558455   1.5963103  62.6979494  41.2896156
  34.8166442  94.9809361  54.6023178  34.1267490  94.5126152  55.0723696
  34.3468857  95.5768871  54.0188742   7.9632938  76.9604349  86.1285496
   7.3971570  77.2107601  86.8586636   8.5390854  77.7146196  86.0024452
  94.9658267  27.5142152  32.7374536  94.9737088  28.3206183  33.2530958
  95.8838884  27.2461850  32.6979715  38.6676979  69.9674892  11.8296409
  38.8216472  69.3640852  11.1027074  39.3311357  69.7343493  12.4790466
  65.0264597  60.1188183  16.0594523  65.4912090  60.7515430  16.6070831
  64.9219465  59.3491173  16.6188025  96.3570317  20.6902736  38.9452124
  96.3086565  21.5373748  39.3882799  96.1870059  20.0490230  39.6352267
  64.2702007  70.3185844  48.5193491  63.4649849  70.7981873  48.3248186
  64.9274826  70.7109976  47.9446936  40.8860445  97.1003914  78.5364103
  41.2741852  97.8710461  78.9507389  40.0625277  97.4171638  78.1653261
  23.9342093  89.5606327  46.1688805  23.7880468  90.4747868  45.9255934
  24.6838331  89.5879459  46.7634773  64.7863531  69.0149355  50.9607267
  64.8076439  69.0669060  50.0051737  64.8421335  68.0784941  51.1509657
  53.9970779  81.6991043  64.8837709  54.0611839  82.6434708  64.7412825
  53.4913731  81.6125965  65.6918621  37.0769334  93.3530331  35.7231998
  36.8352699  93.5031700  36.6371417  36.2533379  93.4312057  35.2417350
  31.1809373  91.8441772  31.9727230  30.2963710  91.5787888  32.2244024
  31.5083599  92.3328400  32.7278590  80.0963402  70.8087111  67.5438213
  80.0772762  70.0427055  68.1174994  80.7401562  70.5879259  66.8707800
  33.2039309  85.1099396  19.7489047  32.3636079  84.7139835  19.9797797
  33.8568091  84.4742775  20.0420094  35.9907675  60.8838224  28.4456944
  36.2214780  59.9966860  28.7213683  35.4386282  60.7588100  27.6738477
  64.3603897  95.2779579  60.3276730  64.2476034  94.3614674  60.5797625
  65.2090406  95.5247688  60.6952477  56.5540028  94.1560364  59.2051697
  56.5371466  94.2506886  58.2528114  57.2222376  93.4902954  59.3679142
  89.9182089   3.1960433  62.2614098  90.0584610   2.6385539  61.4960527
  89.4573363   2.6350062  62.8851652  95.7786759   4.5633452  14.1155195
  96.4402636   3.8765376  14.0328908  95.3065976   4.3457168  14.9192667
  17.6200008  94.4783592  47.4190712  16.6713524  94.3645859  47.4769640
  17.8868043  94.7200775  48.3059883  28.9308763  81.7739582   3.1215760
  29.7518396  82.2147560   2.9026073  28.3257294  82.0363140   2.4278912
  91.6686726  83.4336853  85.2487850  91.2706089  83.2472420  86.0990810
  92.4776745  83.8996410  85.4600620 106.1097042  82.6921082  22.7635312
 106.7361153  82.1482944  22.2859216 106.6468896  83.3645439  23.1824589
  29.6747565  65.9927177   4.3651825  29.4232607  66.0451078   3.4430999
  30.2889800  65.2596378   4.4046345  26.2582517  99.3899632  19.4292200
  25.9301043  98.4923649  19.3755531  26.7899966  99.4981289  18.6406898
  84.0653761  10.7158320  63.3046007  83.4093579  10.0434726  63.4884596
  84.7072037  10.6231063  64.0086555  37.6916385  76.3999891  54.7847033
  37.0966697  76.9275284  55.3175688  37.5311971  75.4994869  55.0668144
  67.5135279  90.7493496  86.2481308  67.1724224  89.8610306  86.3519382
  66.8675852  91.1910534  85.6968689  67.8898867   2.1078341  57.0133018
  68.6965617   1.7681258  57.4007320  67.6538833   1.4623969  56.3470078
  42.6275261   8.7693828  44.7052622  43.2608368   9.1494029  44.0963840
  42.9966023   7.9161017  44.9331236  35.4631615  94.7425175  65.2245522
  34.9567294  94.5764065  64.4294643  36.0065866  95.5002975  65.0084448
  40.3661966  75.1904011  71.4902639  39.7523403  75.7123613  72.0069504
  39.9368477  75.0868702  70.6410456  50.2093935  75.2504778  57.4313354
  49.5487070  75.0875902  56.7581367  51.0257816  75.3609371  56.9439507
  56.4650774  85.3440762  75.0346279  56.5077496  84.6069908  75.6438208
  55.8232021  85.0748825  74.3775415  45.0938511  88.2366657  31.8735838
  44.3185997  87.9498291  32.3562241  45.7717371  87.6041412  32.1115184
  39.6029687  93.7590599  32.8783774  38.8885570  93.1903839  32.5912166
  39.5020103  93.8090515  33.8289237  16.2027657  64.9594116  35.0353026
  16.1520946  64.9307156  34.0798759  15.5748808  64.2990398  35.3283930
  44.4396067  92.1799850  40.7767296  44.9646950  92.1421146  39.9773049
  43.9958286  91.3326168  40.8121681  64.4444561  83.2271862  35.6677270
  63.8834572  82.5693226  36.0784888  64.8641729  82.7647972  34.9422812
  16.7984009  14.0368945   0.3592283  16.9773626  14.2276675   1.2800008
  16.8115759  13.0812842   0.3056699  91.0659790  83.1202793  55.6566286
  90.6487751  82.2593689  55.6249952  90.9255409  83.4216499  56.5542316
  31.0548472  70.7187843  63.3323526  30.3259063  71.0465479  62.8056192
  31.4967704  71.5074921  63.6468077  24.2552972  89.8377895  36.2997913
  23.6013579  90.2602863  36.8566442  23.9497042  89.9987507  35.4070807
  50.8224487  81.0270596  16.1042261  50.8671284  80.2826595  15.5041385
  51.6859341  81.4356613  16.0436869  91.7777920  83.0777264  42.5608063
  91.9222736  82.5538731  41.7728138  92.3647213  82.6957035  43.2133389
 101.6630562   3.2530921  41.0685921 101.1343058   4.0086787  41.3249922
 102.5592288   3.4989112  41.2981272  66.5327072  72.0561123  69.9094152
  65.6640053  72.4418592  70.0224924  67.1390057  72.7756596  70.0851440
  19.3460917  55.0270891  29.0876651  19.9903178  54.7791195  28.4245515
  19.1740870  54.2177534  29.5689392  11.4287281  93.9279270  47.2238445
  11.4339459  94.5132637  46.4664936  12.0636702  93.2461929  47.0040369
  55.4522038  57.7906275  77.4154997  55.7556629  58.2875013  76.6557264
  56.1078644  57.1025705  77.5291538  36.6765046  49.6642876  59.2395353
  36.0962725  49.0580559  58.7790537  37.5435638  49.2645931  59.1710711
  57.5502729  86.0686493  52.1836090  58.3204079  85.9751129  52.7442932
  56.8081141  86.0217953  52.7862978  45.0708600   6.9877189  58.9708614
  44.2053696   7.3719256  58.8310575  44.8952868   6.0682338  59.1707754
  83.5211277  77.9149723  46.0446835  82.7762985  78.3895826  45.6756353
  83.9709663  78.5611582  46.5890455  61.6772890  69.4066429  36.1568522
  61.9356298  69.9510479  36.9005704  60.7391262  69.5678997  36.0564351
  59.5696115  69.8335552  23.3335781  59.9503374  69.2865944  22.6464725
  58.6240768  69.7455931  23.2133341  79.8680973  98.7021160  52.3124409
  80.2877808  99.5513248  52.4500370  78.9580107  98.8393021  52.5754118
  74.4968843  88.7619591  46.5722704  73.8787842  89.4891930  46.6452217
  75.1376152  89.0562248  45.9248924  54.3516397  86.2006092  18.6156905
  53.4851503  86.3674259  18.9866424  54.2562866  86.4013672  17.6846492
  48.4160709  95.6346798  55.1498175  49.3531609  95.5093956  55.0001574
  48.0899525  96.0050869  54.3296480  59.4243622  88.0577183  60.8980322
  59.5135593  87.4518108  61.6336632  59.8463726  87.6088238  60.1654816
  59.4562054  77.8778648  59.2575788  60.0786877  77.6290989  59.9408531
  59.7862244  78.7126875  58.9253330  78.5100277   6.1831515  78.2391548
  78.2216605   5.7316058  79.0323639  78.4354552   5.5248588  77.5482702
  41.7358541  80.8983612  62.7207518  41.2976122  81.4261246  63.3883142
  41.0231304  80.5479622  62.1864557   8.8290882  39.6514995   1.8676836
   9.3740988  39.9096305   1.1243421   9.2056704  40.1176555   2.6140863
  13.6412883  66.9658852  82.7904606  12.9090297  66.4596415  83.1422424
  13.2778072  67.8380299  82.6372242  11.5433399   8.4253924  71.0116720
  10.8981029   8.0650943  71.6200161  11.1690704   9.2610782  70.7327890
  30.1933527  77.7525377  30.8370376  29.6365118  78.3763552  31.3028860
  30.7502389  77.3740578  31.5173793  44.8975277  89.6480370  51.7700386
  44.2472792  88.9467239  51.7305183  44.5158386  90.3579330  51.2537098
  43.1323099  78.9548302  61.1335659  42.7778673  79.3549919  61.9275904
  43.7635803  79.5945644  60.8042192  78.6714610  14.7115367  43.4244251
  79.4223221  15.0539630  43.9093781  78.7394198  13.7612861  43.5174322
  52.3558231   1.8475573  51.0824585  51.4981695   2.0504706  50.7089806
  52.7783605   1.2943690  50.4254389  83.7944126  88.6187077  41.3738489
  84.0308094  88.9107418  42.2542238  84.4885349  88.0062771  41.1302042
  89.0848541  78.4456348  67.0521545  89.5012188  78.6815786  66.2231827
  88.6181545  77.6316881  66.8626404  68.3821805  25.6665175  63.1909180
  68.5989626  26.0010665  62.3206806  67.4954566  25.3178351  63.0994368
  15.5637352  25.6498568  59.6467924  15.9869377  25.5110686  58.7995243
  14.8843090  24.9768775  59.6882439  92.1067246  33.8434833  66.4346266
  92.5038012  32.9810851  66.5564299  91.8878039  34.1336005  67.3201418
  39.7961617  94.1114521  35.6109905  38.8842177  93.9562607  35.8569717
  40.2823925  94.0323448  36.4316940 100.5666216   5.1903384  38.1607437
 101.2902316   4.6437686  37.8543425 100.9920987   5.9471839  38.5637116
  76.2041855  99.0634823  59.9642467  75.2711153  99.0486336  59.7511959
  76.2427998  99.4356728  60.8452749  89.4065857 100.1379204  76.1196613
  88.4767628 100.0403976  75.9143543  89.8102665  99.3353271  75.7893276
  93.3943995  13.4719222  23.8410521  93.2785853  14.3276732  23.4281254
  93.0625161  12.8477138  23.1957269  90.8335551  22.5783008  65.6607771
  91.1372002  21.7136329  65.9371614  89.8800572  22.4993556  65.6318378
  10.7340920  74.8570871  33.1116128  10.5366337  74.0225935  32.6863337
  10.9790516  74.6182632  34.0055871  37.8773999  80.2550793  59.0503931
  38.2627678  81.1230659  59.1700840  38.0756831  80.0282001  58.1418514
  70.5813074  73.6088324  17.7916217  70.8909225  73.5685587  18.6964691
  69.7145271  74.0103149  17.8527105  39.0728474  72.3074532  32.6398587
  38.4016299  71.6684771  32.8794575  39.3513632  72.0447206  31.7625713
  79.1109848  98.8957024  19.6618569  78.4959555  98.7571621  18.9415956
  79.4019794  99.8015976  19.5574343  57.7258253  87.6982784  58.3032417
  58.3600998  87.3456955  58.9274311  57.9957151  88.6077023  58.1754065
  67.1683073  88.1289673  85.4556656  66.8918848  87.2194004  85.5675220
  68.1191349  88.1053066  85.5633545  79.4891509  16.6738265  58.7136936
  80.0341137  16.7382186  59.4979763  80.0451287  17.0040362  58.0079412
  54.5562172  88.9367962  64.8719835  53.7999249  89.2947960  65.3368378
  54.2923307  88.9336491  63.9518833  88.2259758  15.7735770  66.9162703
  88.1709202  16.5329211  66.3360977  89.1503485  15.5256503  66.8992090
  57.9470205  63.0141115  73.3216238  58.0185080  62.9570484  72.3688078
  57.0635033  62.7005148  73.5147285  68.4539032  95.6832123  49.3916512
  67.5647926  95.9592819  49.1691685  68.5001183  95.7690048  50.3438807
 100.4640778   5.6401103  42.0488977  99.8615845   5.9599822  41.3773966
 101.2682112   6.1394828  41.9066906  63.9674091  75.9610558  78.4461689
  63.1288242  75.5874586  78.7171412  64.5655966  75.7524633  79.1637325
  53.8075066  99.8216152  47.2817373  53.2716990  99.0359020  47.1731091
  53.9124918  99.9108505  48.2289696  43.9022350  77.5063515  11.0826671
  44.7129583  77.6345253  10.5901885  43.4693766  76.7734241  10.6448591
  45.3629657  20.0245421  24.3032956  45.1666399  20.9473937  24.4646239
  44.7922172  19.5491546  24.9070239  29.6691227  26.0252816   4.3584520
  29.6830273  25.1069934   4.0886671  30.5672169  26.2072522   4.6351129
  62.7463913  83.9980316  59.4063425  63.1581163  84.6968842  59.9146032
  63.1481218  84.0633869  58.5399818  86.8345936  13.9208739  50.7805729
  86.1506566  14.4458716  51.1963177  86.7852982  14.1540950  49.8535299
  99.6230944  11.6018527  35.9018350 100.4296645  12.1157592  35.9415102
  99.6292742  11.2135833  35.0269389  96.1009511   2.8770011  59.6997929
  96.5953692   2.3728698  60.3460360  96.7622241   3.4014552  59.2482376
  28.5782075  77.2596788  15.1286221  28.6120629  76.6728210  14.3731892
  28.3826423  76.6856909  15.8692455  49.5692921 100.8884048  82.9522514
  50.5067873 100.6967545  82.9770565  49.4569063 101.6143513  83.5659218
  39.9071407  83.7954998  68.9251471  40.2996349  82.9764175  69.2272758
  40.6238985  84.4292927  68.9534187  29.9787235  48.8385630  44.1724920
  29.3761754  48.4121037  43.5631466  29.4123173  49.3466902  44.7531986
  99.8672112  22.6240390  47.9111147  99.9568757  22.8567641  48.8352537
 100.6871279  22.1797221  47.6953745  96.3661011   0.8924048  54.4904852
  95.7729491   0.3773635  55.0374126  97.1359499   0.3342860  54.3806458
   1.9055086  69.4118309  84.7456741   1.4716387  68.5602856  84.6921921
   2.8307414  69.2016983  84.8722458  57.1531630  92.2513580  87.5063801
  57.0651197  91.2996101  87.4548435  58.0510235  92.4245071  87.2233772
  54.1299725  96.4122581  25.4745388  54.6062756  97.1410179  25.0766873
  54.7901964  95.7287502  25.5891848  97.1328457   2.2111838  69.6030712
  97.6443346   2.3631995  68.8084030  96.9005307   3.0876773  69.9097013
  82.4394663   0.7356112  77.4566269  83.2482823   0.8436530  76.9562531
  81.7559870   0.6513160  76.7918158  80.2055264  96.3559628  38.0890942
  79.4891596  95.9843349  38.6038136  80.6655884  95.5950928  37.7346182
   9.7530991  91.6675949  51.4801455  10.5685186  91.2669086  51.1788559
   9.2665249  91.8534184  50.6770611   7.5288344  16.4231593   6.1265356
   7.2676945  16.8635136   6.9353181   7.2358179  15.5190904   6.2406904
  75.2028418  85.2949619  30.6906319  74.7609615  85.1594734  29.8524094
  75.4780960  86.2115192  30.6708932  32.0680285  97.3980999  56.9302607
  32.1766424  98.1023216  56.2911177  31.1894107  97.0567989  56.7636013
  26.2177801  55.4929161  70.5289268  25.7630706  54.7354794  70.8973885
  27.1004701  55.1741028  70.3406477  10.0339309  16.0568946  80.2201176
  10.3695671  15.5331748  79.4925976  10.2568523  15.5515426  81.0018826
  55.1740074  83.6724663  38.1890368  55.8207750  83.1514072  38.6648798
  55.6923151  84.3221283  37.7141523  37.7749944  93.5380936  71.7498541
  37.1194124  92.9883957  71.3205814  38.4717536  93.6315060  71.1002159
  24.3136835  85.1315975  37.4643874  25.2263999  85.3452682  37.6580930
  23.9200139  84.9639988  38.3206367  58.6277533  62.2597456  55.7215595
  58.6003256  62.7585649  56.5380526  57.7083826  62.1077204  55.5027628
  70.9922179   9.9282592  48.4776688  70.7424005   9.8518126  49.3985271
  70.1882776   9.7367995  47.9947042  43.5675812  88.7920284  65.3093863
  43.2413197  89.1522121  64.4847345  43.8801813  89.5543098  65.7966661
  66.8158007  74.1832876  61.6384649  67.2134304  74.7448635  62.3038626
  65.9260654  74.0288973  61.9559050  72.0181417  67.2557354  64.2168427
  71.2381697  66.8225574  64.5635796  72.7371788  66.9174671  64.7504997
  71.8116959  30.5100196  87.1637535  71.7078289  31.2427466  87.7708340
  71.1595353  29.8694652  87.4476624  33.5697627  82.3788261  55.6319666
  34.0272951  81.6796970  56.0990000  32.6772428  82.3530769  55.9768915
  26.3799811  87.9964454   2.3093683  25.8715153  88.3585173   1.5836984
  25.7680321  87.4192435   2.7660829  39.1717720  94.2181015  57.3746872
  38.8564730  94.8966122  56.7776585  38.7431598  94.4141197  58.2078123
 104.6200268  44.1908748   4.9661237 104.9590675  45.0746257   5.1085168
 104.5881073  44.0971095   4.0140611  88.2280406  16.0459464  10.1660240
  88.5166319  16.4368957   9.3413430  87.5990160  15.3733104   9.9050224
  55.1156569  72.6153278  19.7741580  56.0374212  72.7381229  20.0011182
  54.8509979  73.4499359  19.3873477  61.9137764  90.1582718  56.5532255
  61.7445374  91.0992527  56.5069103  62.5384903  90.0623703  57.2720861
  90.5089482   2.1661799  67.0013809  91.3918646   1.8140738  67.1141195
  89.9400195   1.3966220  67.0199490  58.4772205  73.9216089  35.8191967
  58.2364321  72.9968023  35.8738589  57.9268122  74.2714024  35.1185346
  74.8511132  18.6088508  57.8476429  74.2587527  19.1719001  58.3459473
  75.6117757  18.4972613  58.4178829  12.0071403   7.8987067  60.7801199
  12.5203602   8.6241763  60.4244089  11.1804287   8.2993453  61.0489416
  66.6860771  94.8373032  23.2420039  67.2428370  94.3298244  22.6514864
  67.2530985  95.5390739  23.5617614  64.8137665  92.5008965  66.3319635
  64.8990583  93.3552837  66.7550421  64.5198345  91.9160557  67.0303869
   0.1504024  59.6499300  52.9616499   0.8290656  60.3116179  52.8282166
   0.4215224  59.1849947  53.7532043  81.1960848   8.3344405  86.6278553
  81.3470181   9.2641776  86.4574528  81.4079293   8.2233279  87.5546837
  25.6321955  86.9177437  60.7498837  24.7346640  86.6907310  60.9930658
  25.9908986  86.1116982  60.3785849  44.7669496  12.1570247  46.6224051
  45.0257202  12.3870891  47.5147820  44.4696405  11.2493747  46.6857147
  49.5365429  89.8201084  36.5290427  48.6944151  89.4891930  36.2167192
  49.9926758  90.1008701  35.7357287  47.5378799  97.8532982  41.2205076
  47.1791553  98.6209106  41.6658449  46.7829418  97.4509907  40.7910442
  78.7951573  22.2931521  62.1455288  79.2502650  21.7483943  61.5033960
  78.2544096  22.8823131  61.6194916  51.9281626  84.0366268  33.7275410
  51.4949274  84.8087311  34.0914059  52.1586704  83.5087585  34.4920349
  37.7508712  87.0641708  51.4089584  38.4440231  87.2541142  50.7767439
  37.6176620  87.8902912  51.8737411   3.1375543  21.5331786  78.4745264
   2.4006550  21.2915271  77.9134417   3.5476247  22.2727340  78.0260420
  93.5379370   2.2049182  39.5351434  94.0058526   2.9643290  39.8824072
  93.0464228   2.5472873  38.7885308  67.0859766  90.8011818  40.4754257
  66.3813877  90.6547928  41.1065817  66.6461754  90.8194160  39.6254420
  34.2390769  24.7286933  48.7916756  33.3677062  24.9992793  48.5023117
  34.1102118  23.8510554  49.1513538  56.0811949  98.9214134  12.9957426
  56.7551947  99.0662098  13.6598134  56.4796734  98.3061123  12.3802304
  25.3754735  91.3236523  41.9497204  26.3124061  91.2436104  42.1285582
  25.0451803  90.4264736  41.9966221  84.8087986  14.2645400  87.0585823
  85.1237734  13.3674090  87.1689415  85.3387984  14.7808688  87.6658344
  49.9954033  98.2465553  77.3275518  49.9603748  98.8208008  78.0925655
  50.8241177  98.4654808  76.9014835  82.3569393  92.1996593  42.3830938
  81.9444084  91.8294525  41.6027069  83.2836533  92.2695351  42.1538448
  74.9450763   9.5903628  51.0243082  75.0401004   9.8532622  51.9397783
  74.5549329  10.3521007  50.5956221  66.3144732  99.6592140  42.4542570
  67.2503233  99.4986725  42.5752306  65.8863544  99.0249443  43.0292749
 103.4460505  10.8391421  14.9055469 103.3475073  11.5604918  15.5269778
 102.7042159  10.9345668  14.3082142  99.7666272   3.1004851  19.0727270
  99.3795928   3.9739364  19.0133870  99.0300616   2.5028842  18.9439738
   6.3280493  92.2335148  65.1479197   6.9000399  91.4660263  65.1518774
   5.4531431  91.8793678  64.9887085  17.2448802  77.1481752  39.0344596
  17.7195263  76.8035412  38.2780409  16.3260102  77.1358490  38.7665796
  85.7443905  81.3975525  56.1636496  85.6803322  80.5745506  55.6790829
  85.1010323  81.9712353  55.7474613  12.2269106  50.6984527   4.3253404
  12.5421333  50.3830535   5.1723367  11.3779354  51.0960490   4.5186883
  23.3731556  39.8753554  14.4099695  24.0898848  39.2573077  14.2666227
  22.9861069  39.9984748  13.5432130  91.1649712  13.4067100  52.0579767
  90.8699282  12.8175395  51.3636684  91.2681349  12.8417438  52.8237486
  60.6097794 101.6815472  85.1793861  59.8173571 102.1547318  84.9256325
  60.9507084 101.3275051  84.3580151  79.7329529   9.0415805  31.6540956
  80.6162318   9.4088595  31.6882133  79.2625435   9.4829791  32.3612857
  35.4824638  82.8900623  24.2352128  35.5510926  82.3151112  23.4730172
  36.2369776  82.6600361  24.7774577  41.9832802  99.0475655  39.2921591
  42.5794411  98.9044189  38.5570860  41.5031290  99.8423767  39.0598536
  54.6963072  87.0059586  71.7335129  55.0104332  87.8663445  71.4554930
  55.0834656  86.3954258  71.1061478  44.0150785 101.5113449  29.4920516
  43.9895010 100.5883503  29.7443461  43.1108284 101.8106747  29.5867467
  41.0054445  93.5094643  75.0363922  40.5608320  92.7193832  74.7292614
  40.3123856  94.0335751  75.4378843  94.2682465  12.2895186  45.0947189
  93.9700087  11.6208785  45.7113218  94.7470005  12.9176181  45.6355762
  21.6208315  65.9693534  12.8857976  22.0291329  66.8298251  12.9812700
  21.7862368  65.7254702  11.9750864  93.6266001  17.2128337  14.1325581
  93.6977442  16.3663238  13.6914480  94.5328625  17.4787467  14.2881727
 105.8847722   9.1701358  52.5823402 105.3138693   8.8489669  51.8843794
 106.2805327   8.3801978  52.9505920  32.3835564  54.5938975   5.5389768
  33.2982159  54.4747836   5.2831537  31.9352055  54.8237521   4.7251112
  74.1313084  21.7419761  67.3234415  74.1580614  21.1740249  66.5534115
  73.2205447  21.7063563  67.6157999 100.0202465  85.9080505  48.8794470
  99.5600128  85.0688553  48.8928509  99.4050789  86.5249443  49.2759705
  72.8984173  15.6152480  32.0963597  73.1522473  14.7739547  32.4758816
  72.8729518  15.4545443  31.1530900  40.9934821  15.1704162  51.7356777
  41.3062032  14.8655551  52.5874376  40.0479331  15.0237220  51.7611647
  57.1019125  99.1187477  75.8015108  57.5456667  99.5517731  75.0722694
  56.4681005  99.7645473  76.1136913  49.3900537  87.4536800  27.4605083
  48.9638996  86.8672371  28.0855703  48.7333345  87.5950432  26.7786217
  33.4595919  44.5337493   7.5201589  32.8236580  44.4479091   6.8099100
  33.9547587  45.3239161   7.3040945  47.1711302  83.0272198  40.6988573
  48.0691099  82.7060318  40.6170225  47.2251368  83.9527130  40.4605579
  53.3145948  18.9411204  64.7504902  53.6076578  18.9098113  63.8397932
  52.3590919  18.9272635  64.6952248  87.0319327   9.3312209  69.4486856
  87.3867520   9.7172969  70.2494860  86.3298090   9.9266093  69.1864538
  62.7964258  81.9583511  75.2006578  63.4199238  82.6784897  75.1063919
  62.8349543  81.7281532  76.1289644  18.7626874  89.7263527  58.2973480
  18.1632876  90.2705193  58.8080645  18.2755315  88.9179325  58.1380701
  36.5853333  86.3676929  72.7919102  37.5287914  86.2530327  72.6780176
  36.4779949  87.3008156  72.9762888 101.7422541   5.1614707  83.9743042
 101.6947230   5.1208442  84.9294567 101.2216242   4.4154303  83.6766338
  36.9705868  87.5551605  59.5629072  37.7890420  87.2298527  59.1880178
  36.8738747  87.0713329  60.3831434  98.8459261  17.3961108  40.7784939
  98.1257494  18.0168860  40.8890057  98.4446581  16.6363948  40.3565359
  16.1561489   4.4355018   7.8977376  16.8787623   4.1796357   7.3245031
  15.4118061   4.5521123   7.3073274  11.8860428  21.8337863  17.1182251
  12.0239441  22.4339812  16.3854361  12.4858753  21.1073058  16.9489336
  89.8291969  75.9304190  65.8543634  89.3020248  75.8167744  65.0635386
  90.4789543  76.5916920  65.6161022  66.6816235  63.8752031  38.4064531
  66.9208097  64.7967815  38.3079219  65.9494162  63.8823795  39.0229368
  92.1499690  14.0201514  57.9591751  92.8650387  14.4301742  58.4457874
  92.2667035  13.0817073  58.1072378  54.6983910  96.9020557  45.0890970
  53.9261198  96.9744015  45.6499910  55.3762579  96.5408230  45.6602716
  15.7950584   8.5267108  43.6942911  15.3620331   8.5178321  42.8406906
  16.0982315   7.6273196  43.8184357 104.5028265  26.5262740  71.7027760
 104.7394474  25.8759921  72.3641253 105.3221472  26.9829505  71.5120220
  51.1238337  97.2890282  37.1456099  51.3781023  96.4796638  37.5888944
  50.3677034  97.0429039  36.6127634  15.2349591  88.6479664  56.6917515
  15.4612815  87.9713631  56.0536146  15.7590938  89.4060230  56.4331579
  38.9155579  72.9727364  48.3146000  38.8659191  72.3378563  47.5999689
  39.8528433  73.0739498  48.4803867  50.6830263  93.0145168  52.4333954
  51.5220642  93.4625530  52.3261261  50.9173203  92.1349525  52.7295494
  51.8575191  79.3876219  65.5697107  52.5075960  79.0530682  64.9518871
  52.1664667  79.0918398  66.4260340  63.1335354  97.1729851  75.1864624
  62.2615767  96.9725609  75.5266809  63.6267900  96.3602734  75.2980232
  84.9417496  98.9812946  67.4820518  84.3336010  99.3020725  68.1479979
  85.7007790  99.5602798  67.5520563  34.6456504  92.9400253  47.4615574
  33.9748287  92.6378822  48.0738831  34.6481609  92.2828293  46.7656231
  35.9448266  80.9000874  13.4298003  36.0016966  80.0850677  12.9310644
  36.4540434  80.7317543  14.2226386  45.9300661  98.1950283  23.1465745
  46.2838650  97.4397659  22.6768541  45.7510567  98.8401794  22.4624920
  90.3712090  10.1374762  28.6543036  91.0759457  10.6618922  28.2740879
  89.9839552  10.7043403  29.3213367  96.0706051  13.6062949  46.5621138
  96.5220126  14.1860240  45.9486246  96.7047986  13.4596961  47.2639227
  52.3100328  85.1484585  69.8036671  51.4877844  84.6650600  69.7232771
  52.0970774  85.8909416  70.3690052  14.1244594  24.3139117  78.0486631
  13.4438698  23.6473411  77.9553032  14.8999588  23.8269942  78.3274603
  85.1962193  46.7344134  83.1506443  85.9829529  46.2570517  82.8871822
  85.0279482  46.4428084  84.0466785  74.2054462  93.7672997  62.7069950
  74.0597248  94.1684437  63.5637808  74.9362993  94.2596245  62.3332167
  92.6061352   8.5626262  57.7129221  92.2421845   8.6126655  56.8290281
  92.0780381   7.8958743  58.1519985  22.9887478  40.5217879  63.3889294
  22.5904361  40.6430667  64.2508316  23.7272636  41.1306613  63.3785534
  93.7136229  38.9201675  82.4378574  94.4582923  39.4865261  82.2355038
  93.5122975  39.1076599  83.3546722  75.8197069  92.0644855  67.6634359
  75.8730698  91.7935085  66.7469501  74.8817873  92.0820618  67.8537798
  89.7406197  92.5959110  66.3529444  89.2788696  93.3742142  66.0410976
  89.0705585  91.9127083  66.3751459  58.1294918  96.9132900  44.5804691
  58.0087090  96.4003563  45.3795576  57.6568937  96.4232731  43.9075899
  72.0976456  10.5245536  44.1977501  72.4724658  11.3247149  43.8296700
  72.6633056   9.8238318  43.8733339  83.0746269  89.2859364  52.1486235
  82.4538898  88.5748196  51.9897842  82.5926781  90.0803661  51.9187593
  54.0429640  98.3937645  60.1699305  54.3838072  97.9133701  60.9244394
  53.1345797  98.1024933  60.0909805  53.4916353  68.3152962  75.2893972
  54.2897511  68.4883642  74.7901058  53.7068224  68.5791445  76.1840010
 100.2750214   3.6590522  44.5035124  99.9306925   2.8394168  44.1487503
 100.4604348   4.1947120  43.7321949  78.3595522   6.5618842  65.0241995
  77.4159058   6.4901870  64.8806000  78.7208327   5.7596915  64.6471119
  78.2652998  84.3900871  54.6878815  77.6936579  84.9927330  55.1635599
  78.1117153  84.5924187  53.7650061   5.3034441  10.4770320  45.8923483
   5.8658687  10.9670680  46.4921618   5.0226537   9.7137015  46.3970375
  84.9862679  21.7532199  37.3619580  85.1976069  20.8885711  37.0098972
  85.6273707  22.3389953  36.9593549  12.2508804   2.2237437  77.6031256
  11.3354675   2.1527427  77.3325491  12.2179596   2.6865333  78.4403658
  55.6722736  95.7908916  36.2093568  55.4098606  96.7113972  36.2023878
  55.4329872  95.4802322  37.0825458  87.1744728 102.1153641  83.9735508
  87.4314976 101.3053036  83.5331249  86.9481945 101.8430710  84.8628712
 104.5444163   1.6684478  12.2188735 103.9380988   0.9337085  12.3125160
 104.5989283   2.0473140  13.0962121  31.8958473  78.4594774  50.2519655
  32.2941685  79.3282938  50.1996851  31.5596962  78.4035444  51.1464500
  68.9039183  58.9182568  41.1450148  69.5191860  59.3835115  40.5782604
  69.2353439  59.0661621  42.0307398  63.2924843 100.6228161  72.4172640
  62.4394369 101.0558510  72.4493313  63.6170197 100.7981014  71.5339851
  75.3462029  92.7477932  29.9711347  75.6210470  92.9926682  30.8547235
  76.1079788  92.9353714  29.4227338  82.6870545  12.5351851  77.6816368
  82.8421362  12.4133056  76.7449760  81.9807204  13.1796878  77.7255917
  96.9396838  23.3934157  29.5255470  97.5808438  22.9852717  28.9436889
  96.3652857  23.8871520  28.9402914  47.2826529 101.8468285  57.6836157
  46.8166161 101.0151291  57.7691555  46.6972923 102.3969460  57.1630859
  98.1161412  12.1617167  15.8590186  98.3466156  12.1683352  16.7880332
  97.3664292  12.7532809  15.7940221  44.5202446  80.9317589  54.3207502
  44.1035748  81.6245747  53.8082790  43.7901926  80.4385662  54.6949339
  57.1698093  88.5228539  36.4304185  56.3903618  89.0079880  36.7012143
  57.5878572  89.0856934  35.7787466  75.8792623  26.9030230  26.2850523
  75.8872207  26.2002891  25.6351781  75.0671609  26.7683547  26.7735076
  45.9910965  73.1344604  23.3949304  46.4484024  73.9750528  23.4174538
  46.6852903  72.4816465  23.4852433  79.2970189   3.0953544  29.7836304
  79.5676669   3.0123084  30.6980062  78.5192545   2.5419085  29.7128510
  10.3484146   4.9701446  66.9491863  11.0163585   4.3514102  66.6537809
  10.7361786   5.3936522  67.7150249  56.4133215  78.3236456  86.0157585
  56.1271858  77.9882193  86.8653679  56.9014406  77.5992489  85.6243134
  61.5983057  87.6917553  63.6542082  61.0504341  86.9366932  63.8685751
  61.0807514  88.4488010  63.9285183 104.1367571  29.6842868   2.5591356
 104.9300448  29.3405444   2.9699499 103.5650699  28.9220816   2.4672395
  98.8338224  66.9466693   0.6674844  99.7160618  66.9576365   0.2963144
  98.9451687  67.2754580   1.5595228  26.3233376  89.0638733  65.4908514
  26.3311815  88.4377098  66.2147951  26.7594194  89.8405838  65.8412504
  50.1812029  94.0390015  33.3088231  49.9821043  93.4357643  32.5927925
  49.4933271  94.7029018  33.2609558  57.2911882  99.0575886  54.4377947
  56.6936398  99.7077084  54.0683126  58.0316925  99.0409946  53.8314915
  99.2070588   9.8202842  21.2459350  99.6098526   8.9945357  21.5145016
  98.6492928   9.5847266  20.5045581 108.0936583  13.1213897  35.3993344
 107.4128588  12.8213160  36.0015774 108.0476054  14.0765040  35.4424953
  87.9084778  96.0584354   7.7106911  87.3463821  95.2849960   7.7562004
  88.0104637  96.3343239   8.6215776 107.7273520  11.0109656  49.8181391
 107.5490054  10.5082076  50.6129026 108.5845955  10.7010978  49.5260143
  92.7563286  91.6906548  57.4881268  92.7075481  91.8479252  56.5451956
  93.5893631  91.2358284  57.6123047  52.2052622  75.9882402  42.2478151
  51.5062332  76.4498663  41.7846823  53.0098391  76.4162159  41.9550371
  99.8737963  11.9117492  47.2154856 100.7290801  11.9853919  47.6389170
  99.5136126  11.0883086  47.5447989  48.0268860  80.7200909  43.7767792
  48.8585186  80.5582047  43.3313513  47.3639870  80.3724957  43.1801462
  97.1478462  62.7216864  80.0748920  96.7294025  62.9357386  80.9087372
  97.9113388  62.1978378  80.3175640  30.7566643  70.4736430  22.5854951
  31.6690874  70.4256541  22.3001653  30.7581711  71.1284453  23.2836801
  39.4917250  94.6879005  52.1667624  40.2297544  94.4166851  52.7126503
  38.7351584  94.6525383  52.7520752  60.3779411  82.4416447  27.2412062
  59.6134090  82.7825642  26.7769861  61.0108328  82.2471714  26.5499330
  70.4827023  93.6610222  76.7470932  70.5021286  94.4237709  77.3250818
  69.7969198  93.8607693  76.1098862  91.0408123   0.7602637  87.7790642
  90.4986151   1.1105388  87.0722675  91.3233431  -0.0974328  87.4616337
  69.3317413  95.5027580  70.1122189  69.8582697  94.8452854  69.6575403
  69.6466827  96.3397312  69.7708750  90.5453118   5.9127372  66.1048412
  89.6720894   5.8489936  65.7179976  90.5958041   6.8095057  66.4357424
  43.0704594 100.7652187  41.4709806  43.3763695 100.1224804  40.8310318
  43.8072252 100.8738518  42.0723200  46.7283869  92.3650455  54.4178867
  47.3098373  92.2516823  53.6660194  46.4285612  93.2718468  54.3542099
  67.3006058 100.9623623  68.2412529  67.2253895 100.3907681  69.0053606
  66.3958454 101.1681271  68.0060768  45.8535290  97.1246243  82.6132202
  46.6854572  97.4339867  82.9715824  45.9145784  97.3058319  81.6753197
  78.4328135   0.9905761  87.5177479  77.7890166   1.3042491  86.8826389
  78.0808791   0.1541751  87.8223896  66.4601239   0.3093284  49.6952391
  65.8825644   0.3272860  48.9321280  65.8873685   0.0688880  50.4235029
  57.9307079  91.8857861  60.9519482  57.6659393  92.1889973  61.8203878
  58.8376856  92.1783543  60.8623219 101.6840991  15.7235949  53.1392241
 100.8971270  15.1917975  53.2579565 102.0634135  15.7890456  54.0156221
  44.6846628  84.5165348  44.2293119  44.7342253  84.5260048  45.1851845
  45.5964756  84.4647598  43.9426994  76.0831460  15.2566379  44.1960478
  75.7234319  16.1047404  43.9361525  77.0286330  15.4000609  44.2375755
  56.9099331  50.7837207  13.3221036  57.7200127  50.4496104  12.9369051
  57.1602822  51.0607821  14.2034608 105.5179604  39.0695231  28.5098577
 105.9802350  39.9074500  28.4897232 105.0461491  39.0362113  27.6776814
  10.8204166  12.8550952  48.6767006  10.6454078  12.4472945  49.5248175
  10.5594722  13.7688106  48.7918806  86.7524338  95.7157516  44.3002176
  86.6568565  96.4769077  44.8726940  86.2890720  95.0132847  44.7563744
  67.5473555  13.3966678  24.4241977  67.6242050  14.3197482  24.1828561
  67.0979889  13.4066718  25.2693033 101.2233075  10.9656375  30.9556842
 100.8854254  10.7471126  30.0871730 102.1682795  11.0523360  30.8302140
  64.4542789  98.7026215  63.7062550  63.5978794  98.3768463  63.9831734
  65.0440788  97.9584312  63.8269138  11.6159336   3.1093924  70.5257893
  11.0875026   2.7929347  69.7930908  11.5222637   2.4342673  71.1978436
  45.9735346  98.8243008  43.0979490  46.2803793  98.9402294  43.9971972
  45.2900505  98.1572533  43.1622171 101.1727198  30.9227508  77.7049065
 100.5137547  31.1304992  77.0424604 101.7204245  31.7063659  77.7519131
  93.7068089  33.1267970  73.6870146  93.6519011  32.7739089  74.5750952
  94.6355542  33.0680316  73.4629345  94.6474894   7.3532145  54.6540499
  95.1097496   6.7124217  55.1943493  95.1679190   8.1527179  54.7326803
  87.6309117  24.1396563  44.8037767  87.7985581  23.6755221  43.9835930
  86.6932639  24.3310492  44.7833395  74.9890479   0.2008098  80.0677490
  74.3252142   0.5253070  80.6762409  75.4964694   0.9770244  79.8306036
  66.5955448  44.4292212  22.5545144  65.7930136  43.9082384  22.5271583
  67.1897650  43.9247608  23.1100774  26.5574837  82.7105713  56.6530180
  27.1960378  82.2419548  57.1904898  25.7460308  82.2136784  56.7572880
 106.5462788  22.2478621  68.0712795 106.4988907  21.2953704  67.9891872
 107.4717148  22.4538749  67.9395151   1.6198007  25.0256198  83.3548069
   1.3534395  25.3565638  84.2125702   0.8336775  24.6059649  83.0053329
  88.4606075  86.1921978  86.3377190  88.0513668  85.3315449  86.2480736
  88.1998634  86.6648865  85.5472755  55.2829885  75.8538532  63.8424921
  55.7475233  76.5584421  63.3908367  54.3982792  75.8780432  63.4778881
  37.4123335  89.2643070  62.4997616  37.1884251  89.0882587  63.4136009
  36.5800428  89.1963959  62.0318747  14.7624294   7.5898498  69.8189020
  14.6132652   7.5703662  70.7642078  14.5087234   8.4741538  69.5545721
  72.7066000   5.5419486  74.0017605  72.7732023   6.4101642  74.3992472
  73.5039862   5.4559367  73.4792566  99.5423277  17.1879046  66.9196081
  98.6238440  16.9565814  66.7813683  99.5435866  17.6852267  67.7374744
  51.3143682  99.0015888  16.7529058  51.8486023  99.3640518  16.0461938
  51.9328642  98.8514423  17.4678516  97.6803263  10.4164832  31.8428206
  96.7861279  10.1697009  32.0789242  97.5799426  10.9646075  31.0645390
  25.4602719  58.7140948   2.1745378  24.8022175  58.8029105   2.8639680
  24.9701977  58.3999259   1.4146978  30.7931995  99.5374775  82.0350552
  30.5522704 100.1973534  81.3848686  30.4705954  99.8896313  82.8645992
 100.9805830   6.9986289  66.7324972 101.1526259   7.9348414  66.8332386
 101.1952122   6.6224521  67.5861120  62.7620793  41.2672336   1.9996244
  61.9108486  40.8747489   2.1934873  62.5615120  41.9966704   1.4131719
  17.1523849   0.9682506  13.1384444  17.9304878   1.3104384  12.6983345
  16.4220325   1.4315169  12.7283251  93.9482125   1.0594504  58.5853624
  94.5597991   1.7570537  58.8210487  93.4081086   1.4385741  57.8919792
  84.7727299  82.8497696  24.6903777  85.4048538  83.2694721  24.1068578
  84.5402908  83.5309410  25.3214145  80.1078033  90.2152824  49.2465830
  79.9014759  89.9007702  48.3663893  80.3425503  91.1350346  49.1233778
  19.1325390  71.9838047  75.3068686  19.8937988  72.4905396  75.0241470
  18.8044870  72.4524021  76.0743523  57.1460613  16.3050693  60.4102421
  57.7099665  15.9119266  59.7441435  56.2570032  16.1653655  60.0842237
  19.2791549  21.9101470  72.3782158  19.4724266  21.6146701  71.4885092
  18.3955757  21.5854972  72.5517750  26.1897461  11.9660323  84.8267269
  26.8519966  12.2301333  85.4654026  26.5526954  12.2313922  83.9816952
  22.0170967  24.2466395  71.9481134  21.1489479  24.2801326  72.3499012
  21.8899433  24.6114867  71.0723543  83.9080048  74.2552423  29.0130782
  83.9933491  74.9757051  28.3886695  84.0409279  74.6629572  29.8688412
  95.3272732  21.8868964  42.1475840  94.7055682  21.1591285  42.1392155
  95.6835659  21.8873256  43.0360031 100.9396657  16.0841983  57.9172754
 100.9768351  16.7353003  58.6179304 100.0063618  15.9006064  57.8101921
  88.8474282  18.3439391  56.7288923  89.3880948  17.7034610  57.1911669
  89.4761713  18.9519256  56.3399649  93.3465862  97.6336384  13.3749032
  93.3958149  97.6567841  12.4192500  92.5745296  97.0996761  13.5620999
  46.4058399  99.9620724  67.4555302  46.3134527  99.0546036  67.7456903
  45.9729433  99.9859142  66.6021490  65.6063684   2.0486587  41.7707825
  65.2004989   2.2298663  40.9230375  66.0426363   2.8671687  42.0073080
  64.4519377  99.1186333  50.6845379  64.5500135 100.0550365  50.8570480
  65.0446653  98.6970901  51.3067961  80.3181275  33.3372443  82.8894711
  81.1571702  33.2955687  83.3482838  79.7911557  33.9446872  83.4086514
  85.3063115  26.5444129  46.1780930  85.6120881  27.0791285  45.4454184
  85.4722985  27.0819037  46.9525480  71.3776779  88.2402420  16.7416298
  70.9573889  87.4117374  16.5110314  70.9020901  88.8990498  16.2356484
  50.8980179  82.2643375  59.4960642  51.6284466  82.8747272  59.5967388
  50.8346415  81.8247318  60.3439808  56.3795948  96.1510277  69.0868521
  57.1069241  96.5191269  69.5885706  55.7014990  95.9779549  69.7398996
  70.3635701  20.3657859  55.4362774  70.4158052  19.4100135  55.4359245
  70.0447758  20.5879062  56.3110685  24.6317760   0.2689879  73.5898829
  24.0272037   0.8417933  74.0616989  25.2909462   0.0282615  74.2408705
  12.6039879  24.9608367  61.9115734  13.1523887  24.4039481  61.3589764
  13.1819431  25.2351611  62.6235771  56.3746071  81.5373135  52.3578787
  56.6191530  81.7230701  53.2644796  56.9862366  80.8555794  52.0797014
  56.8320990  78.1512117  34.6276093  57.5649214  78.6065292  35.0422025
  57.2141027  77.7378464  33.8533807  17.6641361  26.9395202  64.9980783
  16.9908516  26.8250125  64.3274117  17.3775379  26.3834708  65.7225800
  97.3151843  71.5639979  13.3565027  97.0320408  72.0393474  12.5754053
  97.2903292  72.2166831  14.0562231  60.9778881  96.9328785  77.4848843
  60.1695967  97.1931744  77.0431423  60.7623529  96.9646072  78.4169626
  62.4805784  96.4527988  66.5987778  62.1842957  97.1712780  67.1575642
  61.8919039  96.4776611  65.8444023  49.5888043  88.8086230   3.6457330
  50.1467419  89.2102820   2.9796964  50.1043701  88.8566214   4.4507867
 107.2789582  21.7962592  60.3692007 106.7927798  20.9910529  60.1916838
 106.6028412  22.4644607  60.4814959  30.0102091  67.9218871  22.0972139
  29.2508459  68.0806071  22.6579458  30.5326271  68.7206656  22.1697408
  75.3387531  16.9418471  31.3994384  74.4314321  16.6858333  31.5651369
  75.4883846  17.6851695  31.9836617  66.1017227  77.3780203  67.3806095
  65.7948685  78.0422735  66.7634821  65.8728313  76.5447140  66.9689751
  78.9938839  15.3765815  49.1792870  79.1954525  16.0368770  49.8423195
  78.3656558  15.8049720  48.5978746  68.4616232  85.9285545  64.6487856
  69.0101957  86.7092991  64.5730686  68.7761354  85.4906273  65.4396915
 106.0200604  15.2141421  66.0730553 105.1412686  15.2171367  66.4524651
 106.2408980  14.2866843  65.9876347  93.5064085   4.7780269  30.7107306
  93.7355145   4.7378676  31.6392398  94.0482338   4.1036838  30.3009534
  95.5255898  21.0366385  77.7731752  95.8701285  20.6914466  78.5968018
  94.5945033  20.8153480  77.7915668  68.5593414  92.0062733  37.3240018
  69.0372896  92.6475811  36.7981482  68.4125805  92.4452019  38.1618810
  91.8954619   2.1209090  47.1129227  91.4467152   1.3169234  46.8512917
  91.2615784   2.8166240  46.9385242  63.6763191  20.8254773  14.3278104
  64.1217804  21.4686305  14.8792917  64.3669319  20.4707438  13.7679369
  20.7300941  28.3099311  39.8113155  20.8935253  28.3560126  40.7533360
  19.9642936  27.7416556  39.7286105  92.3009833  11.7620795  39.5019269
  93.1356581  11.4135497  39.8151040  91.9066914  12.1688788  40.2734661
  99.3097361  11.5928405  69.5118141  98.5719260  11.3057464  68.9738131
  99.1138133  11.2563079  70.3862190  73.9423656  95.9835911  49.5150661
  73.3827066  96.7554951  49.5998478  74.1195011  95.7159615  50.4168606
  90.8212431  36.1315387  16.2741637  90.5388220  36.1471599  15.3597093
  91.0453518  35.2158397  16.4400125  63.5158332  10.1844161  46.5627193
  62.6642927  10.4899829  46.8753481  63.8896831  10.9399360  46.1092281
  88.0098589  15.1244300  20.1784229  87.0752104  15.1496451  20.3834224
  88.0858859  14.4661658  19.4876695  64.5135212  86.8986702  43.0381775
  65.1495075  86.9288254  42.3234415  64.4252110  85.9673977  43.2410669
  91.5954979   1.9685786  76.3381052  91.5204628   1.0330813  76.5263748
  92.1753510   2.3046725  77.0215082  93.1246098   1.4547294  68.0214548
  93.6900385   1.1501735  67.3116875  92.8658160   0.6559699  68.4810495
  28.2645408  23.8239901  86.5525436  27.6373092  23.2031482  86.1819172
  28.5179512  23.4369891  87.3905373  44.9896336 100.3370762  34.0546918
  45.5617189  99.6701431  33.6750174  44.2340374  99.8476028  34.3798232
  12.5044910  36.3604873  41.6445827  13.1133167  35.6286567  41.5445995
  13.0570690  37.0981639  41.9028854  75.3406938   5.2644580  35.1364684
  75.9040030   5.3283637  34.3652153  74.5796522   5.8041804  34.9225950
  62.2792196  96.9447899  70.5138397  63.0659533  96.6028214  70.0891733
  62.6100922  97.4905300  71.2272167  97.1683749  12.3338359   0.8511596
  96.5433129  11.8621200   1.4016248  97.7062233  11.6471427   0.4569506
  50.7357407  80.1465702  42.5937557  51.2307119  80.9485245  42.7613926
  50.9082699  79.5947456  43.3566141  91.3266047   5.2085059  32.9780197
  91.6728838   5.8654921  32.3741174  90.7341870   5.6970828  33.5494804
  84.4387730  14.5457499  75.7492018  84.3505534  14.1985171  74.8615789
  83.5465058  14.7800868  76.0044956   5.2925531   4.6471637  32.8503633
   4.5862524   5.2410930  33.1045532   5.2290575   3.9204257  33.4700847
  96.4357527  21.4719623  49.9322748  95.8504780  21.9796985  49.3702412
  96.5207108  21.9983237  50.7272339  64.6760845 101.6718006  52.0125055
  63.9559889 102.1825695  51.6426373  64.2792511 101.1880207  52.7368784
  81.7119940  12.4613994  51.7724991  82.1272429  12.0635550  52.5376940
  82.2160681  12.1323722  51.0282707  58.9594173  99.1444969  45.8292055
  58.8610506  98.3596230  45.2901983  58.1611013  99.1745472  46.3564777
  24.4193252  82.8853130  28.0838394  24.2777045  81.9570446  28.2695484
  24.0089496  83.0241394  27.2302866  51.1173773  79.8725748  47.5320816
  50.6787920  80.4692745  48.1385708  51.7330170  79.3848085  48.0791664
  63.0866241  86.3067055  56.6898298  63.3940506  85.4035473  56.7674065
  62.4024010  86.2702370  56.0214424  94.9368342   8.5260718  21.0943866
  94.0269669   8.6720412  20.8354187  94.9360856   8.6374515  22.0450830
  32.7436058   0.6860393  46.1251211  33.2534019   1.2500327  45.5435371
  32.6186649   1.2090533  46.9170046  53.5872265  29.7971957  41.7508793
  52.7614256  29.4299262  41.4356089  54.2594703  29.2179053  41.3920784
  47.3755360  85.8427334  40.1685953  47.7551985  86.1700630  39.3531513
  46.5237665  86.2755299  40.2269030 107.3233509  93.6202431  43.1489706
 107.4031544  94.5097542  43.4934187 106.4591789  93.5992146  42.7378845
 104.3442814  41.9519812  34.3930513 103.4508435  41.6682917  34.1993314
 104.3923490  42.8438384  34.0487844  69.7885430  83.0753357  56.4611959
  69.0413417  83.5389990  56.8392706  70.5265807  83.6731202  56.5803051
  37.0783854   0.5057831  42.9799747  37.9338861   0.4602339  43.4069109
  36.4494371   0.3716578  43.6889648 103.1378959  28.5282493  43.7018919
 103.0711032  27.5793505  43.5953045 102.3167930  28.8676548  43.3457661
  25.0009513  15.3445339  33.1562567  24.0464592  15.2822268  33.1202555
  25.2106214  16.1161435  32.6300526  79.1762606  20.0961781  28.1251121
  79.3424980  20.8398986  28.7043142  79.9587480  20.0401449  27.5766563
  96.2590639  37.1032572  39.4130421  97.1480862  37.1513557  39.7645473
  96.2652652  37.6987362  38.6636448  94.8194734   0.8468367  43.9965582
  95.0589756   1.1027663  43.1058455  94.9050049  -0.1065122  44.0030193
   6.0884434  29.6552157  58.4977102   6.6757292  29.0823984  58.9908695
   5.5240464  29.0561152  58.0090761  91.4443688  22.9524827  56.2328482
  91.6235761  23.8921905  56.2654734  91.4165394  22.6819563  57.1506023
  91.3552229   3.3233899   9.0175468  90.6461255   2.8289995   9.4286323
  92.1233944   3.1330466   9.5559829   6.4855754  50.5519152  75.0239706
   5.5472803  50.5228424  74.8369217   6.6104227  49.9101591  75.7231092
  29.1629505   6.8155038  27.9407930  29.2578411   7.4629015  27.2421479
  29.9661231   6.8984193  28.4548640  16.3600481  30.1621556  63.3452606
  16.7492986  29.4516468  62.8354645  16.6900718  30.0281501  64.2337227
  94.6137802  20.0380683  20.6655383  93.7701766  20.2830458  21.0457349
  94.3898384  19.4482279  19.9456978 107.0293574  25.8614945  50.4308462
 106.5130759  26.6668200  50.3971291 106.5737901  25.2600932  49.8417759
  43.3710623  26.3179827  26.8682003  42.9612398  25.4560590  26.9414759
  42.9879284  26.6989660  26.0780787 102.4041770  22.0249748  49.5999384
 102.0276598  22.8653026  49.8613119 102.1127544  21.4117217  50.2746439
  31.0519147  13.1694031  66.2580109  30.5314660  13.9616513  66.1249495
  31.8435431  13.3129632  65.7394123  12.6611245  41.5463924  53.9796829
  12.3726344  41.8023491  54.8557520  13.5932100  41.3536835  54.0812302
 105.4516991  95.4207111  41.8239594 104.5164855  95.4557259  41.6230059
 105.8676847  95.2004332  40.9904909  21.2664533  45.3136063  56.3586855
  22.1431947  45.2300692  56.7336226  20.7636476  44.6081400  56.7657948
  10.5141497  32.4144506  25.8248997   9.5903248  32.2834563  26.0384846
  10.7276821  31.6932940  25.2328110  18.9790499  51.2556648  38.3851123
  19.0551305  52.1512413  38.7143397  18.7029064  51.3579512  37.4743366
  94.0827410  12.3093510  41.5725374  94.1543154  11.3625753  41.4511919
  93.9766471  12.4224234  42.5170946  80.7643048  10.0844491  24.3738437
  81.0806433   9.2894495  24.8029566  79.9973742   9.7994840  23.8770080
  92.7474292  89.1345651  41.4870548  93.3957680  89.7465868  41.8353653
  92.0036777  89.6860332  41.2442589   4.2570189  39.4273520  80.2305794
   3.7721619  38.7870479  79.7098494   3.5957927  40.0625038  80.5055237
 106.8159946  88.2530410  31.7723250 106.3859161  88.2357509  30.9173584
 106.3872941  87.5569350  32.2702050   0.7509466  21.7222929  29.3988109
  -0.1022185  21.3259244  29.2220807   0.8381374  21.6882777  30.3514242
  71.6783285  58.0152547  85.5252930  72.3368573  57.3206621  85.5146450
  72.0094371  58.6494892  86.1611743  25.5402160   5.1571929  48.1312895
  24.9918461   4.4606492  47.7702522  26.0831738   4.7191617  48.7866974
  57.7819892  95.3215433  66.9053411  57.5056144  95.2526767  67.8191805
  58.0655821  96.2306506  66.8087435  11.7466688  18.6051464  31.1809897
  11.2857127  17.8528214  31.5521479  11.3015616  19.3663371  31.5534139
  94.9668948  15.4313469  49.6797085  94.0508715  15.4106200  49.4027519
  95.1251571  14.5625794  50.0490665  63.4180649  89.6116836   4.2115536
  63.7492021  88.9805026   4.8504522  64.1270210  89.7023589   3.5748500
  53.7194093  92.8921641  40.7425261  52.8783627  92.4370987  40.7848215
  54.3541916  92.2041852  40.5426073 102.6303681  93.2613356  19.8492575
 101.8685516  93.8380653  19.9062669 103.0529173  93.5034306  19.0251970
  87.1391900 100.5753572  86.1547756  87.6295372 100.9813288  86.8696022
  87.5434788  99.7146281  86.0455608  20.6237030  36.9944882  59.8698854
  21.5734982  36.9301414  59.7699928  20.4820919  36.9974899  60.8165503
  27.2675204  26.5603328  69.2732763  27.7635813  25.7480884  69.1712236
  27.9229546  27.2531366  69.1916656  35.1170397  19.0206814  69.1953993
  35.7155848  19.1004229  68.4526873  35.6733799  19.1395640  69.9651957
 103.1615643  28.4710383  48.6732912 103.3696378  28.9985800  47.9021645
 103.0053825  27.5923252  48.3273125  22.1299553  39.6774101  54.9587202
  22.0722032  38.9487147  55.5767012  21.2424731  40.0345230  54.9258852
  22.3281550  33.5878825  16.7382896  22.4762440  33.1656146  17.5844526
  21.4081073  33.4124994  16.5408444   9.1720974  19.3161452  15.2832735
   9.7500521  18.8053823  14.7164214   8.4774709  19.6247101  14.7014534
  93.5127549  25.7771325  49.3081760  93.3987300  24.8381305  49.4548321
  94.4092826  25.9566593  49.5914459  76.6575829   2.2156830  22.2194076
  75.9718625   1.7516431  21.7391109  76.7650525   3.0407453  21.7461705
  94.9255792  19.8843193  44.3988943  95.4223100  19.2058063  44.8561764
  94.2079751  20.0986099  44.9950123  91.5222184  32.9929972  28.0276799
  92.3339109  33.0444908  28.5323930  91.1916642  32.1104217  28.1950951
  22.1431971  21.8033624  38.2634091  21.3318014  21.3116264  38.1366730
  22.8072953  21.1326981  38.4228277  29.5402431  37.1710968  87.9186440
  28.9032912  36.5422463  88.2578659  29.5082998  37.0557332  86.9689560
  18.0192876   3.9487255  37.4055862  18.4090555   3.6492738  36.5842199
  18.3833718   3.3643311  38.0705357   3.0183369   7.2012174  44.8010540
   3.0184573   7.1494728  45.7568550   2.1274781   6.9590133  44.5481920
  53.1582467  18.6196864  71.2627745  53.5759894  19.4117165  71.6010189
  53.2345931  18.6961305  70.3116894  11.4234006  36.4599609   9.2116129
  11.3467002  37.2105312   9.8006737  10.8481169  35.7966161   9.5927334
  88.0367224   5.3401101  25.7437801  87.3761312   5.9920597  25.9778976
  88.3987848   5.0541461  26.5824509  90.4985921   7.6117015  34.7002411
  89.7824160   7.7067691  34.0723205  90.7290606   8.5096848  34.9384451
  32.3001862   3.8210160  17.8706276  31.5227628   3.7931684  18.4283662
  31.9979382   3.4971493  17.0221066   9.9901646   9.8746312  28.6264873
   9.9953657   9.4439948  27.7716446   9.3060219   9.4211459  29.1189623
  17.6805246   2.7054906  49.0902519  17.7602482   3.3549246  49.7889042
  17.6861739   3.2200539  48.2831430   9.5506519  31.1362052  48.7092543
  10.3119326  31.4524865  48.2227898   9.3605536  31.8337560  49.3365669
 104.6138748  99.9947553  71.1064577 105.0627883  99.7793210  70.2889633
 103.8656863  99.3983220  71.1332226  37.5936128  72.9709857  87.7219411
  38.4015530  73.1137603  87.2289099  37.8127870  72.2787541  88.3456495
  82.0255796   5.3728622  27.3744464  82.2142879   4.5097482  27.7427626
  82.7659265   5.9158599  27.6451373  36.7078447  22.7354693  28.5844445
  35.7670522  22.7835250  28.7542486  36.8174648  21.9373417  28.0675220
 105.1591183  27.5430274  21.7861438 106.0693226  27.7625155  21.5871835
 104.9681447  28.0216575  22.5927877  15.0711799  12.7473235  45.5078650
  14.1904688  12.6716781  45.8750916  15.6497955  12.4498260  46.2099552
 103.5171823  21.2584758  47.2253418 103.1087766  21.6273713  46.4421749
 102.9875131  21.5899968  47.9504442  48.5250425  12.4765587  41.4444399
  48.0875015  12.4490356  42.2953415  49.3886423  12.0969927  41.6067982
  72.0604806  94.8573906  55.5068445  72.6928192  95.5659235  55.6266832
  72.5566535  94.0598381  55.6911087  49.1838884  44.0097952  24.7145247
  49.6919107  43.8584852  25.5115485  49.4175005  44.8985767  24.4467020
  91.7378147  87.3708791  18.3182108  90.9286710  87.8420240  18.1193602
  92.3653658  87.6878840  17.6686597  24.4954848  38.4089327  61.9628525
  24.5717335  38.1035852  62.8668308  23.9324713  39.1811085  62.0175552
 105.3743739  44.2604399  54.2680311 106.2141080  44.0510225  53.8591051
 105.6088142  44.6551323  55.1079655 104.0213962  29.3741083  33.6181974
 103.8060473  28.9682913  34.4579411 104.9610971  29.2246842  33.5139561
  65.6712071   6.8743038  56.8785429  65.1964824   6.7067218  57.6926565
  66.0880153   6.0387391  56.6679859   8.9111745  29.6106362  62.2652483
   8.4896433  30.4375863  62.0313740   8.6008346  29.4259071  63.1516981
  15.4737437  32.2970510  37.1616840  14.9947035  31.4997983  37.3878241
  15.5253291  32.2825336  36.2059832  12.9751492   7.9100835  40.0560188
  12.6462054   7.1925598  39.5145488  13.7131977   7.5310391  40.5333424
   3.1668603  27.1963310  46.4305878   2.6658359  26.4853668  46.0309172
   3.7267900  26.7623425  47.0742989   2.0851859  12.5117445  52.1695471
   1.8794352  13.3806527  51.8247318   2.9860100  12.3499656  51.8892336
 106.4637830  34.0210557  69.6637201 106.2617375  34.4034243  68.8097858
 105.6092347  33.8107491  70.0402164  46.4953899  30.9168243  68.4514380
  46.8990088  30.8406401  67.5868464  47.1076584  30.4768848  69.0411949
  86.7469732   7.8923875  29.1758204  87.3305742   7.4059647  29.7580886
  86.7804543   8.7922907  29.5002985  28.4451032  25.4680777  63.3746910
  27.7497578  25.3815317  62.7225924  28.1082034  26.1093402  64.0003967
  25.5816102  12.1779931  49.7200489  25.4027033  12.5509393  48.8568354
  25.2474689  12.8296447  50.3364325  23.1047440  55.2618694   9.2482048
  22.7979422  55.4654694  10.1317501  22.3960567  54.7479439   8.8610685
  14.0137514  56.1654527   9.3378622  13.8629087  56.4875252  10.2265436
  14.3161138  55.2651752   9.4574815   0.7882944  23.9451694  56.5737724
   0.9727722  23.4529495  57.3737240   0.8307124  23.2919049  55.8754349
  87.8669103  97.6830409  49.0245485  87.6881548  98.5090257  49.4740248
  88.7233587  97.8125147  48.6171627 102.7313743  18.4445047  19.3394423
 102.7887170  17.4911416  19.4030201 103.6108054  18.7206697  19.0814400
   5.2072722  42.1875477  30.1966381   4.7519127  41.4096498  29.8745346
   5.8069241  42.4242258  29.4890833  71.7426125  18.0978537  32.9790902
  71.4652793  18.4642112  32.1393871  72.2108094  17.2957313  32.7475214
  77.7773492  16.6943228  37.9478168  77.6094071  17.0784926  38.8083053
  78.7317459  16.6649592  37.8807664  87.2662195  85.7888372  40.9208345
  86.6657599  86.3223583  40.4002237  87.9691883  85.5577905  40.3136444
  37.6887798  13.3382595  32.4919271  38.2169151  14.1152084  32.6753831
  38.3044600  12.6085329  32.5602722   8.0681193   5.6905133  53.6499500
   8.4815270   4.9837327  54.1457176   8.6831850   6.4209688  53.7159824
  97.0182995  22.1997333  75.8514643  96.5500502  22.0570087  76.6740227
  97.5725488  21.4254451  75.7539129  95.5713074  11.0253370  63.0244160
  95.3953127  10.9398818  63.9614058  95.1447896  10.2644598  62.6302290
  87.4430506  33.4788823  13.4726739  88.1754343  33.9788628  13.8330412
  87.7403251  33.2117915  12.6028907  89.5936410  18.1425571  24.4662499
  90.3899590  18.1091130  23.9361668  88.8874177  18.2580948  23.8305378
  92.9182557   4.6451446  47.3026705  92.2949521   4.0034899  46.9620800
  93.3921747   4.1771618  47.9901457  14.2079461  35.9738731  73.3023405
  14.3322670  35.3876090  72.5559711  14.6779156  36.7720246  73.0608511
  39.7433734  39.4157052  43.1064081  39.4337487  38.5784984  43.4520245
  40.0214672  39.9060535  43.8800097   0.7814423  50.8146620  76.2244558
   1.3438164  51.3020563  75.6224489   0.1620070  51.4658451  76.5538359
  96.3976578   8.9175749  48.7107611  95.4550342   9.0838319  48.7035799
  96.6342930   8.9203215  49.6382475  29.0349364  17.8152716  81.9498062
  28.2870221  18.2092178  81.5007401  29.2512345  18.4365535  82.6451206
   0.8316816  18.8716400  25.2173233   1.1721395  18.6892748  26.0931444
   1.1528756  18.1475711  24.6799326  96.2588887  10.2334154  43.9209461
  95.6573169  10.9678900  44.0429735  96.3642184   9.8620188  44.7968483
  18.2602286  15.4428029  41.6943932  18.3964014  14.5431781  41.9916534
  17.9213393  15.9005523  42.4637127  24.5071006  30.9328389  83.3999920
  25.4485726  30.7697725  83.3427715  24.3967462  31.8208718  83.0602169
  87.7163931 100.7377642  26.8903661  87.3318883 100.1299081  27.5219512
  87.5368293 101.6052457  27.2529459   7.9888070  23.6668229  12.4106014
   8.9009440  23.5674524  12.6832974   7.7781320  24.5796204  12.6071966
 101.5785686  24.6909547  62.5692987 100.7072501  24.6347952  62.9615736
 101.8730901  25.5801463  62.7663422 104.5841045  55.6088972  63.3490419
 105.0846444  55.5154037  62.5385141 104.8000006  56.4866400  63.6639738
  97.8319268  31.9539571  36.2810397  98.3491329  32.5962758  36.7670012
  97.2635297  31.5558910  36.9403577 104.0666221  52.9813385  53.1553221
 103.3680538  53.3044100  52.5862360 103.8442693  53.3191299  54.0228939
  16.4992380  17.7117491  63.5162354  17.4564016  17.7198815  63.5181904
  16.2646461  17.3356724  62.6678467  31.6393757   7.3018658   3.8612989
  32.4802327   6.8583727   3.9731139  31.2833357   6.9392514   3.0501398
 106.9288214  97.8322000  32.9068303 107.2259076  97.2554056  33.6105919
 107.7186688  98.0160589  32.3983288  25.1468754   3.8549581  54.7980595
  25.7304049   4.5644501  55.0670338  25.4253531   3.1040475  55.3222847
  18.8080049  30.4255199  22.2819591  19.5883954  29.8717284  22.3051763
  18.9446855  31.0615492  22.9841113  19.4517553  79.9864572  76.6770881
  19.5664453  79.7895878  77.6067763  20.3183770  79.8492091  76.2945145
  13.9855814  48.0028105  17.2909021  13.6834979  47.5222111  18.0616176
  13.6690867  48.8959599  17.4263334  19.5765197  20.7026458  69.8765755
  20.3997517  20.3361630  70.1993942  19.0334070  19.9383879  69.6837759
  75.7217677  97.8192676  20.7984781  74.7806724  97.9481978  20.6803727
  76.0440632  98.6689705  21.0990810  28.0747247  24.7667480  45.2511883
  27.3410988  24.7695422  45.8660221  27.8678393  25.4634690  44.6282816
  74.7532847  85.1854581  74.2711306  74.3062681  84.4594581  73.8360119
  75.6500717  85.1484210  73.9385176  86.6393276  91.2469751  45.3842974
  86.3202580  92.1491701  45.3626108  86.8784591  91.0994250  46.2993240
  89.6494977  11.2527120  67.1980000  90.0855009  10.9862876  66.3885880
  90.2695851  11.8478322  67.6193762   5.2422893   3.0622315  38.1272316
   5.7519132   2.2865354  38.3613491   5.4565948   3.7031728  38.8050961
  89.0792302   0.7889857  63.5564470  89.9646036   0.4797035  63.7479925
  88.6070434   0.0049499  63.2761621  99.0129141  14.2875242  29.7038054
  99.4387482  14.2839873  30.5610609  98.4740315  15.0786150  29.7073197
  10.1317847  14.6699095  74.4628429  10.7931256  13.9781070  74.4464493
   9.3884033  14.3019748  73.9850950  19.4495738  19.0014935  28.6511636
  18.5629392  18.6903608  28.8336658  19.4770586  19.8810101  29.0278959
  92.8846590  30.8407068  17.5969768  92.2461943  30.1999164  17.9099989
  93.6361508  30.3154278  17.3220682  26.6088820  26.6541052  36.9622827
  26.4904785  26.4229250  37.8835678  26.0051489  26.0794449  36.4916420
  72.6431939  87.6908238  78.0630302  73.0766762  87.1473045  78.7209940
  73.3605032  88.0692191  77.5545883  95.3008060  16.8026793  43.4942532
  95.0027398  16.7628109  44.4029903  96.2459664  16.6603708  43.5457373
  99.1402821  14.1484940  66.9569016  98.6135254  13.3589220  66.8330622
  98.5010688  14.8602533  66.9890881   0.4148224  32.8213382  49.8699427
   0.9835513  33.0048275  50.6176805   1.0138977  32.7385569  49.1279936
  57.9890593 101.2924710  72.7476501  58.0057879 101.2164121  71.7936230
  57.1212526 101.6450910  72.9446316  26.8532395   8.6735350  70.5367088
  26.2085629   9.3810654  70.5416679  26.3296270   7.8725672  70.5140734
  94.8874005  93.6225391  73.2532215  95.7505711  93.2960475  73.5073280
  94.4479283  93.8086469  74.0829563 100.7037576  89.7203297  26.6875410
 100.7129367  90.2393908  27.4917316 100.5159815  90.3543026  25.9954071
  74.5352769  77.7320760  84.4634369  74.4257974  77.2574442  85.2874341
  73.7511968  77.5181239  83.9577931  33.0236745   8.5031700  68.6399555
  32.2558260   8.3847505  68.0808353  32.8186703   8.0120236  69.4355536
 104.6026094  19.4577348  65.7721472 103.8569562  19.2770910  65.1997805
 104.8080448  20.3791976  65.6142426  47.5332737  35.1674652  46.1442757
  46.7548275  35.5821586  45.7724047  48.1466579  35.8893299  46.2817574
  19.0076983  51.0195923  63.6689997  18.9150155  51.8038702  63.1281185
  18.5826850  51.2473154  64.4958830 104.7532488  19.3472517   6.9858485
 105.2196802  20.1830959   6.9920617 104.7388474  19.0741825   7.9031587
  38.8563519  57.4278994   2.8119642  39.2344209  58.1867726   2.3676664
  38.8703709  57.6621295   3.7399560  13.4344244  16.7882645  45.7268524
  13.3638597  15.8387911  45.6280947  13.7176979  17.0981419  44.8666382
  91.2142758  33.8275003  23.7378216  91.4050130  32.9284334  24.0052724
  91.1992637  34.3229127  24.5567083  58.9802237  93.2074512  29.2859817
  59.6653303  93.5805894  29.8406243  59.4343122  92.5588209  28.7481022
  21.4697798  44.2674412   0.3153783  21.5815934  43.4504063  -0.1706046
  22.1734103  44.8333080  -0.0023192  11.3979864  15.6294358   4.5580417
  11.0934007  15.4017591   3.6796212  10.6877482  16.1525524   4.9297172
  54.9676510  83.9435400   3.4445173  54.3920370  84.3940462   4.0625268
  55.7447787  84.4998897   3.3918077  41.2582731  40.1839113  19.2540145
  42.0653629  40.6670809  19.0768492  40.9172153  39.9614835  18.3877373
  90.5612711  17.4612570  77.0821571  90.2830569  17.0879805  76.2457991
  90.0201897  18.2438648  77.1869802 101.5356485  15.4890180  66.0175228
 101.1048971  16.3382363  66.1150503 101.0875354  14.9198937  66.6432428
  32.3984551  31.9936872  44.3171930  31.5392733  32.2581363  44.6459913
  32.4265409  32.3311496  43.4218931  32.0547676  51.7264366  49.5756197
  31.2136483  51.6009283  49.1363001  31.8229318  51.9961834  50.4642820
   9.0559649  14.4525719  57.2648573   9.9698699  14.1830838  57.3564339
   8.6390841  14.1656375  58.0773306  15.5323255   9.8034436  71.3235426
  14.9003208  10.4382801  70.9862232  15.0446987   9.3054831  71.9796610
  90.9820871   2.7003103  31.7381358  91.7595343   2.2843310  32.1106529
  90.9599976   3.5692120  32.1390772   9.9920952  43.0178070  62.8690052
  10.9315741  43.0884695  62.6998281   9.9090344  43.1414366  63.8145447
  13.6170328  55.3472519  24.5095611  13.0689609  54.8332167  25.1025343
  14.3687105  54.7829533  24.3285108  31.7579246  23.5007215  76.2832260
  31.5802312  23.2372522  77.1861315  32.6863432  23.3060813  76.1552286
  11.2203924  98.5218541  42.9052114  12.0737926  98.1138391  43.0517006
  10.5987779  97.7946062  42.9359055  18.4479988  48.6021423  32.8517699
  18.0812132  47.9202032  33.4144950  17.9605854  49.3924284  33.0843687
  12.5773501  40.0597000  60.5674887  11.8340433  40.6254244  60.3584909
  12.2207952  39.1721702  60.5301332   9.7636044  26.4209247  28.2409215
   9.0611416  26.7620873  28.7944436   9.4037527  25.6173992  27.8653073
   8.8184565   9.1868109   4.3492422   9.2079437   9.8461330   3.7749380
   7.9139447   9.4766945   4.4678056  25.7845426  45.5525541  58.0696297
  25.6798935  44.7664022  58.6055851  26.7192435  45.7530212  58.1184292
  62.5843592  87.4565799  46.8423843  61.8662818  87.6704878  46.2467003
  62.4128928  87.9832322  47.6230717   1.5066063  38.2151818  28.7697697
   1.4772737  37.8712583  29.6625686   1.1790352  37.4986267  28.2261896
 104.7219787  55.4504204  55.9867144 104.7384511  54.7563934  56.6457176
 105.5378818  55.3371668  55.4991627 102.4588202  25.1105499  69.9566031
 102.9999552  25.7833123  70.3698778 102.8641663  24.9693012  69.1010475
 106.3322681   6.0752589  40.7158518 106.0708362   6.9732636  40.5122042
 107.2887149   6.1040235  40.7406282  13.2632291  44.6674299  47.7558899
  13.1838322  43.9987516  48.4361839  13.7613058  45.3722763  48.1698275
  31.1274672  43.5128021  28.8293982  30.4346919  43.7451077  29.4477272
  30.9891582  44.0972757  28.0840826  49.8924017  19.2354858  34.8129797
  49.2979431  19.9360168  34.5444560  50.1799536  19.4884861  35.6902099
   0.7349224  46.6550016  12.5704849   0.6199029  46.4092064  13.4884095
   1.5062664  47.2217989  12.5691509  13.7297964  17.9327154  48.2213354
  12.8451073  18.2897198  48.2994652  13.7433791  17.5123763  47.3614740
  22.1139932  20.0744629  22.7128863  22.6247001  20.4901409  22.0181751
  22.4984622  19.2026019  22.8038573   2.6362720  20.1577425  58.1788063
   3.5323817  20.4614377  58.3236790   2.7253538  19.4379938  57.5541019
  33.0090666  21.6609192  43.0173826  33.5473633  22.2645831  43.5292959
  33.5910559  21.3503337  42.3237991  77.5938384   7.2143781  68.6070251
  78.4631769   7.3577255  68.2329464  77.4292414   6.2801170  68.4793663
   9.9620503  39.6131015  38.1129146  10.8534133  39.6316552  38.4612799
   9.6924663  38.6981750  38.1933188  95.1853160  53.0568075  48.4803247
  95.3686241  53.1068516  49.4184780  95.7312099  52.3353195  48.1677723
  77.1988579  99.1724918  32.4068379  76.2586464  99.0557826  32.5432682
  77.4532564  99.8364959  33.0476284  19.3944776  14.0986872  65.3326321
  19.0039468  14.3558931  66.1678362  20.1800036  14.6406221  65.2585459
   1.3285372  10.6236923  28.1231928   1.1840420   9.6780843  28.1575036
   1.5040028  10.8058298  27.2000074  27.4105597  19.8185790  31.0380626
  26.4648676  19.7987461  31.1847115  27.7266312  20.5198145  31.6077971
  12.2124267  11.0174978  62.0240164  11.8365169  10.4351652  62.6841736
  11.8518686  11.8795037  62.2318077  25.9119964  58.3678579  39.0463305
  26.4498782  58.9174080  38.4763217  25.2127576  58.9478350  39.3478703
  32.9459977  21.5225315  53.2422018  32.0061779  21.6987801  53.2859039
  33.3268976  22.0857859  53.9159155  19.8185194  39.0835834  14.9562621
  20.4723668  39.5366073  15.4886949  20.3316450  38.5727167  14.3302059
  20.4813075  28.3755732  26.9855356  20.7173753  29.2618012  27.2595859
  19.5789385  28.2646537  27.2849631   5.4455543  25.3276229  33.7791038
   5.3954810  24.3844604  33.6236382   6.2235892  25.4393482  34.3253732
  14.7619855  75.1046944  48.1377983  14.2728019  75.8679199  48.4450769
  14.1071296  74.5608044  47.7000952 100.2188758   2.6588249  47.7555275
  99.4024072   2.4146231  48.1913900  99.9395315   3.1205291  46.9649410
  12.9651535  53.5959482  42.8241825  12.7059972  52.7815819  42.3930454
  13.7951648  53.8324881  42.4102259  20.3575373  14.7758031  52.1775818
  20.3266144  14.2835307  52.9979134  19.9474812  14.1967034  51.5351391
   1.6445777  16.5088880  17.6807499   0.8335077  16.5765536  17.1769464
   2.2443055  17.1196461  17.2523427 103.4615646  14.8235619  47.2883940
 102.7854286  14.8801327  47.9635763 103.2942812  13.9885890  46.8512821
  40.2317476  20.4674459  31.3888550  39.8763585  20.6792426  30.5256772
  41.1794138  20.5539322  31.2855005  91.6548212 101.5299664  75.8071566
  91.8397733 101.7290373  76.7249775  90.8124717 101.0757212  75.8256340
  56.4004390  28.8217211   3.1916320  57.1421878  28.2721615   3.4446543
  56.1876408  29.3161058   3.9831701  23.1717110  42.2148848  55.8661175
  22.4261832  42.3850632  56.4418411  22.9250193  41.4273071  55.3812551
  54.1716083   3.0620330  48.3734369  53.2807108   3.0870765  48.0242872
  54.6220168   3.7823813  47.9324579  34.0202308  33.4393096  34.8224282
  33.5670829  33.9640570  34.1624808  33.7809420  32.5358415  34.6157503
   5.0151533  40.9534073  64.3861055   5.0511372  41.1829710  63.4575367
   5.6199491  41.5641069  64.8074150 102.6020245  15.5942917  55.8063126
 102.0900033  15.8072543  56.5865135 103.0032350  14.7486281  56.0065937
  17.4632534  64.1801454  14.0980798  16.5822073  64.3722750  14.4191343
  17.8514727  65.0397409  13.9349443  15.5055404  70.9672546  44.1392136
  15.1888406  70.3367138  44.7860193  16.4592171  70.8998680  44.1860247
 106.9347749  67.7689123  85.2627754 106.2372894  68.4103870  85.3979015
 106.9912207  67.6731634  84.3120575  27.1083856  71.5844107  23.1991076
  26.6455603  70.7533884  23.0922031  27.5373554  71.7298603  22.3558640
  13.2452333  30.9497094  45.3860712  13.6481559  30.1502252  45.0473833
  13.8031638  31.6558146  45.0599384  77.3067014   1.9810051  51.9168377
  77.9830996   1.9240311  52.5917244  76.9238917   2.8504384  52.0342016
  37.7955961  18.8867676  22.8749299  37.4509001  18.2127452  22.2891736
  38.2090330  18.3973980  23.5861421  45.2690840  28.2895017  69.2276144
  44.8649979  28.1185627  70.0783348  46.0748529  28.7623596  69.4358683
   1.1801127  23.0324960  67.5722027   1.2279041  23.7677336  66.9611597
   2.0116422  22.5721931  67.4585724 101.5619520   4.3730977  69.3406391
 101.5906243   4.3494618  70.2971172 101.1034695   3.5696018  69.0948391
 105.1862146  40.3002501  46.4374447 105.4899971  40.6607342  47.2705126
 105.7753445  39.5657372  46.2652540  45.8920527  14.6133411  26.8003583
  45.0993729  14.1255486  26.5768671  46.6098356  14.0429652  26.5252376
  46.1032152  27.1256399   2.2891143  46.9376659  27.5576138   2.1065760
  45.4915428  27.8442407   2.4494423  25.6497645  50.2094078  20.0405478
  25.2469611  50.1708555  20.9080124  26.3348174  49.5413113  20.0646663
  15.2065253  50.2330971  68.6244488  15.4920101  49.3238306  68.5352087
  16.0097015  50.7190514  68.8114929  41.3572264  38.7545252  76.5862322
  40.6452274  39.3318105  76.8619728  41.2919569  38.7329078  75.6315041
  80.7182922  83.4143478  48.5742807  81.1873259  82.8416926  47.9674006
  81.1913039  84.2455012  48.5333443  20.3576374  42.2008228  66.7694330
  21.0587144  41.5678453  66.6143131  19.5915437  41.6644812  66.9735622
  38.1722808   9.8664182   0.4957338  38.7188792  10.1704776  -0.2288423
  38.5438919   9.0177453   0.7363379  36.5504122  36.0270643  60.0059414
  36.8719101  36.1959577  59.1203070  37.2179413  36.4041471  60.5790377
   7.2411770  40.5915308  31.2042403   7.6935792  41.0296774  31.9250703
   6.3845247  41.0168123  31.1653352  70.3331463  47.2805834   5.3892756
  70.7105557  47.6620197   6.1819285  69.9711506  46.4421082   5.6758910
  17.4695921  19.9118316  82.2378635  18.3079672  20.2304196  81.9034004
  17.6597452  19.0311527  82.5610924 102.2595457  13.0793679  38.7562871
 103.1232728  13.1977892  39.1514874 101.8234442  13.9229262  38.8765240
  28.2876158  35.7099676  12.7272546  29.1322303  35.2729654  12.6182187
  27.7101445  35.2750158  12.0999002  92.0268254  46.3426352  33.5124063
  92.8466920  46.7361116  33.2137012  92.2387783  45.4185820  33.6444449
  34.1653633  67.3386717  43.0527735  34.5904946  68.1195211  42.6981306
  33.4112215  67.6754093  43.5366201  23.5082841  59.5486116  32.1391177
  23.3393979  60.2167702  32.8034019  24.4317126  59.6624422  31.9142723
  85.8052417  89.3920667  50.9177017  85.8029660  88.9890856  50.0494623
  85.2155348  88.8454432  51.4370060  49.4538446  91.1721291  11.7257864
  50.4077085  91.1046900  11.7685300  49.2924579  91.9598354  11.2064630
   8.8502097  20.1425481  50.3526211   8.2473832  20.3149486  49.6293592
   9.5929879  20.7237148  50.1890373   8.3699477  48.8167524  13.8493228
   7.8343523  48.0365419  13.7056553   7.9812884  49.2360353  14.6170306
  98.7171314  24.0670443  60.9669113  98.9064221  23.6520290  61.8084335
  98.1862305  24.8313928  61.1908484   1.8817872  21.3162422  25.6866121
   1.4637245  20.5109096  25.3818226   1.3709138  22.0184922  25.2840137
  45.0331116  66.5468550   8.9184880  44.9663877  66.2192440   8.0215764
  45.9741068  66.6246605   9.0756780  19.8062551  38.7731504  33.3264589
  20.3613949  38.2218647  33.8779449  19.0988028  38.1937003  33.0436468
  27.7756691  30.6008625  23.8486934  28.0571842  30.7944632  22.9545450
  26.9598627  30.1116061  23.7423110  63.5912037  23.5754156  58.1248808
  63.2773066  24.3680573  58.5601044  64.4712353  23.4414649  58.4767771
  15.8178937  20.8913136  61.9393921  16.0462379  20.3341007  61.1953449
  16.6606534  21.1742282  62.2942829  19.5417452  32.0538259  42.9143858
  20.1081753  32.7961183  43.1250763  19.5978403  31.9724035  41.9623089
  17.3266470  17.5198209  30.2492166  16.8148589  16.7281890  30.0830150
  16.8553579  18.2115912  29.7849178  25.0818014  26.4651823  75.6729221
  24.2979527  26.9966888  75.8118868  24.8544979  25.6058002  76.0279274
  17.0595789   7.5792599  23.1866026  17.5940108   8.2460940  22.7553868
  17.6911950   6.9318736  23.4999442   7.6817590  43.2360506  22.3041940
   8.0482328  42.4861431  22.7727723   6.9073063  42.8874302  21.8626976
  15.5302262   0.6493854  43.9507103  15.2965534   0.0670788  44.6735859
  16.4840710   0.7158217  43.9954138  36.2796783  39.5136285  52.0835686
  36.9672108  40.0752306  51.7256069  36.1539960  38.8359165  51.4193821
   5.8832685  20.4710852  85.5077976   5.6077520  19.5844160  85.2751112
   5.5301515  21.0225855  84.8096636  24.3770576  44.7490835  68.7550402
  24.1738772  45.6619453  68.9590836  23.5602236  44.3946457  68.4037828
 106.2608894  99.1013671  40.3213692 106.6553195  99.4756732  39.5336175
 106.9837578  98.6548407  40.7621717  28.7570357  48.8495159  24.9167776
  29.1596174  49.7127438  25.0116539  29.1956830  48.3073044  25.5723858
  15.7901061  21.4853668  70.5992842  16.4544332  21.8243670  69.9992990
  14.9638808  21.8318439  70.2623272 103.0640177  35.2553844   9.9304116
 102.8329287  36.1776400  10.0411904 103.9243511  35.2727270   9.5111775
  31.5107369  57.6217079  60.9559059  31.8735790  58.0318403  61.7409992
  32.2489643  57.1515799  60.5683041  37.3506618  23.8464093  62.4386168
  37.6664686  22.9856348  62.1637249  36.9381618  23.6901212  63.2881117
  10.5071926  10.8422315  37.7420068   9.7511107  10.4622197  38.1894016
  11.1420751  11.0039496  38.4398627  32.4648690  19.8659742  36.0116434
  32.8229713  18.9795971  35.9633875  33.2221079  20.4202890  36.2002110
  23.4112525  42.9520226  19.5712078  22.7203751  42.3648071  19.2644572
  23.3371282  43.7232685  19.0091383  22.9920745  26.2704992  64.0746450
  22.1109247  26.3749099  64.4336796  22.8507900  26.0393381  63.1565857
  34.9022651  23.2905746  35.9608126  34.6976709  22.3909211  36.2157607
  34.2946410  23.4810638  35.2461505  24.4675350  44.3110752  48.3442020
  23.9105606  44.9347639  48.8100529  24.3003559  44.4859362  47.4180794
  20.4361200  29.5532131  49.1843700  21.1776996  29.8462844  49.7138977
  19.7907233  30.2552938  49.2666960  19.4898689  70.6763840  78.7508297
  19.6222591  70.5647707  77.8094196  19.9901175  71.4620447  78.9715576
  16.0077798  25.1713347  56.9779968  15.9281480  24.5765638  56.2322521
  16.2039423  26.0222054  56.5858603  95.5988606  90.3141744  50.6046677
  95.5793198  89.9010188  51.4678860  96.4262350  90.0253851  50.2195883
  11.7036307  50.7575750  35.2072573  11.8952310  50.8156061  34.2712259
  12.5272274  50.9915018  35.6352758  35.1183772  24.4423890  26.1409187
  35.2261019  25.3853941  26.2648845  34.2632651  24.3522453  25.7203364
   3.2182595  54.2464113  39.7185588   3.0855069  53.8400078  38.8621473
   2.5211379  53.8848925  40.2658749  69.0478325  38.5644031  21.8806481
  69.3975449  38.6565518  22.7669001  69.5105267  37.8090382  21.5179253
   5.7815588  19.6878743  71.5777922   6.2578392  20.4957128  71.3860035
   5.7830125  19.6300590  72.5332451 104.8901216  31.0853243  50.3902435
 105.2049069  31.8546915  50.8648109 105.6593845  30.7617664  49.9214363
  25.8102131  49.0604353  41.3556099  24.9186110  49.4063759  41.3155985
  25.8934641  48.7150908  42.2444487  88.9146467  94.2020000  54.3077898
  89.5603367  94.9049837  54.2361593  88.3231076  94.3438990  53.5687494
  45.1323175  30.6913161  70.8623886  44.5475292  31.4374018  70.9950924
  45.4056883  30.7609963  69.9477053  22.2891331  20.1893306  60.8242226
  22.8551412  20.9563971  60.9106970  22.8935313  19.4475961  60.7965469
  18.3841038  26.1828089  47.5038671  18.7470365  26.1548638  46.6185808
  17.5924397  25.6469631  47.4551964  16.0362267  31.2691450  43.9528275
  16.2306678  31.9172764  43.2758093  16.8750453  31.1192703  44.3888903
  84.7512813  99.0317950  46.2516832  84.3626889  99.6390984  46.8812943
  84.0179070  98.7540577  45.7028151   3.8142014  41.0803413  17.0411062
   4.7060129  40.7697964  17.1975172   3.3672327  40.3339529  16.6419137
  92.9506187  11.2102306  58.0231953  93.8709120  11.3441813  57.7965927
  92.8008763  10.2765274  57.8748417  20.3838038  65.4458380  70.4077911
  20.9018064  64.6435118  70.3431416  19.4895291  65.1417255  70.5627775
  19.0155637  47.0486641  30.6518698  19.9141121  46.7775106  30.8397937
  18.8055706  47.6770687  31.3426971 102.3464070  34.2490721  20.0437117
 102.1413837  35.1834679  20.0105262 101.7184846  33.8881636  20.6695628
   2.4552029  21.5671778  42.6034403   2.7440894  20.6877851  42.8472567
   2.0647797  21.4591718  41.7361832  25.7657409  14.8715782   8.1144595
  25.5617452  14.8197889   7.1806848  25.5509329  15.7722926   8.3569527
  41.6529036  11.5836322   8.5880214  41.5642881  11.3409913   9.5097071
  42.5253296  11.9724727   8.5255247  36.3846064  39.4495773   6.2998688
  36.0747552  39.0517974   7.1134984  36.3181019  38.7494898   5.6504953
  13.4846640  19.6649969  21.6694450  13.1973612  20.0973105  20.8652115
  13.8648403  18.8377094  21.3739920 105.0138609  35.3693914  22.3406672
 104.0636773  35.3121328  22.2401500 105.2986221  35.9235406  21.6139889
   6.8752509  26.7873526  37.2814393   7.6531053  27.0266747  37.7853227
   6.9207990  27.3335743  36.4967084   0.4363681  32.6569414  65.0351572
  -0.0269448  31.8576455  65.2855587   1.3346191  32.5169659  65.3347969
  19.9363315   9.1317922  40.7617283  20.5502868   8.5557121  40.3062963
  20.2116036  10.0156295  40.5182362  22.5088716  36.7411566  37.4306607
  23.0428171  36.1856461  37.9985905  21.6874003  36.8533373  37.9090261
  22.9656339  12.0836794  29.9786329  22.7900553  13.0042410  29.7837734
  23.1009626  12.0609677  30.9259462  17.5185156  45.6325006  69.0482044
  18.4300733  45.7801485  69.3001890  17.5357866  44.8109627  68.5572863
   4.5852023  44.1712523  51.8363905   4.2204538  45.0562096  51.8302155
   5.3858280  44.2458010  52.3556900  28.0388165  36.6689944  36.0151720
  27.3516369  36.0549712  36.2739992  28.3598018  36.3307667  35.1792264
  17.8586853  50.0486469  53.3726501  16.9803274  50.2725887  53.6801720
  18.3819962  50.8295345  53.5531998  31.3335013  43.9446497  61.9344425
  31.1486912  43.1370687  62.4139071  32.2796011  43.9264107  61.7902327
  28.2452393  35.4137826  47.8893185  29.0232706  35.5125213  47.3405457
  28.5744429  35.4797697  48.7857008 101.5775476  18.3270228  53.8163853
 100.8011077  18.6080050  54.3005562 101.4125006  17.4064863  53.6124182
   3.1544733  51.8831635  33.1351972   3.5914242  51.2267399  32.5925994
   3.8097259  52.5708342  33.2534647  29.4634867  66.0083771  43.3648920
  28.7163949  65.7517242  43.9054632  29.0943789  66.6054821  42.7141571
  21.7728090  33.4436345  29.4795680  20.9541750  33.8423181  29.7747374
  22.0607901  32.9110336  30.2209425  25.2047396  63.5478640  35.0211668
  26.1501551  63.5002375  35.1631427  25.0520706  64.4448328  34.7238898
  14.3398929  58.9858007  13.9365363  14.2644322  58.4778833  14.7443461
  13.5613596  58.7502718  13.4319139  69.9841738  28.5272336  41.2862492
  69.4844770  27.7898002  40.9359312  70.8612585  28.1735516  41.4341116
  30.9429693  41.4653826  53.2545280  31.8814802  41.3977385  53.0788708
  30.5541945  41.6694069  52.4039650  44.9282598  35.1802897  22.6259661
  44.9228191  36.1174440  22.4311709  44.0276957  34.9841237  22.8843021
  18.8697696  13.4154177  50.3206873  18.7633491  12.4788868  50.1539087
  17.9794407  13.7659681  50.2949524   9.9098152  45.7394934  27.4530125
   9.5311183  45.4877329  26.6107321   9.8426199  44.9507618  27.9911709
  31.9003892  36.8962431  69.6114159  32.2670102  36.0616398  69.9034119
  30.9528494  36.7778826  69.6776676  43.8773394  36.8150902  56.7206526
  43.5332537  36.4519978  57.5367451  43.2518959  37.4986124  56.4801359
  32.6178527  13.5067475  27.8430343  32.5327134  14.3683565  27.4348521
  31.7457247  13.1193030  27.7687693  50.6813097   1.5259601  57.2017097
  51.2939978   0.7922684  57.2521353  50.8992910   2.0723599  57.9568052
   8.5939044   7.0368999  33.4182572   7.9320401   7.2590685  32.7634239
   8.8006216   7.8699094  33.8420463  12.4991930  30.0443292  25.1602197
  11.8020320  29.6727133  25.7006836  13.3067989  29.6974659  25.5392838
  33.7935042  31.7256618  22.5835705  34.0092039  31.6834092  23.5151935
  32.8545785  31.9106984  22.5632644  33.1562757  20.7493591  27.2207546
  33.7532711  21.4633965  27.4443126  33.7228203  20.0678301  26.8591166
 106.0088634  63.2129651  85.3192299 105.1887464  62.8183108  85.6156909
 106.6551781  62.5115626  85.4001194  13.1214571  26.5754604  55.9135199
  13.3762896  26.5461659  54.9913311  13.7901163  27.1195102  56.3296175
   2.8020445  59.3156052  11.8721652   2.3709257  59.8469210  12.5415504
   2.5674018  59.7360134  11.0448599  16.3647759  20.5521703  23.4237766
  16.7989707  20.9267521  22.6573610  15.9639966  21.3025331  23.8625979
  23.4687376   8.0277318  54.6386480  24.0952325   8.5713005  55.1164246
  22.8231311   8.6478972  54.2997980 100.9152786  71.0772514  76.8338823
 100.6241612  70.5057001  76.1233807 101.7938159  70.7638121  77.0487309
  35.0704670  35.5505443  17.1596134  34.5872688  34.7585297  16.9240999
  34.6691489  35.8413386  17.9785228  18.6172430 100.3787606  58.8125753
  18.1223814 101.0052308  59.3406677  19.4461147 100.8213718  58.6300898
  83.5265223  19.9074221  76.6797781  83.4662430  20.8331966  76.9154453
  84.1132204  19.8904645  75.9236526  12.8183186  17.9605770   5.8607185
  11.9023776  17.7365923   5.6960541  12.8744113  18.0557621   6.8115211
  84.0610202 100.4815359  50.8154535  83.4151216  99.7886682  50.9532261
  84.0859719 100.9545559  51.6472340  34.8950934  26.9303966  21.7555857
  34.9615097  25.9893942  21.5933013  34.3544984  27.0001769  22.5424266
  28.5098171  55.4587793  42.2247267  28.2447410  55.9511518  41.4478540
  29.4538736  55.6031179  42.2891951 102.8047441  38.5758424  43.2600594
 103.2494653  39.2669487  43.7508011 103.5111086  38.0072188  42.9535484
  81.3337318  46.2428141  18.4429598  81.4377109  45.3171110  18.6631811
  80.4204790  46.4378834  18.6530793  21.6378593  30.0534534  37.7934265
  21.7894077  29.8756504  36.8651748  21.4262867  29.1990399  38.1695247
  25.9900522  33.6602926  63.2865810  26.7725205  33.3159208  62.8560209
  25.9705448  33.2196069  64.1360760  16.0148180  14.8336577  39.9006128
  15.3991127  15.4588640  40.2830458  16.7767227  14.8633218  40.4792786
  22.1648598  94.9741738  88.1951327  22.2191989  94.6940988  87.2814383
  22.7606284  95.7211679  88.2525047  33.3790588  35.9287572  43.9093018
  32.4676704  35.7038689  44.0964508  33.8786578  35.5035686  44.6063280
  31.9101930  80.9794331  62.0837879  31.9393659  81.7128086  62.6982307
  32.2113824  80.2275181  62.5938272  48.0894613  34.0757084  22.4591088
  48.6252689  33.2855844  22.5287104  48.0188513  34.3971634  23.3579469
  96.7823561  99.8747068  68.2587433  97.2416242 100.6918838  68.4524584
  96.6630133  99.4588194  69.1125727  60.2156782  18.2544935   8.5711414
  60.1045990  17.3844719   8.1877935  59.3262100  18.6015189   8.6393380
  29.2700505  40.9992170  41.9756126  28.4851313  40.4908228  41.7714930
  28.9384723  41.7953825  42.3908329  42.0461273  19.1804993  56.8337011
  41.4445210  19.2152631  56.0899973  42.3722839  18.2805836  56.8360662
  10.6031609  17.8053880  45.6174946   9.7576201  18.0153108  46.0140085
  10.5908418  16.8535626  45.5169487  27.9680610  30.0442004  40.0003815
  28.2492971  30.4721308  39.1916728  28.5711884  29.3081999  40.1041603
 103.5936106  45.8805132  47.1350908 102.9476325  45.1743937  47.1166229
 103.3514331  46.4068127  47.8970575  74.3224016  88.6827452  40.1125097
  74.8707445  89.4342846  40.3377676  73.8682373  88.4650833  40.9265041
  30.8728385  16.5407205  30.2608347  30.7824564  16.2413931  31.1655259
  30.0645804  17.0228517  30.0861931  34.6443915  40.0710678  29.9327755
  34.0542531  39.3523741  29.7059584  35.4242086  39.9181390  29.3991756
  30.2686691  33.1969380  19.3273401  30.7839584  32.6264167  18.7570643
  29.3830967  33.1602335  18.9658916  50.4584273  71.2347545   4.0713769
  49.8007878  71.5738501   4.6786291  50.5593976  71.9261183   3.4171182
 104.7141583  32.2682691  14.1269088 103.8949598  31.9320631  14.4903803
 104.4792263  33.1169319  13.7516630  18.3240628  46.8862057  39.6607637
  18.8339317  47.6892853  39.5543242  17.5634789  47.1521091  40.1775217
  16.3503671  10.2228808  51.8435383  15.9197342   9.5770645  52.4036312
  16.8627965  10.7601440  52.4476862  21.0178614  30.9676170  28.0017686
  21.1062884  30.3637004  28.7391257  21.3587165  31.7992401  28.3310914
  54.7042847  35.3089213  21.2528706  54.9573040  34.6281147  21.8763423
  53.8114643  35.0785398  20.9959149 103.9457072  24.2309856  67.6042938
 104.5341105  23.5352802  67.8975630 104.5078830  24.8277235  67.1102333
 101.7881070  28.9106250  36.2015891 102.5709633  28.3961225  36.3981962
 101.8548129  29.6759295  36.7726326  20.2119398   4.8189354  60.3798819
  19.3849933   5.2886987  60.4881048  20.7470632   5.3979492  59.8370934
   2.4823202  34.0207124   4.7208801   3.3033842  33.5685229   4.5269436
   2.3048188  33.8120580   5.6380433  68.0524035  97.0354942  23.5375357
  67.7449920  97.9359803  23.6417246  69.0069102  97.1044586  23.5573459
  27.8413820  52.2287464  59.3941498  27.1394181  52.4929428  58.7994432
  28.3168316  51.5490246  58.9164925  14.8955774  38.6703897  27.2703576
  14.5959890  37.7950215  27.5157356  15.7362139  38.7698460  27.7172041
  76.4759080  24.0865755  39.2619967  75.5258481  24.0261865  39.3618631
  76.8256919  23.7315249  40.0791979 101.7649535  34.1314530   7.5225824
 102.3444132  34.3510723   8.2521206 100.9671746  34.6328521   7.6910502
   3.5766134  31.1533713  39.9018455   2.6729742  30.9137535  40.1073980
   4.0473360  30.3200936  39.8845053  37.6019526  56.3593149  25.8822536
  37.5954366  55.6107759  25.2856970  37.1007824  56.0641003  26.6424584
  21.4820004  36.7472148  51.4442778  21.9471574  36.9042301  52.2659874
  22.1708751  36.7217541  50.7801771  29.1656017  62.9289055  39.8244548
  29.6172738  62.1839046  39.4279671  28.6801791  62.5518322  40.5582190
   6.0736406  24.1684842  22.3745537   5.6172442  23.5853696  22.9811096
   6.3347161  23.6020327  21.6484666  36.9245696  32.3767543  19.7323942
  36.2638688  31.6987395  19.5909607  37.2410107  32.5896645  18.8544607
   8.4659415  11.8449092  75.8306503   8.3517593  11.7566848  74.8843861
   8.5879594  12.7839196  75.9706593   4.1866533  97.9884879  46.2170506
   5.0875274  98.0159814  45.8947134   3.8208214  98.8402522  45.9785223
  28.0558228  46.6709471  57.8853607  28.4152699  45.8036232  57.6988602
  28.3431792  47.2124434  57.1502113   9.9516916  43.7133026  45.3722286
  10.4236448  44.3782520  45.8735657   9.8716497  42.9724073  45.9729767
  21.8910432  53.6074924  47.4001980  21.6030622  53.1127453  46.6330481
  21.6707706  54.5162678  47.1956539  34.3933725  13.3505535   6.6502100
  34.5232964  13.9130926   7.4136901  34.7946692  12.5169694   6.8958294
  12.7031314  46.1880493  30.2209425  12.3384154  46.6629553  29.4741654
  13.5058725  45.7907963  29.8832631  39.0847278  44.5436764  13.8075411
  38.2159758  44.9434662  13.8484323  39.6689725  45.2011824  14.1851330
 100.5159489  49.3861818  62.2719002 100.7398925  49.3031406  61.3449764
 100.8590547  50.2430773  62.5253582  38.1871176  77.5122738  50.8542490
  37.5703382  78.2421112  50.7981300  38.2838368  77.2104359  49.9510479
 102.7593168  95.3649039  41.1046076 102.3857697  94.5601035  40.7454538
 102.4236925  96.0588134  40.5370855   5.7098937  34.7872019  32.7093029
   5.9738791  35.7049322  32.6436186   6.5253991  34.2957687  32.6109385
  94.5332440 101.5796631  79.7201204  95.2155336 101.3410123  79.0926170
  94.4787248 100.8290955  80.3116512  14.0064037  29.5835114  12.9180467
  13.4997261  29.6782804  13.7246013  14.7999585  30.0961280  13.0720806
  38.0593872  18.5797226   5.2970505  38.4915423  18.8933945   6.0914582
  37.1426678  18.8320208   5.4075283 103.7640346  53.0041647  31.7476892
 104.0800054  53.5789776  31.0505629 102.8141693  52.9857635  31.6308570
  78.8331201  94.9976600  55.0228262  78.9434965  95.0800390  54.0755844
  78.9513685  95.8871812  55.3559923  92.2895583  61.7412192  28.8279676
  91.4118775  61.5905149  28.4769726  92.2378453  62.6035530  29.2402029
  14.8869956  31.4529705  49.1421032  15.1735330  30.7024288  48.6217022
  15.3939509  32.1892548  48.7998867  15.0432992  37.4329972  39.0494227
  14.9821496  37.3616457  40.0019979  14.4677150  36.7427230  38.7200975
  13.3119464  36.6442418  57.0232630  12.6852179  35.9763217  56.7451906
  13.1558216  36.7429686  57.9624701  28.1681538  53.0360460  21.2187576
  27.4013925  53.1515503  21.7799807  28.7842584  53.7064648  21.5140200
  52.0287848  50.4116774  28.2355523  52.2038984  50.3575850  29.1750431
  51.8639565  51.3409424  28.0757523  36.0288024  59.8115110  38.5180950
  36.8371820  59.5464277  38.9568281  36.1571217  60.7390594  38.3195376
   7.9563153  30.7144380  14.0176713   8.1381088  31.5801287  13.6519337
   8.8038141  30.2695203  14.0126669  68.1403346   3.7363345  15.4589540
  67.4750440   3.0482442  15.4711134  67.7643756   4.4423110  15.9847719
   5.9599346  59.2900515  31.9405842   5.4389173  59.9244928  32.4327803
   5.6187272  58.4379148  32.2120094   7.5257260  17.8935564  40.4143620
   7.7603573  18.6926472  40.8862066   6.5739101  17.9394937  40.3239870
  12.4465871  31.4760303  50.3521967  12.2838187  32.4192643  50.3450537
  13.2843471  31.3741207  49.9005270  37.0288897  34.1964388  29.0006900
  36.3940907  34.2677760  29.7135544  37.5788426  34.9746656  29.0909362
  36.2089920  53.1731415  48.6904001  36.2578392  52.8508997  49.5904016
  36.2958932  52.3879862  48.1498289   4.3200001  40.2190590  32.6005411
   4.0792045  40.4038334  33.5083437   3.7236351  40.7574415  32.0802283
  39.7270465  52.3768044  61.0414124  40.5324507  51.9137764  60.8108521
  40.0162697  53.2590151  61.2743902   8.8640529  57.2644949  57.0630646
   9.6949553  57.6771259  57.2987890   8.9686823  57.0241165  56.1424637
  29.6850681  50.8950138  20.8133578  29.1335821  51.6481543  21.0251880
  29.1000533  50.2907801  20.3563142  36.3987398  59.1204977  17.0925462
  36.3186574  59.9912310  16.7031324  37.2582746  58.8092995  16.8086720
   2.7840552  42.1572208  45.8021545   1.9090724  41.9774389  45.4581833
   2.6881954  42.9794455  46.2827587  44.1865921  82.6045132  37.7241731
  44.2552471  83.2374859  38.4389210  43.4493303  82.9154873  37.1988392
  22.9548335  32.6612782  44.6279812  23.6925197  33.1727648  44.2956686
  23.1343961  31.7664981  44.3392658   5.3913683  32.4697518  34.9206495
   5.2640057  32.5109005  33.9728546   4.5203602  32.6242948  35.2862906
  11.0172474  53.2905626  49.4303656  11.5922880  52.5310326  49.3372059
  10.1332951  52.9233313  49.4290018  37.2879076  70.7370615  51.5310764
  38.0140305  70.6227922  52.1442032  36.6864514  70.0211859  51.7360401
   4.9015126  39.7117901   4.6058187   5.1525259  40.2876949   3.8836271
   5.6590086  39.7173285   5.1909691  23.4568381  76.7244816  45.6259012
  22.9180551  75.9375620  45.5440474  22.9493523  77.4086905  45.1893902
  59.0356064  29.6731591  29.8882365  58.4542799  28.9230633  30.0133252
  59.9158525  29.2971468  29.8914528  70.0052404   8.9122730  27.9196453
  70.4791975   8.1021708  27.7316785  70.5304337   9.3465865  28.5917902
  51.5854311  34.6739888  72.9768038  50.9544039  35.3619814  72.7653742
  51.6638851  34.7057271  73.9302540  12.2377264  56.2466192  67.5249004
  12.4013042  55.3301287  67.3023748  13.1073821  56.6456938  67.5508213
  30.2182031  45.6416941  22.8963614  29.4583249  45.0891161  22.7133918
  30.9457994  45.2015305  22.4569416  37.3779798  30.9761238  13.6830604
  37.2262931  31.0417867  12.7402389  38.3071399  31.1792684  13.7908852
  16.0405612  16.7491043  57.2442007  15.8293390  16.1045694  56.5687799
  16.5023768  16.2485909  57.9168415  36.1459422  50.0859451  38.8124108
  36.1845136  50.7617617  39.4891810  36.6830325  49.3719959  39.1559887
  19.7695887  54.1822529  39.3678951  20.4598832  54.7499609  39.7105813
  19.0321767  54.7713375  39.2084074  32.0002198  66.0704803  22.0310807
  31.3563347  66.7753553  21.9618559  31.5999198  65.4381800  22.6278949
  42.7337646  22.8865910  13.8964987  42.3702908  22.3881364  13.1646121
  42.0690012  23.5476518  14.0896690  94.2843870  35.4712462  69.9738789
  94.6444420  36.2020230  69.4713211  94.9505429  34.7866845  69.9118948
  39.5286107  43.4068394  60.2746344  39.7751880  43.6508560  59.3825102
  40.0580215  43.9756823  60.8335352 105.2755741  48.9200401  75.8753777
 106.2317989  48.8797951  75.8596897 105.0350438  49.2405844  75.0061083
 106.8599242  81.4854145  37.3755860 106.2193803  80.8528519  37.0503211
 106.6449730  82.2995663  36.9204021  29.0198636  60.9176397  52.9610491
  28.1717587  60.7505894  53.3721972  29.5811200  60.2076435  53.2727051
  43.5372114  80.1356030  76.9228125  44.2927408  80.1825142  76.3369751
  43.0235243  80.9158611  76.7141438  62.9056931  17.4736536  41.2907028
  63.5483742  18.0417931  41.7154503  62.0598316  17.7889967  41.6090012
  11.3380766  63.9717245  47.1817303  10.9669435  63.2195663  46.7204809
  10.9988487  64.7327948  46.7106390  27.5807285  55.5470610  28.2999897
  26.9656706  56.2586975  28.4774899  27.0449924  54.7543907  28.3299756
  63.4064960  43.6338139  20.3145242  63.6490297  43.3695364  21.2019730
  64.2361403  43.8706064  19.8999667  43.8915491  31.3668013  43.4033155
  44.7749186  31.7092180  43.5398388  43.4921789  31.3807702  44.2731094
  89.5076601  60.2270555  80.2026367  90.1708762  59.6679926  79.7978830
  89.9320022  61.0811234  80.2846909  23.1885624  53.4706402  18.4401464
  22.8663754  52.6630068  18.8403392  23.6648560  53.9127445  19.1429412
  23.1030846  27.3404408  51.1519003  22.4535584  27.8313422  51.6552544
  23.9444494  27.6059985  51.5231419  30.9137535  21.4057350  57.9219580
  30.5754399  20.8969951  57.1851015  30.2418375  22.0678139  58.0844736
  23.6445093  41.2116194  39.6140552  22.7094841  41.2789536  39.4206047
  24.0762281  41.5575266  38.8329029  45.8157778  61.7797804  24.2103171
  44.9381304  61.4986229  24.4690037  45.6800413  62.2764635  23.4033990
  45.0645638  54.0972090  15.7059681  45.0330400  53.7343740  16.5911734
  45.0860643  53.3304071  15.1334405  20.7244945  55.6662035  36.0485148
  20.0267744  55.0856018  35.7446647  21.4931607  55.1002121  36.1194754
  38.2226706  67.0156240  45.9140682  37.6951814  66.2502193  45.6857157
  38.3683777  66.9335508  46.8565464  26.6769028  52.6195669  54.0716696
  26.1409783  51.8751240  53.7981319  27.5668073  52.3829126  53.8103342
  13.0640483  41.7103529  23.6578250  12.8445518  42.0409155  24.5289063
  13.5580575  40.9074593  23.8238049  15.4589438  45.5902386  35.6594777
  15.6819963  46.5113163  35.7940173  14.7646117  45.4166365  36.2950826
  25.1204062  34.2123127  24.6688080  25.7288241  33.6864424  25.1879573
  24.3517828  33.6521840  24.5606065  11.1070275  54.7345352   8.5439712
  11.6182387  55.2511692   9.1668564  11.7626095  54.2849541   8.0107540
  16.2300158  58.0256939  19.1203952  17.0599890  58.1356192  18.6563993
  16.4836717  57.8474617  20.0260019   3.4444112  48.4055996  63.2848740
   3.0979997  49.2451239  62.9825020   3.1029171  48.3119011  64.1741657
  10.6154740  58.3052301  55.0223160  11.2087774  58.1630373  54.2847490
  10.8631444  57.6368904  55.6612301  18.6342192  50.8594322  47.2315645
  18.9461362  50.2455711  46.5666485  17.7275825  51.0406351  46.9837618
  33.5604692  48.1824493  37.4683022  34.1917443  48.6457682  38.0188107
  32.7376151  48.2305384  37.9549551  52.1314383  73.3478594  58.4300518
  51.2455511  73.7093449  58.4023094  52.3220968  73.1112242  57.5223684
  10.1872933  41.6025829  46.9338512   9.6533579  40.8431244  47.1670246
  10.9448934  41.5507460  47.5165939 101.5621813   9.7045170  81.4357942
 101.5868982   8.7551724  81.5556538 101.2151893   9.8253857  80.5519283
  24.8420119  41.8508148  59.9005556  24.6782017  42.4896860  60.5942678
  24.0461469  41.3198090  59.8711681  21.0797191  39.3921351  68.5722303
  21.5861440  38.7725234  68.0470181  21.3923573  39.2591310  69.4671059
  38.6065459  48.7552357  36.9762421  38.8578272  49.6199799  36.6517401
  37.7719378  48.5709333  36.5453219  19.2681003  50.7509184  57.6906633
  19.7473907  50.3259563  58.4019423  18.5202181  50.1758671  57.5287247
  62.1530247  35.9136033  35.0530028  62.0450830  36.8177223  34.7577929
  63.0971146  35.7603431  35.0150228  26.6533756  28.4311843  19.5789540
  27.3946714  28.0090833  20.0131726  25.9261632  27.8204107  19.6987343
  37.6188159  43.7527370  46.0093689  38.5008430  43.7506914  46.3811970
  37.6451874  43.0824375  45.3265524  20.6653547  28.3948684  12.2392666
  20.8340621  28.3508015  13.1804514  21.5352297  28.3966279  11.8398356
  15.7942307  36.8083549  58.7650967  15.9476697  36.6993546  57.8265810
  16.0815203  35.9814882  59.1523790  40.7870245  60.9106874  43.4151793
  39.9778533  61.1343002  42.9553175  41.3960218  60.6603765  42.7204132
  20.6707287  76.7219448  66.2088537  20.0765538  77.1715975  66.8096876
  21.2041712  76.1625624  66.7734432  20.0722980  41.3237762  22.7599669
  19.3711233  41.9698381  22.6751423  19.7311151  40.5416775  22.3262095
  28.4695148  27.4317431  46.6869497  28.1979680  26.5324616  46.8707609
  28.8546228  27.7382040  47.5079250  21.0186458  44.7454119  23.3023477
  21.3564801  45.5849361  23.6142802  21.7887163  44.2877769  22.9650211
  21.5046501  46.2657022  30.3180051  21.3633108  45.4582357  29.8237824
  22.3423147  46.1316347  30.7613730  86.3803911  86.3322728  73.1194442
  86.5542507  86.8271082  73.9201575  85.8842516  86.9366496  72.5673490
  26.4954209  67.8474092  56.0095119  26.6348672  68.6463165  55.5010557
  26.9491529  67.1657610  55.5138159  30.0190759  40.5965376  32.9777145
  29.4333529  41.3536024  32.9810882  30.4857278  40.6584597  32.1442699
  15.4682720  48.6423302  62.1716404  15.4615331  48.8436651  61.2358761
  14.6219277  48.9560652  62.4902344  37.5595593  57.6209545  60.9634829
  38.1894374  57.2643709  60.3371191  37.2590947  56.8600845  61.4605045
  57.0747423  48.1010246  14.7122192  57.6661301  48.2527304  13.9750111
  56.4571571  47.4433279  14.3924379  12.2944212  37.2160149  37.7224183
  12.2269464  36.3502932  38.1251621  11.7068267  37.1756101  36.9678783
  35.7406735  72.3015022  58.5766840  36.4671206  71.9581842  59.0969133
  34.9712920  71.8339968  58.9018297  26.1697555  52.7645016  56.9678736
  26.1514997  52.8726149  56.0169744  25.4722691  52.1349907  57.1507931
  10.1043773  32.3218155  45.0108528  10.4469848  32.6358271  44.1740417
  10.7379019  32.6288271  45.6594038  37.5415969  61.3108206  44.1521454
  37.5727749  62.1873808  44.5354223  37.8902483  61.4235258  43.2678556
  27.5961590  20.6770205  67.5345373  27.9844856  19.8067117  67.6239729
  28.3256888  21.2804508  67.6755619   4.9055469  85.6082344  74.0904522
   5.5204654  85.0212955  73.6504459   4.7443527  86.3060474  73.4553814
  36.8129325  63.4773731  63.6763430  36.8345189  63.8786364  62.8075790
  36.9432425  62.5434160  63.5121012  15.5171108  50.5846024  57.3111486
  15.2583671  50.0817871  58.0834627  15.6846690  51.4661455  57.6443672
  14.8373413  26.8520641  64.9595118  14.9572110  27.5133848  65.6410694
  14.6043336  27.3531270  64.1779280  93.7263386  23.0385542  13.2685506
  93.6673919  23.0514979  14.2238462  92.9213719  23.4639788  12.9731274
  34.2067790  20.7286263  29.9390340  34.1115665  21.5796304  29.5112991
  33.4295201  20.2379870  29.6718788  41.2098074  51.1239958  39.9161959
  42.0782900  50.8526897  40.2134418  40.7546091  50.3036785  39.7261715
  31.5148282  37.7184820  55.4615736  31.5428138  38.6736846  55.4064798
  30.6774426  37.5273705  55.8840609  36.3323760  50.8048439  35.9217763
  37.1082401  51.3525105  36.0414815  36.1109185  50.5071068  36.8041253
  19.3434040  97.5873438  49.5596695  18.7212459  98.3054785  49.6755791
  19.8318664  97.5584943  50.3823566  46.8292952   7.6763201  50.9952688
  46.5471935   6.8627846  50.5771637  47.7664328   7.5548249  51.1477041
  30.1277161  30.5055571  42.2235394  29.3858290  31.0407758  42.5052786
  30.6851578  30.4416752  42.9990482  39.7750902  43.0794334  31.6636992
  39.1526771  43.2642460  30.9603643  39.3055344  42.4852085  32.2490525
  46.4839125  31.0480261  50.9583759  46.0799742  31.5866899  51.6387463
  46.4096069  31.5731573  50.1615381  39.0391946  59.2989922  63.3601856
  39.7460103  58.8942242  62.8573847  38.8011789  58.6398506  64.0121889
  43.5322571  37.2378445  43.2674503  42.8677511  36.6763449  43.6666775
  43.7176561  36.8265104  42.4232578  33.6362576  35.5360937  66.2629795
  33.8160205  36.4178443  65.9367323  33.8145852  34.9636579  65.5168247
  86.5614383  22.3557210   4.6301466  87.4858896  22.6026607   4.6554711
  86.2993733  22.5016093   3.7211522   2.1176367  65.4054928  26.8919253
   1.4917603  65.3982210  27.6161194   2.0430039  66.2841797  26.5196729
  29.8863339  54.4885349  48.7988710  29.8054647  55.1716566  48.1332588
  29.3869519  54.8206902  49.5448732   3.1723398  42.3447561  40.0772095
   2.5291041  42.3121262  40.7853174   2.6847976  42.6830626  39.3261528
  24.5336032  46.5780401  36.5779805  25.0221896  46.9967985  37.2866106
  24.0672135  47.2968102  36.1512709   2.5410083  50.0202513  22.5335121
   3.0353758  50.8041334  22.2940087   2.1719939  50.2231407  23.3931017
  44.7090149  27.5803471  63.0418825  43.9587164  27.0683289  62.7400208
  44.5853996  28.4428620  62.6456308  79.5967116  99.4951915  40.9994030
  79.7775157 100.4093557  40.7806635  79.7665079  99.4357742  41.9395447
   2.4819201  13.3254588   3.0042717   2.4655789  12.9027832   3.8629395
   1.7431517  12.9398167   2.5333858   4.2398417  90.8309460  34.5736241
   3.5598567  90.7856083  33.9014673   3.7593859  90.9522629  35.3925729
  45.6351709  37.5221682  54.8569012  46.4366865  37.6222062  55.3705168
  44.9732351  37.2565079  55.4952574  37.4391794  23.1097317  25.2989435
  36.7754555  23.5709548  25.8117533  36.9414353  22.6419616  24.6283650
   3.7892565  44.2800093  37.4446297   3.2041240  44.7520256  38.0371261
   4.4607610  43.9085627  38.0167651  42.5633097  48.9999866  37.3623133
  43.0613375  49.2415571  38.1432390  41.9359589  48.3462667  37.6710439
  16.4746428  62.2682953  21.6686463  15.8127499  61.8830252  21.0944533
  16.4355671  63.2065868  21.4833927  11.4578569  59.4750166  28.6732721
  11.7967355  58.7032938  28.2195807  11.4033222  59.2086029  29.5910311
 105.5195114  50.2623606  45.5536175 105.2964137  50.4082108  46.4729548
 105.1270850  49.4149733  45.3434467  77.6501836  91.9497205  49.2755461
  77.8214266  91.0120279  49.3629503  76.9928672  92.1366496  49.9457884
 105.0025400  99.1108439  18.7318373 105.8914526  99.1208745  18.3769190
 105.0737294  99.5693664  19.5690477  18.6042714  51.0090494  35.4654121
  18.3452964  50.0955629  35.5866671  19.5395911  51.0218191  35.6685019
  32.5223875  63.9734316  20.0354767  32.2781229  64.7918034  20.4677224
  33.1591725  63.5713100  20.6262684  31.4372849  46.2512112  11.1508536
  31.2372088  47.1787786  11.2766397  32.3363686  46.2425041  10.8225191
  19.1947031  61.9180441  23.8222718  19.4466603  62.5725365  23.1708241
  18.7019157  61.2640715  23.3265734  12.1091866  47.2527647  67.5020885
  12.2709286  46.3675117  67.8282690  12.7810681  47.3883104  66.8339300
  36.2288547  38.9940214  47.1806812  36.3465047  38.7792897  46.2553310
  37.0621848  39.3846536  47.4437428  26.3100147  16.9987190  13.2956469
  27.1110439  17.4418259  13.0159295  26.3461375  16.1444259  12.8654051
 103.5853116  47.9464388  71.6197157 104.4378928  48.2462788  71.3043880
 103.0295752  47.9424477  70.8403730 102.0439760  74.7440863  47.6051712
 102.8437303  74.7466564  47.0792294 101.5155230  75.4542494  47.2409773
  42.5535822  76.9563198  72.1114206  42.6363277  77.1110249  71.1704397
  41.9213915  76.2410545  72.1818733  12.5182617  82.0475388  44.0763044
  12.8428066  81.1513615  43.9882469  11.5865922  81.9467926  44.2714262
  17.3516083  30.0998592  66.0623741  18.0987263  29.5363474  66.2636232
  16.5865827  29.5816231  66.3121748  33.0046010  44.6344614  45.5193996
  32.7386332  43.8979626  46.0699081  33.8954639  44.8373365  45.8047676
  36.8615031  52.9202795  32.5892901  37.1642351  52.0396614  32.8108549
  37.6525331  53.4587097  32.6137519  37.5424957   9.3091989  28.8422823
  37.0762300   9.9799401  28.3433485  38.2179093   9.7915882  29.3190932
  42.0487452  49.7557640  57.8570747  42.7405882  49.3304300  57.3504400
  41.5077066  50.1957417  57.2013855   7.4555993  49.1004276  26.8145967
   6.6851020  48.8754940  26.2930894   7.4064672  48.5225153  27.5760627
  17.4139154  80.5304909  68.9056063  17.8488362  79.7138023  69.1507578
  18.0584383  81.2118530  69.0968370  10.9835887  70.2908850   9.3386966
  11.3209331  70.1827860   8.4494579  10.6063437  69.4386768   9.5569986
  50.0419998  16.9231725  36.7161107  49.5283365  16.4363563  37.3606229
  49.4335556  17.5748062  36.3676810  11.1216104  54.9287176  15.8136690
  10.2151489  55.0152016  15.5185783  11.2689984  55.6983328  16.3633978
  52.0419312  33.2524395  12.1045470  51.1487103  33.5867691  12.1858895
  52.4347687  33.7845802  11.4126372  39.9052715  64.4753122  61.5248108
  39.9848056  64.2225218  62.4445915  39.0985656  64.0532494  61.2293100
 101.1809063  52.6716153  74.5286935 100.3106785  52.9817509  74.2781871
 101.6233396  53.4490451  74.8694080  69.1122770  74.8177528  33.3808255
  68.5286713  74.5013905  34.0704274  69.2406654  75.7446671  33.5822511
  48.5593224  52.5102425  26.4008427  47.7489853  52.0017529  26.3688993
  49.1161489  52.1159077  25.7295179  30.0347543  78.3907890  34.9500632
  29.7699237  79.0248299  34.2836618  30.1511240  77.5717354  34.4685626
  28.9501190  54.5264006  16.8188381  28.3037901  54.5710659  16.1142123
  28.7190604  53.7355137  17.3060155  28.3975577  27.4595165  27.9713130
  27.6621199  27.5109100  27.3607993  28.4566188  28.3368349  28.3495402
  36.7911792  31.6344357   2.4129583  37.1759081  32.3311377   1.8811491
  35.9375477  31.9780016   2.6766005  29.0852809  55.7770491  31.4247441
  29.6646738  55.0387669  31.2363863  28.2793713  55.3730345  31.7464757
  44.9179554  56.6041422  28.5972166  44.1903591  56.5505838  27.9775667
  45.5316210  57.2179174  28.1935787  62.8873062  56.2586832  38.6156201
  63.3182430  56.6392279  39.3809390  62.9661322  56.9300032  37.9378676
  22.2867060  82.2492981  34.3147755  22.9120851  82.9617310  34.1822147
  22.1862483  82.1924877  35.2649927  27.0666003  69.5060062  17.0792198
  27.3467135  68.6345387  16.7993712  27.7716494  70.0872564  16.7941189
  12.4382162  51.5183687  46.0107136  13.1857097  52.1092272  46.1022043
  12.5520420  50.8776569  46.7126846  17.3284614  18.6411703  12.9684615
  17.2132611  17.6921141  12.9210079  17.8202438  18.7825954  13.7773991
  31.6842747  83.3288765  77.3139954  31.5289593  83.7696457  76.4786339
  30.8936214  82.8099346  77.4616289  51.9182587  41.7896891  31.0152102
  51.8395710  42.5990772  30.5103087  51.2161064  41.2306404  30.6825161
  19.6499085  83.5834312  49.3947506  19.0390158  84.0332222  49.9784708
  19.2855525  83.7148380  48.5194159  36.6653228  43.9558220  36.0853934
  35.8405209  44.1660261  36.5232849  37.1518636  44.7801399  36.0825682
  21.8352866  28.2608414  46.8086290  21.1540794  28.3469248  46.1417150
  21.4517164  28.6502075  47.5944424  39.6176934  27.0210552  16.7105734
  39.0584636  26.8013000  17.4556899  40.2823782  26.3323736  16.6986406
  57.5448275  63.3866119  58.1915712  57.8011799  64.2965889  58.0417252
  56.5948963  63.4208250  58.3042240  53.6787844  76.4683962  28.8497949
  52.7498388  76.3155222  29.0227795  54.0358686  75.5980873  28.6729240
  46.5867805  96.3981533  27.3861670  47.5193405  96.3107491  27.5834560
  46.5618038  96.7234898  26.4863014  92.1208247   4.8174231  62.3367977
  92.6196011   4.6974700  61.5286732  91.4920386   4.0957206  62.3395252
  72.0022154  56.2104273  29.5893288  71.9901991  56.5259123  28.6856937
  71.3279724  56.7258883  30.0319648  39.4971061 101.3741016  25.1921558
  39.0623426 100.6407738  25.6274080  39.4269347 101.1742878  24.2586780
   9.2148983  74.6726179  68.0311489   9.8038381  75.0418425  68.6892176
   8.5058933  74.2778444  68.5387897  30.3860807  88.4867001  25.1168108
  29.7577143  87.8052616  24.8780060  30.4494047  88.4306145  26.0702658
  47.8425074 100.5588913  13.5125911  47.6257038 100.6547546  12.5852084
  48.5202551  99.8832130  13.5315132  81.5254402  56.6874361  24.4959426
  82.4221897  56.9816685  24.3362498  81.4666271  56.6040373  25.4476881
  26.7209744  72.4852419  30.6120253  26.7010045  72.7343988  29.6880364
  26.1675286  71.7058611  30.6619453  33.0693460  81.1423874  37.1974874
  32.1851707  80.8139610  37.0343876  33.5567999  80.3769398  37.5019693
  43.0330086  97.3266792  48.4529495  42.2308302  97.1319771  47.9683590
  42.8740788  98.1858063  48.8439465  62.3339844  75.0502825  43.4629393
  63.2386065  75.1181030  43.7683725  61.8453503  75.6503582  44.0262985
  95.8384418  82.6118755  14.1729975  94.9539089  82.4566936  13.8416886
  96.0539627  83.4957886  13.8755620  23.6866140  65.6969881  65.5293560
  24.3319893  65.0952911  65.1583004  22.8920388  65.1707554  65.6185532
  55.4714537  93.1221581  69.2165661  56.2803888  93.4672642  69.5943928
  54.7935486  93.3505344  69.8525858  63.3699560  89.8271561  23.1413412
  64.0827084  90.1506519  22.5903726  63.7173796  89.8703098  24.0322208
  63.4866953  66.9074631  52.0571613  64.0324497  67.0846987  52.8233051
  62.6323414  66.6743517  52.4204397  68.0799723  96.5249920  16.2333953
  68.4631348  97.3380375  15.9041941  68.6324883  95.8343983  15.8672881
  94.3274021  78.0313873  50.8710003  94.5986843  77.6227045  50.0490427
  93.8657570  78.8257837  50.6025791  40.6419134  85.2280617  39.6750879
  39.8820686  84.9710083  39.1527939  40.6937981  84.5659637  40.3644133
  17.2172379  93.0823135  18.4288692  17.4951684  92.6955986  17.5985456
  17.7605116  93.8648319  18.5223722  76.8731928  83.0538845  13.2028782
  77.7518272  83.4335423  13.2127345  76.3689852  83.6317921  12.6301408
  55.5632257  86.4268875  54.0943766  54.8951149  85.9218121  54.5577955
  55.7097101  87.1943760  54.6473169  53.8091755  25.8606393   2.8200037
  52.8584194  25.7500703   2.8122312  53.9654064  26.6292865   2.2713644
  63.6427689  92.2186756  16.8619657  64.4280195  91.7889786  17.2010398
  63.1066370  91.5030003  16.5204883  52.5571442  72.2262049  18.6054480
  53.4755516  72.4796009  18.5129809  52.3844290  72.2902107  19.5447588
  53.3657694  94.0938282  52.4309587  54.0058136  94.5287800  51.8675852
  53.6429167  94.3116093  53.3208990  74.4383772   9.1727202  35.9738159
  74.0489658   9.9379390  36.3969207  74.9957307   8.7839930  36.6479731
  25.8285356  53.7552881  39.4021559  25.1613307  53.0713701  39.3444681
  26.6029859  53.3695173  38.9927149  74.4641113  84.8030567  57.9685688
  73.8582993  84.1755199  58.3628035  73.9073610  85.5290127  57.6870584
  55.8954191  90.1002312   9.6561092  56.0591698  90.6000137   8.8563389
  55.8416462  90.7621861  10.3454220  27.4690390  83.4413815  50.8609533
  27.8544092  83.7004471  50.0239325  27.7504277  82.5347614  50.9838057
  77.6744223  54.1417074  29.0759349  78.1722546  53.3283758  29.1589379
  77.0111656  54.0878344  29.7639894  76.7957028  10.1206725  25.9019589
  77.4762686   9.4638484  26.0490704  77.2407635  10.9588569  26.0268903
  65.7035828  79.7515583  51.3621807  65.2082586  79.6076012  50.5558538
  66.2168026  78.9513636  51.4740992  92.0157250  10.4463714  32.0735264
  91.9873389  11.0467093  31.3285303  92.8674134  10.6082766  32.4792838
  46.2021255  95.2008629  33.8203526  46.5180779  94.7908115  33.0152035
  46.2602520  94.5096302  34.4799376  60.4270935  71.6044807  57.5617743
  60.0883293  72.4532557  57.2770882  61.2880898  71.5394449  57.1486282
  42.3510265  61.3233519  31.4564371  42.7659750  61.0785294  32.2835493
  41.8831968  60.5351210  31.1806440  42.4307060  86.9868565  24.2668438
  42.8984976  87.5419712  23.6429501  41.6437149  87.4850368  24.4875026
  38.3423710  82.3916245  56.7379856  39.1257548  82.6504326  57.2233295
  38.6458611  81.7085934  56.1399937  91.2434729   1.3926928   4.1402072
  90.8164223   1.4066260   4.9967504  92.1313485   1.7074054   4.3101025
  76.5030241  75.5522442  24.7162867  76.3557386  74.6589756  25.0271010
  77.2513628  75.8628464  25.2259421  48.7109375  73.4296751  11.4149499
  48.4719706  72.8460598  10.6948650  47.9927683  74.0608883  11.4600670
 103.6526871  58.4326220  27.8582978 103.1662941  58.9750051  28.4791613
 102.9799461  58.0560398  27.2909880  71.1863852  62.0890951  48.3808517
  71.3382149  63.0340719  48.3947706  70.9112310  61.8775558  49.2729092
   6.4416830   7.5474780  58.0260038   6.2899677   8.0383532  57.2183847
   7.1957151   7.9774039  58.4295368  29.0778017  85.5998898  24.8111820
  28.2504797  86.0344791  24.6040535  28.8189650  84.7552109  25.1796269
  81.3791656  76.7043257  84.0143967  80.6410122  77.2987747  83.8802433
  82.0097065  76.9487476  83.3369732  97.9511698   3.5598510  62.5256157
  98.4184750   4.3426364  62.8173256  97.0297392   3.7523406  62.6992321
  16.1738205  87.8104782  35.0784898  15.2853751  87.4617958  35.0055861
  16.7231870  87.1595001  34.6418571  48.8914061  84.5409489  28.0285335
  48.0245352  84.1987514  28.2468605  49.1984034  84.9495792  28.8378572
  61.6396904  90.5649185  46.9126844  60.8259344  90.1944447  47.2544193
  62.0872450  90.9123421  47.6841879  70.1373863  72.8444529  37.3089981
  70.0538826  72.4576616  36.4374185  70.6140566  73.6617088  37.1636844
  65.5281162  95.6580353  49.5808029  64.6910000  96.1203003  49.6229219
  65.2977848  94.7698212  49.3083096  69.5765591  67.4104595  82.8389454
  70.3396702  67.9452038  82.6199818  69.7485447  67.1003580  83.7280369
   1.0137738  95.8205128  71.2748289   1.1145309  95.7764721  70.3239679
   1.8195032  95.4351997  71.6191626  94.9154480   7.5552409  34.5957565
  95.7314833   7.9993003  34.8262691  94.7667416   6.9396441  35.3134990
  20.5328512  70.5110741  22.6483536  19.7241998  70.9421921  22.9248524
  20.2420664  69.6952105  22.2408700  34.7546530  95.4115677  34.7465301
  33.9982772  94.8706245  34.9734688  34.4860840  96.3034439  34.9671173
 103.6446381  77.9684782  36.8023658 103.1332588  77.7167845  36.0333610
 103.0286980  77.9015541  37.5319982  20.4233551  73.8267136  69.6831703
  19.5874476  73.3661938  69.6096039  21.0711837  73.1308842  69.7943735
  63.7188911  72.0095682  42.0164394  63.9325190  72.7832031  41.4948273
  64.5644951  71.6959047  42.3370647  46.5048742  85.9873962  23.7429214
  46.1937571  85.9563923  24.6476173  47.2889614  85.4383755  23.7403321
  45.9930754  85.2270412  80.4245186  45.8830929  85.3997612  81.3595581
  45.4958916  84.4239807  80.2691841  35.0241017  72.2510624  33.9690709
  35.8056998  71.7088747  33.8624549  34.2938828  71.6511488  33.8170362
  69.6932602  99.2523670  48.5724068  69.8104334 100.1906681  48.4237337
  68.8431883  99.0521049  48.1806183  66.2077427  89.7954273  66.6434002
  65.3072357  89.5228100  66.8194675  66.1308813  90.7057285  66.3576126
  28.1391168  83.7590504  84.1912746  27.1979165  83.8576412  84.3350029
  28.5432816  84.2740536  84.8896027  49.1476202  87.6158714  38.5172653
  49.2125750  86.8311405  37.9730225  49.0177441  88.3300304  37.8932858
  65.3617573  98.9871502  22.9593372  65.1621437  98.9770985  22.0232344
  66.2777472  99.2610359  23.0059838  51.0687590  71.1522532  34.8756695
  51.8935490  70.7211113  35.0994420  50.5934811  71.2051439  35.7048512
  84.5755196  79.6591091  47.8728056  83.8772011  79.5354939  48.5156870
  84.5894146  80.6027222  47.7127314   1.3337127   1.3934176  78.9909601
   1.5491525   1.9108909  79.7668743   0.3994838   1.5483706  78.8515472
  58.5271406  93.6350822  11.9861794  58.9844751  94.4309521  12.2576094
  59.2214108  92.9851627  11.8774152  98.0854758   5.3237098  35.7401085
  97.5342902   4.6195929  35.3985620  98.2370671   5.0868266  36.6550589
  84.8976859  19.4402545  28.8641691  85.7578858  19.4624179  29.2834520
  84.6117981  18.5309737  28.9519548  64.5418215  71.9073677  15.4894197
  63.7623978  71.7853069  16.0314858  64.5173550  72.8309822  15.2392781
  62.0982981  69.6737242  51.6651154  62.9860210  69.3513680  51.5093470
  61.5881872  68.8870287  51.8578148  60.0211239  56.7526627  32.1369004
  59.1229773  57.0822001  32.1680999  59.9368763  55.8123732  32.2949934
  83.3262539  86.1789608  46.4190006  83.7795544  85.5091572  45.9070253
  83.6903858  87.0069790  46.1059189  71.8718767  79.5257473  57.2743464
  71.7333841  78.6442518  57.6207829  70.9898663  79.8618698  57.1152401
  56.3851675  20.5659240  61.6704559  55.7772728  20.2511447  61.0014200
  56.8856629  19.7901767  61.9233561  43.4035206  79.9750710  31.3447380
  43.5569477  79.0302610  31.3395953  42.4503613  80.0629330  31.3454318
 106.9699471  87.8418255  52.6841927 107.3884799  87.4531460  51.9160843
 107.6966022  88.0631351  53.2666206  48.4972715  72.8461456  26.3283777
  47.9566956  72.0663643  26.4546752  47.8909922  73.5784626  26.4396024
  78.8478756  68.8860035  47.9275179  78.6053276  69.4186211  48.6849689
  79.7534847  68.6265945  48.0972433  24.9935436  78.5460234  47.2349262
  24.1874909  78.0297899  47.2310591  25.2575731  78.5709763  48.1546545
  80.1489830  87.9513931  27.3951888  80.3860760  88.1586361  26.4912701
  79.1954422  88.0320549  27.4172044  54.0541077  89.0008831  52.0958042
  54.3567133  89.9055290  52.1750450  54.4925165  88.5382557  52.8099537
  57.6973152  92.7251720  38.6982775  57.1133137  92.9556274  37.9757357
  57.1983767  92.0947742  39.2177820  76.8859100  78.9929390  56.8604898
  77.2530794  78.1101561  56.8145084  75.9561968  78.8564587  57.0427990
  60.0270987  70.5685377  27.8455925  60.6898355  71.2184715  28.0792522
  60.2245426  69.8146486  28.4013820  76.8189907  88.9419079  49.6847343
  76.0001707  89.2124844  49.2693329  76.9171143  88.0208683  49.4432878
  75.6310797  72.3546314  31.4800191  75.2042580  73.2077694  31.4012170
  76.5630770  72.5418234  31.3678861  13.1053726  44.5459114  87.3988496
  12.3342649  45.1012074  87.2836296  12.9332534  44.0615879  88.2063398
  60.5301094 100.4923248  41.5047693  59.8635817  99.8557663  41.7631388
  60.0882673 101.3393497  41.5644598  72.1118784  77.4830627  40.9389257
  72.1954250  78.2490158  40.3709745  71.3249302  77.6533985  41.4565468
  67.5796938  94.3134212   4.3895525  68.3806801  93.8386536   4.6114790
  66.9984388  93.6455917   4.0257084  62.0694256  82.5472927  10.7605803
  62.4820185  81.7546940  11.1037850  61.2256479  82.5920582  11.2103212
  79.1977739  75.0990725  34.2385817  79.9660349  75.0245476  34.8046660
  79.3364859  74.4398642  33.5585546  41.0177708  91.7347622  40.7245064
  40.2104282  91.2660694  40.5129433  41.0678959  91.7062855  41.6799688
  81.0802563  -0.0850637  21.7483115  81.0976132   0.7312720  22.2478461
  80.2839383  -0.5281694  22.0411587  49.5646620  69.0896606  16.9599068
  49.4908142  68.2573175  17.4267924  50.4246759  69.4283533  17.2086942
  45.2352381  66.6565084  58.5045958  44.7734928  67.3637676  58.9549446
  44.8889828  66.6744089  57.6124001  51.6251421  83.6506176  22.9808450
  51.6860485  82.8638840  23.5226631  52.4575996  84.1022015  23.1198406
  58.3647203  67.6322412  62.0201302  59.0525055  67.1571779  61.5537548
  57.5504875  67.3337698  61.6149473  85.3813362  77.6347017  43.9712858
  84.6270180  77.9168415  44.4886208  85.3742504  76.6798925  44.0385246
  69.6782398  78.9025307  71.1845446  69.2656851  78.2763720  70.5895996
  69.0646410  78.9786720  71.9152498  31.5257788  52.5352526  34.8136282
  32.1182823  52.7818155  34.1034341  31.9561076  52.8551769  35.6065321
  43.3995390  81.7798805  33.7597036  44.2059898  81.6161919  34.2486596
  43.3973503  81.1144257  33.0716634  52.4226952  94.2876148   4.6898249
  51.4881468  94.1113186   4.5813391  52.4635744  94.9424171   5.3868139
  67.4213028  76.2343788  44.7454834  66.5299559  75.9799099  44.9841928
  67.3110962  77.0228720  44.2141056  57.3776293  65.3746223  74.3886185
  57.6664877  64.4858360  74.1816187  57.2502232  65.7898331  73.5356236
  47.4473572  95.3433418  24.4540715  46.7489147  95.5638504  23.8378000
  47.8393459  96.1859608  24.6833324  89.2983254   5.6686824  55.1127529
  89.2219075   4.7316401  54.9328899  89.0153178   6.0919993  54.3022394
  58.8630676  83.0642796  48.4504128  58.2766294  83.2431698  49.1854811
  58.2797194  82.9581070  47.6989698  31.5156078 101.0922623  33.1224656
  31.6833329 100.6170177  33.9362502  31.0546136 100.4626751  32.5680852
  54.3252754  83.0008793  35.5599427  54.9422646  83.4511471  34.9830413
  54.6449041  83.1853294  36.4431453  56.8829250  66.4213467  76.9184828
  57.2093010  66.0701942  76.0899878  57.4993038  66.0974550  77.5752926
  57.4440718  78.1200171  28.1827068  56.5532160  78.0246687  27.8457856
  57.5009537  77.4814177  28.8934755  94.7220898  61.4660501  30.7850456
  93.9536953  61.1065340  31.2283969  94.4848919  62.3731709  30.5924296
  82.7121838   6.5969985  76.3184214  83.6495837   6.5082972  76.1462402
  82.6644763   6.9635146  77.2013855  11.5586845   1.5828841  29.5267081
  10.9646503   1.6632121  30.2729654  11.7411129   2.4860709  29.2674828
  12.0289310  78.0569983   6.1284167  11.7404445  78.4449005   5.3022575
  11.2566169  78.0934620   6.6927218  83.3148575  95.8571815  36.2682819
  82.8170586  95.6151295  35.4873610  83.2437325  96.8107510  36.3116312
  57.3362684  79.6011543  37.3294687  57.3533487  80.2927589  36.6679358
  56.6395903  79.8627329  37.9315042  21.5966129  94.5780087  26.3025498
  21.7907333  95.4022217  26.7488980  20.7653046  94.2910099  26.6804242
  51.9321108  88.5503387  43.3638382  51.8210793  89.5010662  43.3585548
  51.1743212  88.2234001  43.8487005  71.3984108  76.8015051  28.9687085
  71.1928177  77.7346277  29.0256858  72.3549747  76.7668438  28.9642453
  99.2347630  11.5429824  50.7775974  99.7014769  11.5106242  51.6126823
  99.5767220  10.7981627  50.2830887  84.7235584 101.7190456  53.3675575
  85.2723026 101.2144661  53.9679718  84.0296078 102.0773029  53.9210272
  57.9999439  56.8096291  77.9602414  58.7887184  56.3449131  77.6807683
  58.2118122  57.7352367  77.8394109  76.2906122  79.3260670  44.6618557
  76.6563368  80.2075863  44.7353792  75.5238724  79.3363142  45.2347755
  59.5850563  93.4567547  16.1344182  59.2703056  94.0913963  15.4906833
  59.3394136  92.6057053  15.7716429  26.1342478  76.5963030  22.4952412
  26.6773772  76.1341333  23.1337118  25.7638526  75.9028101  21.9492483
  62.1062946  94.5782852  54.1365623  62.6745701  93.8167286  54.2519951
  62.2492552  94.8485184  53.2294941  74.2535734  93.9613438  16.2572169
  74.4363213  93.9264393  15.3182721  73.3599615  94.2995262  16.3148880
  82.2484016  63.4969187  18.0269766  82.6910686  63.9832211  18.7225246
  81.6925240  64.1466951  17.5968468  40.4041862  71.2857580   7.9613924
  40.2889156  71.8492746   7.1962833  39.6185231  71.4331150   8.4879369
 106.2074193   0.4929107  50.8108664 105.7421740  -0.3324277  50.9471798
 105.6047591   1.0245269  50.2908421  90.9356785 101.7342758  24.6909118
  90.1732349 102.3100948  24.6330929  90.6239414 100.9723949  25.1793528
 104.2948095  47.0113189   1.4087945 104.7517483  47.6649386   1.9381410
 103.4648101  46.8716151   1.8646604   8.9724628  17.0207255  74.2283964
   9.5912067  17.4703639  74.8039103   9.1655437  16.0909694  74.3488455
  30.6963897  96.7087269  51.9422770  31.2750697  96.7804146  51.1831856
  29.8632836  97.0733833  51.6436338  35.2568913  71.9915867  43.5799932
  34.6277905  72.5161839  44.0752363  36.0785580  72.0847988  44.0620804
  74.4040823  73.2403994  72.7489138  73.6684465  72.7289534  73.0858040
  74.2793179  73.2429790  71.7998838  77.7335501  61.4460325  50.8487749
  77.9906511  61.8406200  50.0154495  78.4969711  61.5621424  51.4144039
   8.0997554  18.1345122  47.0878553   7.6218931  18.7695067  46.5543270
   7.4366800  17.7637237  47.6701546  48.2787466  92.0327759  52.1882296
  49.1500044  92.4251461  52.1318150  47.9672337  92.0100975  51.2834215
  68.5652971  98.0531883  43.2900047  68.9297533  98.8626766  43.6479712
  68.9878750  97.9571342  42.4365234  88.7544250  92.0432854  80.8884239
  89.0832710  91.1497974  80.7895660  88.8719368  92.2403049  81.8177223
  29.1661541  27.1135657  42.8231478  28.4171001  26.9586413  42.2476768
  28.8923065  27.8406470  43.3822393  73.1432152  98.0411339  46.1844110
  73.8688517  98.2502651  46.7725897  72.8435659  98.8911629  45.8620739
  77.1630859  87.0522690  64.5193100  77.9604673  87.3481941  64.9584436
  77.2832489  87.3100281  63.6053371  62.3624754  83.5795593  19.4794190
  62.3754168  84.5100784  19.7034585  62.3681736  83.1296825  20.3242922
  50.8686590  99.6973133  49.1161346  50.4771090 100.0033855  49.9342060
  51.3370705  98.8986301  49.3589020  89.8697281  81.2144375  43.4771442
  89.1060638  81.3508415  42.9163837  90.5541801  81.7573071  43.0859232
   4.0752832   0.8081954  52.2734356   4.5121519   0.3988021  51.5265942
   3.1631891   0.5269854  52.2010183  26.4949870  73.6436319  63.2750177
  26.8587208  74.0030432  62.4658489  25.5602503  73.5446310  63.0941963
  80.9738159  86.5534973  36.5807557  80.0253677  86.4726067  36.6814423
  81.1980820  85.9152508  35.9035635  61.6722679  77.7112341  54.5548391
  62.5331354  77.9733419  54.8810863  61.7731857  77.6895857  53.6032200
   4.2987529  11.3256686  13.2798243   3.5167066  11.1231082  13.7932467
   4.7036735  12.0607989  13.7401044  92.3252201  95.9170341  28.5558987
  93.0575562  95.9232330  29.1722369  92.5848675  95.2890968  27.8817248
  99.8242092  80.9449863  57.0076513 100.7246399  81.2382221  56.8681049
  99.8382854  80.5304718  57.8703260  64.7794199  96.5270233  19.0878761
  64.7179556  95.8754158  19.7863531  64.6441698  97.3652840  19.5297515
  67.0804882  96.9059277   3.5971728  66.3392782  96.9034386   2.9915059
  67.2481918  95.9803200   3.7742695  67.9289103  94.4163609  74.9304581
  68.4555197  94.5338440  74.1398191  67.9274559  95.2779388  75.3474855
  65.1586485  92.9844666  57.3113632  65.4108047  92.0611763  57.3251820
  65.9533644  93.4536171  57.5654268  13.5291187   3.6508506  40.9417009
  12.6903145   3.4506171  40.5263090  13.5058681   3.1731170  41.7708349
  84.6021946   2.3160880  37.2119260  84.9390992   1.4216178  37.2635102
  85.3500708   2.8372424  36.9198537  67.6583147  71.3759232  33.0398798
  68.1183434  70.9964323  33.7886047  67.3572588  72.2295141  33.3512950
  71.3212872  83.7144661  43.5340595  71.4503574  82.7705860  43.6271429
  70.3753853  83.8360786  43.6159468  58.9724255  92.0770359  19.6525979
  58.5273933  92.9078197  19.4853127  59.8429728  92.1906090  19.2711794
  53.8051939  80.2237606  26.2123847  54.0401030  80.1320934  25.2889943
  54.2462301  79.4928646  26.6454172  56.1442757  85.6878090  36.4963675
  55.6271458  85.7584667  35.6939888  56.4516592  86.5789604  36.6624689
  55.7722855  83.4571934  25.9689498  54.8369646  83.3560276  25.7923937
  55.8619928  83.2650185  26.9023585  61.9897699  74.1312218  23.1698895
  62.6613474  74.7916126  22.9992962  61.1832285  74.6338367  23.2843494
  28.7527800  93.2955837  46.6356897  28.5107923  93.2262039  45.7121849
  29.6947336  93.4653664  46.6243601  49.0698481 100.4799461   0.3465112
  49.3233061 100.6699657   1.2497748  48.1160164 100.4053497   0.3760353
  50.2147341  76.8297148  29.5056868  49.7902775  77.6713943  29.3394279
  50.3185940  76.7975569  30.4566908  11.1648703  59.8926741  15.4598791
  11.8311596  60.5777366  15.5144769  11.0610962  59.5871169  16.3610441
  51.3982201  90.3354740  52.3048162  52.1603632  89.8216152  52.5718737
  50.6469584  89.8188305  52.5962353  54.7096570   4.9102633  32.5424457
  54.8159727   4.1034549  33.0464172  54.7809311   5.6096213  33.1921053
  58.5792780  71.8878460  39.9800229  58.6724329  72.6780510  39.4479299
  59.4062471  71.8217421  40.4575014  46.3359690  80.0363064  27.5260830
  46.2124395  80.5397797  28.3307457  45.9594107  80.5863857  26.8391728
   2.2564451   8.3731311  37.2326422   2.9923765   8.8467734  37.6203179
   2.4190323   7.4559730  37.4531579 100.4074534   1.7238276  29.0202928
 100.5798157   0.9401172  28.4984469 100.4950245   1.4315074  29.9275470
  73.5285139  71.4623690  23.4800339  74.2764616  71.0057402  23.0949378
  73.5291719  71.1913157  24.3980527 101.9254589  46.5045309  53.6935902
 102.3182678  45.9469128  53.0220318 102.3415375  46.2261963  54.5094585
  56.7642355  81.4057922  56.9876862  57.3973274  81.9642258  56.5364933
  57.0802307  81.3663292  57.8903580  69.1125584  61.0188580  49.7257423
  68.6638355  61.4764690  50.4367065  68.4212065  60.5251551  49.2847013
  58.8851404  76.2479162  19.8255932  58.8135815  75.3116179  19.6399629
  59.7824717  76.4729214  19.5798385  85.8493519  83.5728359  53.6089897
  85.7404900  83.6582375  52.6618433  84.9775314  83.3431339  53.9305449
  36.2603466   3.0241054  52.2936296  36.8882648   3.6823409  51.9958353
  35.4039566   3.4224456  52.1382475  66.5188599  97.5326157  10.3402424
  66.8167734  98.1382084   9.6614671  66.0602665  96.8424988   9.8610103
   5.1773254  12.3214190  51.9071293   5.3928510  13.1768840  51.5357065
   5.8513538  11.7346805  51.5641212 100.0460156   9.1594451  53.6227989
 100.5352648   8.7848895  54.3553114 100.7164343   9.3882792  52.9790545
  64.0627956 100.9298611  47.7296448  63.1524992 101.0632610  47.4654579
  64.5164919 100.7008362  46.9185114  54.7910738  73.0066204  49.6817923
  54.5767784  72.7464008  50.5776691  55.1134109  72.2048473  49.2701006
 102.4338349   1.1338466  34.0242338 102.8904637   0.3797000  33.6514330
 101.9774302   0.7833713  34.7891498  62.4880314  98.4426689  47.1944284
  62.3896790  98.0449200  46.3293552  63.2920885  98.9581299  47.1310282
  29.5198703  93.3433437  26.6941524  29.6795845  94.0132141  26.0293198
  29.2588210  92.5688457  26.1959171  60.5023193  55.7013893  18.7102187
  60.0675106  56.3824034  19.2234325  61.3127756  55.5227613  19.1871727
  76.8791199  80.1355839  71.1906528  76.8138409  79.3342638  71.7101288
  77.8198910  80.2739048  71.0808945  33.8359690  84.9538136  25.4632092
  34.4749975  84.3092060  25.1593232  32.9932904  84.6182728  25.1573706
  74.4277573  78.5773563  57.8344345  73.8734627  78.7367153  57.0705032
  73.9741325  77.8883553  58.3199549  83.6311682   3.3626121  73.0289602
  84.3227728   3.3585589  73.6906958  83.3061608   2.4623626  73.0166769
  63.8574314  84.0202332  66.8431091  64.0696526  84.4243431  67.6844692
  64.3409300  84.5384693  66.1997557  66.8267059  69.9854469  62.2102022
  66.1539412  70.4634476  61.7252922  66.5342093  69.0742445  62.1905851
  14.4370731  93.2651424  38.4567165  14.9227222  92.4614906  38.6424971
  13.9504226  93.0711460  37.6556158  84.4467831  78.3130741  69.5256948
  84.3673706  77.5539398  68.9480782  84.8855877  78.9753914  68.9918184
  86.8675478  22.7255290  68.1894064  85.9293135  22.5871699  68.3190203
  86.9261511  23.5743564  67.7509117  78.9334019  11.4501040  53.8039207
  78.0215367  11.4456218  53.5128593  79.4388302  11.6041701  53.0057764
  96.0702761  14.1770595  70.6288624  95.3758391  14.8107284  70.4487419
  96.8466481  14.5464843  70.2081442  26.7912285  12.3349517   0.8892227
  26.0825054  12.9667705   0.7677164  27.5019447  12.6634353   0.3385777
  48.3960247  96.9718075  43.9556932  48.4330893  97.7097225  44.5642471
  48.5230017  97.3663139  43.0928612  58.6683989 101.0845852  50.1884604
  59.1996765 101.5170097  50.8570242  59.2731953 100.9348106  49.4618130
   5.2372829  13.7253230  14.4398856   4.6379797  13.7353747  15.1861858
   6.0867540  13.4978812  14.8179078  57.0871019  85.0795174  57.4856377
  56.8290234  84.6041584  58.2753563  57.1017694  85.9984303  57.7532578
  19.8863022  34.0121596  81.4889240  19.7195713  33.0704349  81.5287590
  19.0755264  34.4124453  81.8030071  31.2840581  94.2924213  59.9000740
  31.9349813  94.9447441  59.6412134  30.8348036  94.6860695  60.6480312
  82.4409827  11.0726779  41.9348621  82.3586615  11.8536323  42.4821901
  82.1669968  11.3605254  41.0640574  55.0794649  79.5099211  44.7873545
  55.0509453  78.5852480  45.0331211  54.3459415  79.9056005  45.2581120
   2.9567854  28.8957541  69.7318459   2.7127020  29.3666404  68.9350271
   2.2756426  29.1254275  70.3639364  66.0479212  53.6843491  11.7404413
  65.6493521  54.4772291  12.0992017  65.9383869  53.7687016  10.7932794
  32.6926064 101.9870377  77.1431589  33.4267664 102.0051670  77.7570915
  32.4333048 101.0663319  77.1070004  50.7313061  73.3673579   2.2630006
  50.6118393  73.0232436   1.3778192  51.1284447  74.2286116   2.1335870
  47.6493263  94.9280071  12.8880632  48.0215454  94.2420197  13.4422338
  47.6306963  95.7042694  13.4477901  83.4651089  76.4728355  37.6059580
  84.2192268  76.7932606  38.1007957  82.7804756  77.1225405  37.7653050
  30.8292095  48.2033478  85.9792480  30.9796564  48.3817040  85.0509211
  31.7004482  48.0244099  86.3330236  61.1997271  79.9842167  21.0947609
  60.6782150  80.7335472  20.8070898  62.1073008  80.2646446  20.9768462
  19.6845142   6.4076751  79.9112082  18.7944023   6.0693973  80.0087643
  20.0468246   5.9189265  79.1722298  64.4650078  89.9983215  11.9041193
  65.0836849  89.3210697  11.6306305  64.6620321  90.1431084  12.8295660
 105.0747927   2.4790519  40.5489016 104.7431429   3.2782405  40.9582233
 105.7060107   2.7871840  39.8986363  57.2528839  57.3451710  32.2862673
  57.2080946  56.5618896  32.8346205  56.6563940  57.1635485  31.5600133
  78.1441411   0.7908576  38.3925080  78.9246567   0.6443732  38.9268875
  78.4429463   0.6634276  37.4921131  61.1064577  88.0052567  73.9093447
  60.3511000  87.7805233  74.4526386  61.2668514  87.2202492  73.3856440
  30.3727627  82.2528839  52.9240751  31.0329413  82.9060650  53.1559229
  29.6899796  82.3567390  53.5868406  98.6450291  73.3328342  20.6024671
  99.2232609  72.6625872  20.2382517  98.6348629  73.1550503  21.5429568
  50.8631611  72.2890425  60.9680557  50.1490450  72.4169350  60.3436279
  51.2534857  71.4517736  60.7173395  69.4718981  79.9780893  50.4430056
  69.5647097  80.0803661  51.3901901  69.4166708  79.0319920  50.3085327
  24.7872639  76.1496353  19.2291272  25.0276756  76.9442177  19.7056484
  24.7514272  76.4218712  18.3121550  29.2401552  14.1295583   5.6704790
  29.0425921  13.2171256   5.8818227  28.6797762  14.3284137   4.9203664
   8.8988964  26.2818282  49.1909122   9.6891681  26.6042560  48.7576008
   8.6349098  26.9965213  49.7703552  11.7306892  43.4558528  30.4444647
  12.3468677  44.1730063  30.2953196  11.4560596  43.5615485  31.3553095
  92.0092400   4.7986739  22.7430987  91.2389811   5.2655547  23.0670619
  92.7472695   5.3594439  22.9820156  44.8187160  95.9595108  16.7275345
  44.2878771  96.5216541  16.1632383  45.2387190  96.5632629  17.3401618
  43.7505007  86.4390278  57.0992899  43.2863331  87.1023083  56.5885687
  43.7241745  85.6538773  56.5524101  71.7706919 100.8135986  41.6015863
  71.2848234 100.0455093  41.3012552  71.7068911 101.4357758  40.8769751
  95.9785899   8.6401504  41.8631601  96.8571385   8.6021369  41.4850855
  96.0736283   9.1993659  42.6341772  33.4288573  87.3582649  29.7349048
  34.2171502  87.7900887  29.4057393  32.9224992  88.0615425  30.1413918
  47.8212118  99.3686295  32.3486161  48.3116865  99.9852943  32.8921151
  47.3785734  98.7964535  32.9754472  55.5133629  75.9932137  36.4831948
  56.1882877  76.4486170  35.9798884  54.7189140  76.0860968  35.9574103
  51.7143488  73.7496710  33.9902258  52.5179052  73.9201117  34.4816279
  51.6292000  72.7962685  33.9935970  25.1359359  33.4408610  32.6407313
  24.4142715  32.9474109  32.2509336  25.3087513  34.1457313  32.0166230
  98.0755576   8.2609790  27.9239821  97.5362881   7.9693358  28.6590815
  98.2207831   7.4700110  27.4048352  63.0500364  85.7550716  13.9626896
  63.5959291  85.5017757  13.2183266  62.5313902  84.9741459  14.1560614
  72.3361588  80.1883507  49.0665483  72.3691273  79.3121624  49.4505215
  71.4975119  80.5461407  49.3579197  65.5341148  80.3595161  54.1991854
  65.3597403  80.2473354  53.2647133  66.3819408  80.8025455  54.2331314
  64.8089409  90.1822853  18.6137903  64.0337801  90.3468418  19.1507030
  64.9596500  89.2403507  18.6930573  27.9574482   1.7778247  56.3951206
  28.8993541   1.9439261  56.3569880  27.6782982   1.7703002  55.4795599
  62.9888296 100.9909058  11.5895605  63.0453587 100.3686714  12.3147178
  62.1956730 101.4959526  11.7686045  15.2368347   1.3474315  55.0194025
  15.4648582   1.2062018  54.1005516  15.5630485   2.2258513  55.2148533
  29.1038847  82.9646683  25.8670807  28.3958077  82.9610538  26.5111661
  29.9044657  82.9382324  26.3911057  44.1407394  85.1961422  22.5263977
  43.3925104  85.2499771  23.1209421  44.8846006  85.4941368  23.0499506
   5.0350994  74.8589945  41.1827612   5.7010067  74.5985460  40.5463934
   4.5774007  74.0460253  41.3968182  39.3652987  84.4930458  32.1358061
  39.8748207  83.8828373  32.6689649  39.9559808  84.7403526  31.4243507
  70.0412321  88.3169174  25.0459695  69.1452312  88.5080338  25.3232574
  69.9574089  87.5537586  24.4743085  49.8402548 101.1803436  16.8697977
  50.4284525 101.5492058  17.5287318  50.1057816 100.2635193  16.7980719
  65.6316471  99.6409798  45.5267048  65.7385015  98.7052345  45.6975889
  66.4977741  99.9329758  45.2424622  69.2796087  72.0496750  26.9056797
  69.9394226  71.3562870  26.8957639  68.8751936  71.9831038  27.7706933
  85.5437851  96.8048668  33.7887192  85.0385571  97.6002216  33.9571667
  85.4891491  96.3089085  34.6055841  91.9764098  24.1625445  76.8194771
  91.5035017  23.8352817  77.5846481  92.3758515  23.3830684  76.4333487
 107.7475556  33.6857360  46.3007593 107.4941739  34.1917460  45.5287647
 107.3456009  34.1508048  47.0344973  60.8360624  83.7230587  14.2683542
  60.2309418  84.4382572  14.0720224  60.4147387  82.9454994  13.9021266
  23.0750751  99.9976063  59.7941637  22.6398373 100.2425671  60.6107378
  22.4881339  99.3567944  59.3927956  33.9047074 102.0510387  35.9700847
  34.8094702 101.7789841  36.1237764  33.4211683 101.2306976  35.8728051
  59.9143744  80.6356716  60.7361698  60.7630968  80.2182579  60.8833694
  60.0607681  81.5574551  60.9485531   6.3060896  16.7333548  36.2977505
   7.0694391  16.4979594  36.8251204   6.6740505  17.1150344  35.5007815
   0.2352039   3.6392825   7.6414412   0.5735914   2.9465144   8.2087165
  -0.1467427   3.1741565   6.8971229   1.8316920  65.0814438   0.9879575
   2.3814376  64.5712614   0.3932105   0.9786018  65.1160574   0.5552028
 103.9209747  93.8970852  76.8394995 103.0696297  93.5749817  76.5433502
 104.5530891  93.2857990  76.4613724  80.7336807  65.3459215  56.3842630
  80.7326031  65.7714891  55.5268717  81.6083717  64.9648905  56.4614344
  85.2664240   1.3774150  20.2900481  84.7046383   1.6167872  21.0271573
  85.1622590   0.4294913  20.2074575  63.3230019  90.2076912  44.5601368
  62.6282835  90.1769924  45.2179003  63.8809299  89.4576073  44.7658682
  90.5368996 100.4716110  44.5407867  90.3037453 101.1187553  45.2064228
  89.9543095 100.6633377  43.8058949  82.4582577  86.9698620  30.9158039
  82.3145580  86.7214870  30.0026250  81.5894794  86.9267654  31.3152957
  43.8877726  85.0119019  70.6082201  44.4215965  85.7979202  70.4922581
  43.1352901  85.1462746  70.0320673  76.7162943  67.4230862  52.2863579
  75.9448767  67.1106911  52.7591753  77.1145535  68.0643415  52.8749275
  74.9090719  87.8162670  27.2438169  74.2703009  87.8035831  26.5310478
  74.7269011  88.6297417  27.7142406  98.8253745   5.8216136  45.1177359
  98.0248507   5.8257621  44.5929718  99.2141207   4.9622195  44.9547958
  56.3556719  85.4148102   8.0947399  55.5151987  85.5160427   8.5414964
  56.5542889  86.2882710   7.7573156  64.1614199  99.2581177  20.4816532
  64.3109608 100.2009392  20.4112744  63.2092524  99.1690350  20.5225825
  95.1047142   5.8800738  20.1766443  94.9185475   6.7076724  20.6200933
  95.2658137   5.2587836  20.8867764  66.3609394   5.5271285  34.8038578
  66.3778790   4.5706027  34.8356843  67.1930536   5.7945292  35.1941323
  69.6313524  97.4172401   2.1947280  68.7311888  97.2089577   2.4448465
  70.0075054  97.8274632   2.9734808  80.5821904  14.7570556  22.3846245
  80.5976161  13.8007491  22.3462558  81.0518845  15.0359004  21.5985823
  90.3760815  77.7598858  35.5753040  89.6854496  77.1539021  35.8437109
  90.1232338  78.0362177  34.6944308  67.6122904  55.1116085  14.7241461
  68.5102749  55.0317430  14.4024658  67.5715256  54.5146322  15.4712665
  94.5680618  95.2355194  30.0885201  94.7107792  94.3454552  30.4104638
  95.4363728  95.6380463  30.1043320  84.4528294  90.8156204  54.0176249
  83.9985847  90.1991177  53.4433317  84.8814487  90.2629280  54.6711159
  60.6599283  61.6963291  61.6408014  61.3533783  62.2259855  62.0342779
  59.9672270  62.3238230  61.4342833  78.7238455  94.2872047  32.8105855
  78.9500666  94.0379238  31.9145298  78.7907362  95.2420330  32.8176951
  48.8754129  91.0023403  47.7608061  48.1497431  90.9520054  48.3829832
  48.4559536  91.1677742  46.9164658  76.5601730  84.4583035  65.6697989
  76.8905735  85.3528500  65.5870056  76.1616564  84.2705536  64.8199940
  85.1172924  78.2483625  18.8865042  85.8578968  78.0242968  18.3230042
  85.5113411  78.7054110  19.6295130  43.5654545  85.1438236  34.9294782
  42.8583050  85.4436684  35.5006766  43.6223650  84.2023754  35.0927734
  89.3829878   8.1186431  83.2463455  89.6371039   7.6814311  82.4336338
  89.4925126   9.0513080  83.0609322  90.8846378  66.0383177  40.3343725
  91.2231636  65.1542664  40.4761124  90.8861351  66.1457205  39.3832183
  37.4124575  85.2955055  34.6490288  36.5206170  85.4588032  34.3421268
  37.5758410  84.3774700  34.4327879  85.2067757  87.0320320  54.4385195
  86.1111546  86.7648220  54.2744207  84.6955967  86.5664291  53.7766027
  73.6837196  64.5271349  39.3020105  73.1560516  63.8760996  39.7645569
  73.4391165  65.3616762  39.7019386  54.5166302  86.1470890  59.9660444
  53.8536072  85.4637718  59.8674965  54.5795631  86.5466499  59.0985060
  68.3163309  97.1109581  20.5097127  67.9058599  97.2521400  21.3628316
  68.9225006  97.8451824  20.4111314  94.9871357   4.0976470  25.7401562
  94.3841799   4.4782489  26.3787580  95.6737050   3.6931460  26.2704754
  25.1039910  84.9587250  51.7682886  25.8089280  84.4207001  51.4079762
  24.4391179  84.9747276  51.0798693  89.0263470  12.2859519  29.7696471
  89.4302281  13.1326335  29.5792675  88.5044201  12.4411529  30.5568790
  53.0461550  81.2233162  39.5451260  52.7916288  81.1411953  38.6260486
  53.9130545  80.8200073  39.5905304 106.4555931  57.6619196  81.0352516
 106.7840767  58.1515741  80.2812195 106.8207550  58.1171370  81.7939854
  63.3895588  89.2420006  73.4311295  62.5344276  88.8119507  73.4374428
  63.5582447  89.4531631  74.3493795  49.0032482  79.6575451  36.8027401
  49.8964405  79.3715572  36.9941640  48.5850477  79.7274828  37.6609063
  61.0660982  83.2251644  66.1440945  62.0150232  83.3400917  66.1947441
  60.7901239  83.1083393  67.0531750   7.2751514  14.1889708  23.1004834
   6.3881866  13.8297313  23.1220651   7.5051014  14.3147128  24.0211034
  48.7565279 100.1828289  61.1117268  47.8082752 100.1543999  60.9843111
  49.1177750 100.1702404  60.2254009  15.5269301  90.2593327  25.1129556
  16.3483965  90.0244617  24.6813774  15.4515839  89.6392345  25.8382320
  72.1207523  90.9112358  32.2885871  71.7500973  91.7784214  32.1247935
  72.6796436  91.0307693  33.0564284  60.9401035  84.7440720  47.9726362
  60.2024412  84.2634487  48.3482504  61.6699791  84.1255951  48.0042839
  14.6929538  91.2324905  78.9290476  15.3934586  91.0511398  79.5556545
  14.3374193  90.3708649  78.7112665  85.3405762  88.8968182  62.3307896
  86.0724545  88.3149529  62.5357771  85.3483486  88.9642429  61.3759995
  38.2581830  99.2295170  33.2224345  38.5876918  98.3461857  33.0569577
  37.3632765  99.2188358  32.8829336  62.9557323  94.2854023  84.0818501
  63.7458420  93.7864208  84.2891407  63.1617355  94.7292805  83.2591915
  23.6865807  45.3576381  17.6677400  22.9219103  45.1259620  17.1406347
  24.4263220  44.9703032  17.1997911  48.2660770  50.4293299  22.5526309
  48.7581205  50.3363514  21.7368603  48.9331436  50.6066608  23.2158089
  52.1558142  80.8702087  71.6067362  52.0340014  80.0860023  71.0715675
  51.7861891  81.5791512  71.0804129  75.9447726   0.7325881  16.3467753
  75.8979138   0.4496711  15.4335427  76.7738684   1.2069648  16.4083147
  21.8583147  47.9494320  80.1735019  21.2306015  48.6576210  80.0297188
  22.6523105  48.3907448  80.4752493  26.0577575  41.5659945  30.0162745
  25.5303184  41.2614959  29.2778182  26.9585506  41.3558810  29.7699833
 102.8090485  18.3359855  44.9821997 102.1693238  17.6369231  44.8469400
 103.0544623  18.2609313  45.9043598  23.7660114   1.7317813  28.4752035
  24.2596523   2.5441783  28.5873151  24.3505756   1.1636107  27.9734993
 106.3439187  28.5882132  26.5006375 106.9523533  28.8456099  27.1933007
 106.3773497  27.6316112  26.4957643  91.8002661  39.7728484  21.3317895
  92.3581656  40.5472224  21.2588191  91.0986384  39.9225657  20.6981230
  93.7408217  29.6251529  65.4064131  93.0374869  29.7236674  64.7646618
  93.4451588  30.1285594  66.1649656  10.8782951  34.3154853  72.9807138
  11.2771789  34.6088736  73.7998867  10.5844108  35.1210826  72.5554180
  43.0504123  10.1723807  24.4656086  42.4541179  10.1644748  23.7168765
  42.8383724  10.9808486  24.9321413   1.6590778   2.4675124  19.6589518
   2.5939838   2.5797027  19.8309922   1.4034549   3.2650130  19.1954052
  27.9056637  17.6316970  42.7270317  28.3579818  18.3918136  42.3611403
  28.2088081  17.5861876  43.6338186  75.8106518  96.2294769  25.4687786
  76.0175896  96.5326500  24.5847535  76.6262865  95.8418179  25.7860994
  24.8269073   5.2160781  19.9589133  23.9480106   4.8919528  19.7621202
  25.2247612   4.5239299  20.4870009  41.9146919  96.2994099  22.2979236
  42.6150179  96.0544682  22.9027200  42.2701788  96.1085510  21.4299178
  34.4111530   8.6656897  86.9075489  35.1865188   8.5995143  86.3501835
  34.1865341   7.7584403  87.1141338   3.1151573  37.5968402   8.5104251
   3.1439344  37.8620952   7.5911599   3.5219661  36.7304748   8.5225713
   3.4194318   6.5485900  84.2548943   3.2778351   7.2812217  83.6553574
   3.1783334   6.8928378  85.1148891 105.6915673  12.6724666  30.5500031
 106.4070757  12.6846736  31.1857128 106.1080464  12.8913253  29.7164059
  98.7599087  79.9511147  63.0224562  98.9608383  80.5148697  63.7694788
  99.6154785  79.7103930  62.6670980  39.4610683  21.5344661  26.0115385
  38.8345710  22.1988433  25.7245946  40.3119365  21.8696921  25.7289267
  65.1235151  72.3209715  21.9853020  65.7528114  71.6641378  21.6873312
  64.2691612  71.9560385  21.7548060  56.4542294  94.3148327  22.3518610
  56.4163208  93.3595657  22.3042393  57.2022295  94.5524597  21.8039012
  83.3405304  80.3069496  54.0808964  83.1216526  81.2028027  54.3373346
  83.3701134  79.8221636  54.9057245 105.3864479 100.1588440  12.4237347
 104.6104145 100.6001091  12.7691233 105.7629776 100.7852745  11.8056369
  57.1002285  28.9578615  78.4122234  56.4897625  28.3762537  78.8653075
  56.5592853  29.4223152  77.7735609  10.1241008   5.3739684  31.3321114
  10.0132934   5.9704154  32.0725203   9.4154445   5.6039470  30.7311535
  16.0743133   5.9889834  51.8047714  15.8643333   6.5257113  51.0405302
  16.0160152   6.5930407  52.5450039  17.6988403   9.4265025  45.1985979
  17.0361988   9.2810100  44.5233393  17.2565262   9.2087596  46.0190725
  30.6270591  33.4577220   7.6480955  29.9030201  33.7640040   8.1941724
  30.2913658  32.6663630   7.2270322  20.0496475   5.3907817  28.0676270
  20.0802128   5.1194709  28.9850640  20.2429477   4.5929568  27.5753522
  24.0441028  10.4199069  38.9117026  23.6112491  11.1054557  38.4028983
  24.1197960  10.7869666  39.7924757  47.6401130  44.2429863  74.4354325
  47.5157062  44.6192394  73.5641163  47.2530357  44.8847042  75.0309223
  20.9062664  23.3585399   6.8381858  21.4194957  23.7068408   7.5672400
  20.3142540  22.7247661   7.2432584 102.6118811  50.7246058  40.4391766
 102.6850804  51.3034194  39.6803331 102.0563134  50.0052398  40.1390076
  67.7052164  83.9421082  32.9453754  67.3430920  84.6657085  33.4567451
  68.5103130  84.2955399  32.5670505  61.4884329  92.5493622  41.9035244
  61.1975574  92.4314690  40.9992409  61.0447121  91.8548393  42.3903275
   5.9336368   8.1939738  53.1643772   6.8735925   8.2490485  53.3366585
   5.8252422   7.3707049  52.6882410  28.4316301  94.1906261  33.9277244
  28.4909534  94.9193001  33.3098578  27.6933122  93.6691189  33.6128545
   3.4248058  28.5653155  17.3370647   3.3804933  27.6563209  17.0404196
   2.7552454  28.6278670  18.0182481  49.8285484  93.1219387  58.6570215
  49.6471310  93.8583851  59.2409420  49.0574932  92.5599480  58.7336397
  46.1044264  97.2836018  52.4728775  46.6641712  97.7738857  53.0749941
  45.2373981  97.6749039  52.5795031  96.8780383   2.3747294  74.0746069
  96.6015442   1.6469520  74.6315002  96.4419230   3.1408351  74.4475842
  28.2774345  30.4735415  61.8621969  28.6361591  29.7966426  62.4360943
  28.8644306  30.4823249  61.1061621  13.4345428  21.1273234  63.4634161
  14.2227642  20.9392016  62.9539537  13.7304489  21.7240088  64.1509056
  99.0590533   6.7411845  47.7721453  99.1373166   6.5110724  46.8463182
  98.1573113   6.5147727  47.9998159  90.5909443  88.5742664  63.0494213
  91.5327168  88.4737206  63.1879282  90.5186176  89.0005112  62.1954203
  27.9676620  21.9788211  27.4661446  28.9004127  22.1452372  27.6022077
  27.5302784  22.5061744  28.1345963  66.5858746  52.3583323   6.8239862
  66.6860771  51.5680797   7.3547346  66.8358898  53.0732543   7.4093229
  57.1893009   1.4342921  72.3408651  57.6111682   2.1290248  71.8352842
  56.2813028   1.4352076  72.0379305   6.1974613  16.4735358  84.2339897
   6.1987583  15.5453914  83.9999390   6.7670290  16.5278190  85.0013733
  14.8300544  15.0615733  34.8157835  15.3379146  15.1049464  35.6259847
  13.9443771  15.3164428  35.0743389  93.5942936 101.2921715  29.5441437
  92.8580856 101.8242741  29.8459625  93.2344627 100.7702637  28.8269472
  91.1292934  96.1806488  42.9765511  90.8218288  96.0343266  42.0819616
  91.3991070  95.3144646  43.2817698  27.3750186  99.9098873  45.4961252
  28.0516958  99.3251228  45.8372879  26.7387652  99.9808502  46.2077236
 100.5296612  87.3595524  34.3987298 101.1403847  87.3714924  33.6617732
 101.0001183  87.7994728  35.1068115  25.3783504  77.3929916  76.6070193
  25.6374685  78.1238018  77.1682685  24.5520488  77.0858227  76.9799965
   1.3303168  92.9777813  26.5255165   0.7006915  93.2809353  25.8713770
   2.1599849  93.3757496  26.2618470  74.5735264  77.7606964  20.1709580
  74.9025345  78.2056713  20.9519744  75.0751877  78.1405640  19.4496632
   7.6371566  55.5351775  41.2881470   8.4892265  55.2679484  41.6328144
   7.0601980  54.7946494  41.4751673  38.3485913  50.2621984  12.8282535
  37.7403593  49.6495485  12.4147975  37.7961659  50.9865952  13.1220293
  23.9677135   7.8172248  13.7299800  24.0345184   7.3127978  14.5407319
  23.7901775   8.7123912  14.0187788  14.7161857  21.9075244  17.9545736
  14.9879257  21.4598792  18.7558258  13.9579860  22.4294417  18.2171702
 101.7052937  76.6904736  33.6503935 101.0783482  76.1745787  34.1573715
 101.2635612  77.5267458  33.5029030  54.3312931  81.5539455  47.9753304
  54.2680550  80.7371235  48.4703255  53.6765957  82.1270657  48.3742571
  72.5145006  96.5166664  15.5352056  71.9065094  97.0495033  16.0477138
  72.2020674  96.5967464  14.6339810  50.6295005  47.5850044  84.9620786
  50.4992858  48.5106026  85.1683217  50.3313533  47.4970947  84.0567526
  38.0327964  98.5804749   5.6185019  38.3766198  98.9724445   6.4212286
  37.7040482  97.7240753   5.8918935  57.7085972 100.7576656  32.4616766
  57.8751755  99.9849415  33.0014753  58.5340357 100.9111786  32.0019889
  21.2124340  23.2412475  58.0612516  21.5469543  23.2042449  57.1651745
  21.9834606  23.1005423  58.6107492   5.2742283  12.0565837  43.3314419
   6.2240068  12.1687358  43.3711481   5.0927488  11.3357680  43.9345360
   1.1851112  47.9395138  85.3561562   1.4767543  48.1797157  84.4766804
   0.5192629  48.5917030  85.5741617  50.0789165  83.3314514  18.0488777
  50.7128954  83.3173943  18.7658918  50.1134777  82.4483299  17.6812673
  46.8213129   2.9931907  73.4212392  47.5618267   2.8077487  72.8437596
  46.5480900   2.1343497  73.7436825 103.7754822  99.0115356  24.4700623
 104.6323967  99.2795563  24.1382480 103.9544773  98.6671257  25.3450346
  62.9902983 101.3315773  35.1711082  63.0839491 101.5654659  34.2476583
  62.0671177 101.4922428  35.3664422   9.4455520  27.7041572  35.6033874
   9.6721737  28.4297412  35.0216579  10.1940719  27.6289218  36.1952376
  74.8839077  22.7223723  28.0270195  75.4343041  22.4771350  27.2832775
  74.7438510  23.6633532  27.9213428  73.3071899  93.9039135  44.1330099
  73.0652189  93.6040878  45.0092459  72.6687574  93.4888649  43.5530424
  75.9588861  94.8316288  11.7038250  75.9157228  95.7835484  11.6131711
  76.4778328  94.6897125  12.4955225  10.5792133  20.9953158  43.6545324
  11.4351265  20.5863994  43.7827206   9.9592296  20.2665084  43.6807871
   1.6492979  13.0001777  23.1452727   0.8613817  12.4708598  23.0218053
   2.1727888  12.8370803  22.3606777  82.9612827  99.5278549  27.8243375
  83.3562946  99.3953609  28.6861014  83.6163616  99.2008591  27.2077513
  95.0346955  33.0783885  46.1254025  95.5687769  32.3162501  46.3493013
  94.1447028  32.7338641  46.0516405  25.8404915  35.9741538   3.3192474
  24.9921505  36.3361018   3.0632398  26.3500206  36.7340320   3.6006555
  60.5351305  76.2484598  45.2864742  59.7227859  76.7449522  45.3855991
  60.7831335  76.0139275  46.1807442   3.1048719  35.0900119  31.3084126
   2.6396553  34.2914622  31.5576601   3.5815183  35.3459018  32.0980740
  73.8407238   2.6207679  50.1984167  74.1848477   3.5093444  50.1076746
  74.4409951   2.0780795  49.6871471  89.2766055  26.7582648  85.7359219
  90.1267918  26.6498321  86.1621380  88.6728009  26.2437289  86.2715626
  21.6976158   4.9875205  55.6281567  21.0704033   5.6466430  55.3308582
  22.3552028   5.4848044  56.1144876  14.0704147   4.0670436  35.3183126
  14.5876686   3.9000647  36.1062193  13.1931488   3.7524074  35.5365753
   5.9976045   9.6075194  67.3553896   6.2883751  10.1215499  66.6020918
   6.7865841   9.1572230  67.6570034   7.6032201  55.5652278  24.1147685
   7.3581926  55.4470962  25.0325036   8.0103485  56.4310115  24.0850949
  10.9417240  36.7354243  49.3285275  10.9023372  36.3398211  48.4577942
  11.7333690  37.2732394  49.3116713   9.0355961  51.4110892  34.8644829
   9.9339286  51.4947455  35.1842284   8.6099903  52.2263377  35.1299167
  81.0529423  72.8042173  44.4596481  81.0134411  72.6697826  45.4065371
  80.3360844  72.2734880  44.1122675   3.8354866  23.5005324  48.3181477
   2.9837553  23.9121383  48.4643030   4.4478599  24.2334216  48.2541847
 106.9681557   9.0534251  40.9931421 107.7355488   8.4825271  40.9554434
 106.8457468   9.3500083  40.0913191  21.9850151   2.5700896  60.9341049
  22.3526088   2.3324721  60.0828457  21.3228981   3.2314246  60.7329035
  25.7038395  48.4418147  80.9802246  26.5331451  48.7626784  81.3345432
  25.0763313  49.1391604  81.1704159   0.3321115  31.1955111  45.8652353
   0.1591102  32.1167510  46.0591698  -0.4831322  30.7464927  46.0888195
  11.0827152   4.8646586  72.6203442  10.2467624   5.2071326  72.3039007
  11.3417141   4.2194884  71.9623852  10.0335399   1.6476386  42.5999212
  10.4135696   2.2204154  41.9337893  10.2927009   2.0432513  43.4321165
 102.0255574   7.0040744  32.5939536 102.3983153   7.8519671  32.8355432
 102.3649033   6.8349212  31.7150545  75.6847477  88.0540180  30.5262947
  75.1117849  88.6465931  30.0396776  76.3796091  88.6179447  30.8659816
  89.2307385  25.5340236  42.8100681  88.6765584  24.7539847  42.8355169
  89.5735081  25.6134646  43.7002516  71.9238957   7.9261630  82.0443344
  72.6679142   8.3737414  81.6414165  71.3927158   8.6308139  82.4152088
  12.3960582  16.7403357  54.5889282  12.9422466  17.4981158  54.3799591
  11.6884033  16.7703002  53.9450645  49.7510433  47.8866298   5.5359537
  49.9125672  47.7125270   4.6086866  49.7111321  48.8410479   5.5970460
  84.1421318  95.8646297  55.8139992  83.3486843  96.1277485  55.3476810
  84.3661785  95.0112152  55.4428864  22.2704593  24.7250693  51.7213869
  22.5424282  25.5393355  51.2980270  21.3301269  24.6692317  51.5514183
  92.2542000 100.5680180  55.5616474  91.5890789  99.8949146  55.4175186
  92.0855713 100.8852768  56.4488554  56.6025400  86.7633724  48.4887552
  57.4791622  86.3853645  48.4188890  56.7052698  87.4957943  49.0964079
  71.4164289  14.5295566  54.5134306  70.6888088  14.9483626  54.9732113
  71.9359168  15.2580493  54.1733360  55.6790265  16.0672324  32.5790381
  54.9265309  16.1916392  33.1574011  55.7103880  16.8654769  32.0517397
  97.7968788  81.2299347  48.2039261  97.0036411  80.9668732  48.6706257
  97.8186607  82.1832657  48.2870674  21.2322990  36.5502494  34.7066212
  21.7547313  36.2135928  33.9786458  21.8723671  36.7431205  35.3917098
  75.3956413  62.5207901  46.9375849  75.0841141  61.8330860  46.3491535
  76.2370062  62.1974039  47.2597075  20.2060692  32.6590388  14.5881820
  20.3744308  31.7170184  14.6100771  19.5411102  32.7992289  15.2622807
  64.7590160  87.0167542  50.8128738  65.7070541  86.8910694  50.7721853
  64.4136381  86.1573982  51.0546350   5.9945575  20.0645678   2.4017295
   6.0105888  19.4248240   1.6898927   6.6508333  19.7484248   3.0226922
  92.7112063   8.5344832  25.6580257  92.9837807   9.4419425  25.7939053
  91.7599495   8.5518401  25.7631207  32.6147072  11.0842364  54.9920130
  33.2599537  10.4430526  55.2899504  32.5126926  11.6829246  55.7318783
  48.3437157  82.6453495  83.7285900  48.8974810  83.3438683  83.3798218
  48.4275436  82.7251148  84.6787739  92.0429333  27.8853076  42.6433277
  91.4943417  27.7179759  43.4096670  92.8754052  28.1879085  43.0061722
  90.3002127  16.3130801  18.2958949  90.2312430  15.7299083  19.0517998
  89.5253380  16.1157935  17.7697015  85.9299239  39.1772311  64.6432829
  86.7351254  39.4062560  65.1074314  86.2208374  38.9353030  63.7640429
  80.5604839  87.7427578  44.9232626  81.4041519  87.5798702  44.5014572
  79.9598074  87.1272755  44.5030355  59.2817593  94.3385410  63.5977745
  59.0037298  94.7310829  64.4253254  58.7085104  93.5798836  63.4880066
  81.0588837  87.7897263  50.8936930  80.9811115  87.2887039  50.0818110
  80.8843327  88.6944771  50.6344604  16.9204895   4.4456428  46.8757677
  17.1590416   4.8240035  46.0295010  16.0782711   4.0188544  46.7184544
  74.7178316  89.8350334  35.2345920  74.1688347  89.0968323  35.4989672
  75.4952478  89.4298267  34.8503304  68.7410307  78.0849457  77.8680277
  69.3176079  77.8716469  77.1343422  67.8755236  78.1842709  77.4714613
  99.8666438  19.5660823  34.3768334  99.2270764  19.8169082  35.0433683
  99.6619614  18.6518615  34.1804981  14.2239277   5.1474612  54.3510008
  13.6108486   4.7490161  53.7332487  14.5999424   5.8862536  53.8724327
  88.0054005   1.1604350  26.0068798  87.2001465   0.8851951  26.4451051
  88.5780390   0.3949492  26.0551786 102.0951422   5.7104819  45.2378464
 102.5242718   5.6958716  46.0933399 101.7275437   4.8322051  45.1392460
  58.2973099  86.5046120  34.6112037  57.7309990  87.1858120  34.9738002
  58.5177851  85.9521580  35.3611541  21.8473427  15.7814067  38.5991144
  22.1813766  14.9954741  39.0314937  21.0539715  16.0039084  39.0862465
  87.8054714  97.0126152  59.3159914  87.3069191  96.1985970  59.2449331
  88.2530308  96.9465160  60.1595259  65.6974268  94.9722481  52.8891706
  65.6237316  94.2429352  52.2736216  66.0284376  95.6987953  52.3611641
   0.9466831  65.6367820  10.5483997   1.2141315  66.0250037   9.7153419
   0.2105371  65.0682586  10.3223264  93.2703742  20.4538100  56.4238310
  93.3786114  21.3708919  56.1718702  93.8720282  20.3347152  57.1587181
   9.5634643  35.7286590  64.3947172   9.0233032  35.2298968  63.7817717
   9.5307056  36.6272109  64.0664625 102.4717816  18.4180015  39.3041897
 102.7828320  17.7249949  39.8866129 102.1409377  17.9539817  38.5351229
  80.1507950  97.7671242  35.6813169  79.9949884  97.3138332  36.5098596
  79.8484516  98.6618328  35.8372474  51.6011667  72.5261641  63.9649963
  51.4395428  71.9617844  63.2089615  50.8667088  72.3535824  64.5540762
  72.5709057  81.1272717  20.1190758  72.5660563  82.0262623  19.7904158
  73.1026411  81.1657524  20.9140635  90.2795696  73.4549475  67.0489740
  91.1841965  73.3877850  67.3545408  90.1784134  74.3736696  66.8000793
  79.5031595  96.6107368   5.6188059  79.0622377  95.7998943   5.3651136
  79.1600943  97.2690868   5.0145614   6.2262233  78.8156843  63.6022472
   6.1237224  79.4318199  64.3275738   5.9696849  79.3142176  62.8264332
  27.7733223   6.7390578  51.8724489  27.0514194   6.1505073  51.6517830
  28.0653946   6.4466422  52.7358246  81.6203594  92.4983597  27.0386338
  81.9977760  93.0843925  27.6946449  80.6983471  92.4250412  27.2851014
  67.9658842  99.8937988  23.3188820  68.7376356  99.8786068  23.8849211
  68.2158232 100.4594517  22.5882673  13.4872524   0.2240794  35.6581545
  13.0117695   0.8465522  35.1079941  14.4105045   0.4067080  35.4835677
 101.6924858  57.3525524  31.4745641 101.8178654  56.6430950  32.1047854
 101.7336178  58.1507921  32.0012093  47.1103088  23.7116092  49.5467424
  46.3127605  24.2240279  49.4142103  47.6359646  23.8800853  48.7647343
  95.5233010  30.6717437  63.2419538  94.6852406  30.6040614  63.6994505
  95.8556660  31.5378516  63.4778023  89.4681986  44.2290824  16.6114092
  88.8853081  43.7892001  15.9925544  89.1129073  45.1146739  16.6870284
  84.7123393  21.2714236  12.2109747  85.2251013  21.0546916  12.9896498
  84.2135104  22.0490210  12.4614620 100.7343634  16.9809382  36.4678001
 100.0763854  17.5685828  36.8392467 101.0777148  17.4542659  35.7099771
  10.1143161   6.9794696  36.3326669   9.4644920   7.6610797  36.1612678
  10.6483547   6.9526141  35.5387449  16.9624035   1.6743129  39.7840047
  16.1768047   1.1756938  40.0085688  16.7476265   2.5774997  40.0171423
  86.3732433  80.2562809  58.3993673  86.1913586  80.7235718  57.5840235
  87.3024273  80.4159164  58.5647583  77.2478676  97.1758556  76.0344028
  78.0605841  97.3549366  76.5073156  76.5795851  97.1239758  76.7177343
  32.8613734  99.7187805  20.8405256  33.6195159  99.9686909  20.3123236
  33.2183599  99.1372681  21.5118217  75.1263571 101.2135410  56.5821409
  74.4907618 101.9284534  56.5482378  75.9467411 101.6081905  56.2864208
  78.0154467  86.9395733  74.5807123  77.2020102  87.0968819  75.0600863
  77.9021597  86.0707188  74.1953564  98.9590224  15.0492900  74.8399639
  98.1780728  15.3936427  75.2732992  98.6317166  14.6641868  74.0270662
  44.4527626  84.5567513  62.7973890  44.9852228  83.8862419  63.2253313
  44.9196196  84.7506237  61.9845581  13.1889335  14.9560397  42.4827528
  13.6847011  15.3560775  43.1971836  13.7446109  14.2387622  42.1778679
  97.3005962  86.3161945  50.0724697  97.5264168  87.0294094  50.6695890
  96.9831467  85.6169033  50.6438351   9.1736404   8.2978480  51.7724037
   9.7842781   7.9220145  52.4065161   9.5633213   8.1029838  50.9201097
  71.8962526  98.0560207  26.3418150  72.7429771  98.2237339  26.7555356
  71.6305590  97.2002316  26.6783571 105.0654221  88.1781483  29.4972205
 105.4122734  88.1395340  28.6059070 104.3801594  87.5101185  29.5167160
  88.8327026  89.5796585  42.9395008  89.0297031  88.7870407  43.4386778
  88.9455223  90.2927589  43.5679913  16.9389709  72.3046255  57.4119806
  16.7407878  71.5254736  56.8924809  17.4536021  71.9763708  58.1492901
  73.0967951  86.1300755  49.6248388  73.7740374  86.1514568  50.3009415
  72.5781631  86.9194317  49.7802877  30.8298484  23.1135219  85.4183769
  30.9682266  23.5910933  84.6004486  29.9067775  23.2576888  85.6266880
  84.0130051  10.6183570  17.1232021  83.0807503  10.7056182  16.9243991
  84.4504031  10.7463115  16.2814546  24.9338619  20.0049918  70.4994202
  25.6863777  19.4396632  70.3251743  25.2519504  20.8895629  70.3189230
   4.3840297  83.9370918  28.5168004   5.0040515  83.5097599  29.1077280
   4.3355354  84.8394966  28.8323021  98.9054402  22.3032325  27.7445483
  99.6523150  21.7906135  28.0537796  99.2129954  22.7098697  26.9344306
  76.2272748  18.8701194  75.2465439  75.9075912  19.7055572  74.9058580
  77.0780762  19.0786117  75.6324196   1.0451595   7.2321551  40.5066347
   1.8230049   6.6909068  40.6417179   0.9959499   7.3481982  39.5577693
  98.6791047  38.6142486   2.9234159  99.0203484  37.8090041   2.5343657
  97.8305109  38.3631080   3.2881847 102.9565772   0.7388537  46.1693859
 102.6920756   0.7529204  45.2495623 102.1704920   1.0007327  46.6486788
  73.7727833  95.5859661  30.9186482  74.1861105  94.7410870  31.0963464
  74.4875479  96.1416245  30.6078815  73.9105749  95.8551407  67.3899889
  74.3500757  95.2877998  68.0233908  73.7536144  96.6700935  67.8668976
  15.8000016  71.9583195  78.1808752  16.1225366  71.6067808  79.0107095
  15.5132603  72.8467267  78.3924025  30.9489346  10.2348876  39.2958140
  30.1626301  10.7388806  39.5054507  31.4630103  10.2462137  40.1031733
  21.9619441  50.0580359  66.1748362  22.5555897  49.4544888  66.6215467
  21.1821127  49.5344591  65.9905529  93.0747740   7.1134287   7.1663576
  93.7311022   7.5314111   6.6089046  93.4687440   6.2770575   7.4143547
  87.5960986   0.6447867  21.7909431  86.8946997   0.8754026  21.1817718
  87.8266541   1.4714821  22.2147942  19.7492135   3.2351562  35.3026891
  20.4353023   3.8792837  35.1277208  20.1801181   2.3884767  35.1856947
  21.2411332  16.8676639  15.8145273  20.6209993  16.9306648  16.5409517
  21.0928893  17.6632619  15.3033710 105.6015627   0.7139917  42.8396225
 105.4515828   1.0250029  41.9468641 106.3827277   0.1647321  42.7738428
 102.1394857  83.6241347  45.0500202 101.3057597  84.0894134  45.1181936
 102.0284398  82.8512818  45.6037331  35.5848098   3.4592310  26.3498068
  36.3699627   3.3989948  25.8056188  35.7581115   2.8726172  27.0860696
  21.1912346  42.7625513  29.0201235  20.4359388  42.8276110  29.6045256
  21.9170809  42.5160456  29.5933700  10.6992960  12.5384104  51.3949633
   9.8793709  12.6999438  51.8617201  11.3573384  13.0250931  51.8913031
  23.1761909   5.1933861   9.5871723  22.6031923   5.5513561   8.9091152
  23.5330129   5.9632283  10.0301766   6.0888886  35.8928633  74.8722172
   6.7778981  35.3028560  75.1778126   6.1768824  35.8905101  73.9190722
  24.4981885  10.5441630   7.7567118  23.9280128  11.2998426   7.6150048
  24.2354894   9.9163461   7.0836091  74.4125025  13.3618450   6.2501794
  74.5308534  12.5852811   5.7032132  73.4756700  13.5511613   6.1978346
  14.3593073  17.3599660  31.2056637  13.9040756  16.5219319  31.2874866
  13.6579847  18.0085027  31.1441922  30.1645660  27.4322796  23.9211297
  30.6245995  28.0614781  24.4767499  30.6210017  27.4761581  23.0809069
  14.4224012   6.6950482  32.7940845  14.1915214   7.6239181  32.7828002
  15.1729524   6.6419756  33.3857679  89.3992790  76.2692864  42.9274082
  88.8700147  76.2583715  43.7248993  89.8119720  77.1329505  42.9256392
  92.9712184  99.3450608   2.7634537  92.9107507  98.8574386   1.9419917
  93.8701948  99.2037243   3.0602661  70.1600790  18.8067794  24.2998123
  69.7014761  19.5843899  24.6179819  69.5563316  18.4137714  23.6695266
  97.4503740  87.7841503  12.2325599  97.8811057  88.3957595  12.8297496
  98.1702121  87.3334415  11.7910552  47.0431376  15.3737664  29.4785881
  47.7883816  15.7441616  29.0056753  46.5158606  14.9505711  28.8010049
  25.4884887  13.2835460  46.9740915  25.3721857  14.1455328  47.3736954
  25.0396919  13.3478355  46.1310720  57.2842026  31.8945926  73.5257309
  57.0291924  30.9742039  73.4617918  56.7144179  32.2543245  74.2055624
  33.6792874  23.3494854  54.9423456  33.9522743  22.8487659  55.7111073
  34.2834496  24.0913391  54.9127817  24.9349713  10.1265800  56.1836100
  25.7281733  10.1918507  55.6518221  25.1925492   9.5896655  56.9330168
  46.4967442  31.4116430  37.0820689  46.4915371  31.5655637  38.0268002
  47.3469210  31.7408609  36.7904425   9.1313511  43.4368324   6.7370099
   8.3764851  43.9458466   6.4415240   9.8809528  43.8484907   6.3070494
  30.0872715  92.9503829  21.0585451  30.7453783  92.9333020  20.3636813
  29.3212756  92.5247104  20.6734657 105.0887688  78.1929261  33.4696746
 105.4421719  78.0567700  34.3487644 105.4569729  77.4782450  32.9501677
  44.1490650  36.6385984  19.0907741  43.2052708  36.6802740  18.9366758
  44.5377159  37.0091224  18.2983768   8.8859403  22.4497581   1.3838607
   9.5936412  23.0604601   1.1778641   9.0057003  22.2486424   2.3119998
  33.0876994  29.0846491  43.8274813  32.7636480  29.9794650  43.9300776
  33.4826636  29.0714288  42.9556704  44.4760519  60.1404786  87.2060694
  45.4011547  60.0487238  87.4340997  44.1911203  60.9261327  87.6727534
  43.0807495  32.3460340  27.8463769  42.2815132  32.5874829  27.3782301
  43.2825327  33.1105232  28.3858871  20.0091624  24.4719505  38.7639236
  19.4968295  23.7830353  39.1871762  20.5384684  24.8443818  39.4691634
  74.6245446  99.7372910  50.4259920  74.3919062 100.3435410  51.1292505
  75.2614315  99.1430978  50.8229065  96.2962373  88.5336942  17.7528298
  96.7829736  88.2394261  18.5227156  95.3820737  88.5427947  18.0364752
  22.5880003  40.4615164  22.8666258  21.7025471  40.7679462  23.0623484
  22.8155637  40.8959532  22.0446086  12.6953614   0.5259730  23.8774347
  13.5983741   0.2275917  23.9859152  12.3997343   0.7228050  24.7663069
  28.7570739  45.8263493   4.3567172  28.3010864  46.6319895   4.1133010
  29.0755224  45.9902191   5.2443928  34.7343254  30.5044508  19.8404372
  34.3786621  30.6840277  20.7107735  34.0240669  30.0588298  19.3787169
  69.5145573  99.6056118  20.1931548  69.6944033 100.1007294  19.3939388
  70.0636514 100.0187559  20.8595181  83.4924539  94.1870195  28.6509728
  83.3603640  94.6121658  29.4983411  84.2692383  94.6125627  28.2879972
  73.0571448  78.9756686  36.4865136  72.4652590  79.6182901  36.8775940
  73.2893733  78.3928520  37.2094417  12.3616326  25.0866604  64.8374271
  12.9377437  25.8509159  64.8218822  11.5921271  25.3565526  64.3361807
  90.8341380  93.3627666  58.8084650  91.4127811  94.0767009  58.5406971
  91.1029073  92.6206810  58.2668924  22.5053358  12.6515460  45.6375217
  22.4275827  13.4775329  46.1149454  23.1486392  12.8308976  44.9517918
   4.5205688  29.5563126  31.4528799   5.1940429  28.9180493  31.2177539
   4.9622473  30.1624489  32.0476508   8.7055105  11.7603862  32.5012374
   8.1961238  12.2670710  33.1337166   8.9215386  10.9497547  32.9621482
  92.6503019  15.2120042  73.9055681  92.7947704  16.0632145  73.4922886
  93.2442717  15.2062905  74.6561670  21.0220385  36.3428974  48.1565523
  21.4573526  36.2100673  48.9986277  21.7272854  36.5911651  47.5588751
  99.1357551  16.8340647  31.5904212  99.1085712  16.9701457  32.5375080
 100.0688241  16.8178833  31.3774586   6.7122251  12.7274430  27.5903511
   6.5024799  11.9700754  27.0438766   6.3559926  12.5076759  28.4511852
   7.0413238  15.1639688  41.2755108   6.8863505  15.7586133  40.5416059
   7.9583025  14.9049652  41.1844063  26.5102482   0.3333081  30.6664872
  27.0244908   0.7897098  31.3324332  26.5077782   0.9280802  29.9165058
  19.5413959   7.9856479   8.7669033  20.2976131   7.4117750   8.8895303
  18.7855875   7.4296319   8.9561963  75.3114503  99.9382217   1.5104139
  75.2256470  99.1759188   0.9379070  75.9558477 100.4948188   1.0731683
  75.0120950  72.6685064  69.9461132  75.4888511  73.3564513  69.4817096
  74.0892362  72.8729742  69.7952658   3.6618745  21.3138270  29.3816829
   2.7506897  21.4746141  29.1364861   4.1331509  21.2887454  28.5489154
   3.9551035  19.3466151  61.1329985   4.3475497  20.2183080  61.1816978
   4.5291805  18.8581109  60.5430555  99.1349562  91.2570853  19.0654945
  98.6694821  91.7251689  19.7586489  99.4755324  90.4717238  19.4938016
  12.3581660   1.4998037  21.2821436  12.5597811   2.4027181  21.5277624
  12.6443112   0.9780440  22.0318890  40.8819962  42.1098948  27.3850703
  40.0065947  41.9524050  27.0313740  40.8753490  43.0328417  27.6387501
  96.2265857  83.4903950  56.0034657  96.2468608  82.6208276  56.4030552
  95.4676755  83.9184577  56.3997555  80.0225798  26.8267965  32.6253724
  79.8122351  26.7351079  31.6960835  79.8524420  25.9608293  32.9960299
  44.8984766  15.0006807   7.9295135  44.2723608  15.7065785   8.0905026
  44.6649599  14.3238819   8.5648447  13.2737494  18.4149003   8.5717648
  12.6254606  18.1068957   9.2050791  13.9830327  17.7742803   8.6242610
 105.6834955  24.8478389  38.3602238 106.5085442  25.1050782  37.9486966
 105.1005755  25.5929375  38.2144046   1.0724375  18.8022697  13.8070571
   0.1531106  18.9340281  14.0388095   1.2585247  17.9005122  14.0686631
 103.2922133  78.8665731   3.9810973 103.7969764  79.6746881   3.8894615
 103.1699665  78.7662823   4.9251467  24.2213058   9.0613192  36.6218758
  24.6545720   8.2101834  36.6857433  24.3124819   9.4426167  37.4951053
  74.0555572  71.3430350  80.1938784  73.8207435  70.4600804  80.4793370
  73.3043742  71.8823593  80.4410314   3.2098082   6.9938713   7.1515089
   2.4549711   6.4052922   7.1567363   3.1887883   7.4179626   8.0093759
   9.0411800  20.7356143  57.3413229   9.7408205  20.9873366  57.9441261
   9.4587725  20.1294184  56.7294598  23.7346363  18.1189072  23.2149053
  24.4288778  18.3331919  23.8380766  23.9944983  17.2738278  22.8481054
   6.8469489  24.0675664  37.2635198   6.7718244  24.9764276  36.9727278
   6.0197890  23.6631942  37.0017552  45.6480122  20.0799417  48.5840416
  44.9707890  20.5275273  49.0912580  45.9559488  19.3805015  49.1604042
  11.8616891  32.9613519   2.2740385  12.1294665  32.8383040   3.1847450
  11.9831181  32.1019220   1.8704748  80.3593053  58.0485494  37.8171468
  80.8272811  57.3849113  37.3103809  81.0056283  58.7397344  37.9612541
   2.1363131  96.2800802  26.5227127   2.0607559  95.7816131  25.7090473
   2.8214852  96.9246925  26.3459492  13.9876413  29.8033404  78.7199974
  13.1902909  29.9044824  79.2398357  14.0245807  28.8685298  78.5175180
  10.0441158  28.4528089   6.3226235   9.5305330  28.9524627   6.9572967
   9.4101739  27.8658867   5.9104675  77.8919498   6.5498179  46.0572910
  77.6113216   5.6947321  46.3833427  77.3828523   7.1795994  46.5676117
  27.2108722  31.4398813  30.4652047  27.1092749  30.5731964  30.8586121
  26.4703035  31.5182424  29.8638320 104.4109996  78.9704973  45.4825592
 104.4435104  79.4315536  46.3207722 103.8008865  78.2478649  45.6301928
  40.0445890   0.8509057  28.1010103  39.9726558   1.6862297  27.6391768
  39.1922545   0.4337265  27.9756212  30.1101899  22.1060228  68.4736061
  31.0660124  22.0727825  68.4345055  29.8827982  21.5704346  69.2336559
  28.5785246   9.9895912  33.0401635  27.7300382   9.5886910  33.2287955
  28.9859653   9.4004005  32.4052787  36.8834686   2.9830778  33.0977750
  37.4395776   2.2162482  33.2354236  37.4432755   3.6044556  32.6322222
  11.7987001  13.7249434  33.5687089  11.8485057  14.0185630  34.4783998
  10.9000540  13.9199722  33.3029413   1.4517824  92.1316249  15.1874316
   1.5814511  92.6156390  16.0029972   1.0446397  92.7642525  14.5956123
  23.1898308   1.0520975  31.4953327  22.2464037   0.9357838  31.3828826
  23.5427928   1.0198878  30.6061697 102.6812003   0.1528268   5.1330751
 103.0022128   0.9565786   4.7242156 103.4265093  -0.1736221   5.6372350
  39.3378711  13.8131952  59.8577452  38.6806178  14.4721842  59.6341753
  39.2782068  13.7286305  60.8093357  78.7895079 100.1074419  22.5799346
  79.5074876  99.6052175  22.1945691  78.4368827  99.5362356  23.2622910
  13.7448394  30.2101469   6.2461883  13.9661622  29.9426413   7.1382028
  14.5892394  30.2815580   5.8010799  83.3255692  77.0334036  28.4082913
  83.9212008  77.7154023  28.7186670  82.7712651  76.8375737  29.1636920
   9.5867628  15.3126109  11.1605203   9.2525744  15.1196194  12.0364797
   8.8110739  15.2989411  10.5998504  88.2360681  81.9519395  41.2548399
  88.0623253  81.0988266  40.8570385  88.5385974  82.4975652  40.5288935
  23.0101482  84.0874202  30.4803777  23.7729589  83.8715560  29.9439502
  22.2599021  83.9009530  29.9159360 100.1120619   8.6520845  37.3520374
  99.4425498   8.4167093  36.7097092 100.9024034   8.7973291  36.8319464
 101.0900148  79.8331530  45.6306505 100.7010659  80.1154477  44.8028469
 101.4286931  80.6379277  46.0229111  86.5145715  97.1706907  46.6635227
  85.7332309  97.7155928  46.5696049  86.9158085  97.4661548  47.4808025
  66.8157806  83.4471221  74.9216652  67.1896436  82.6842959  74.4805813
  67.1333884  83.3825428  75.8223248  34.1041446  49.2167044  23.1285143
  33.2177782  49.5696259  23.0508637  34.4074154  49.1299248  22.2247839
  68.2356053  69.3995435  23.2012987  67.4117746  69.6274740  23.6320925
  68.4027817  70.1280696  22.6033592  95.0297650  94.4413389  43.6137390
  95.7264670  93.9103664  43.2278585  95.1850661  94.3914200  44.5569372
  42.0789528  13.0706108  12.1098697  41.2496376  13.3241844  11.7046893
  42.2081041  12.1607900  11.8419552  14.5200674  97.9573358  22.1218395
  15.1268808  98.1864957  22.8257537  13.6839477  98.3357678  22.3937297
  24.6813941  18.6189449  17.2062624  24.0411377  18.2682300  17.8253794
  25.0723481  17.8445816  16.8016052  15.5208516  13.4951127  32.6989245
  15.1087224  13.9258814  33.4478021  15.9198630  12.7063155  33.0661035
   9.7525970   6.2638794  41.3910454   8.8223831   6.3997923  41.5712183
   9.8947803   6.6783510  40.5400294   1.8342082  28.8471460  21.9991112
   1.8792349  29.0019202  21.0555792   0.9520433  29.1251111  22.2455907
  89.0405329  87.5573856  49.5737171  89.2645081  88.1121130  50.3209448
  89.0119572  86.6708750  49.9336004  47.8181601  35.1560640  54.1879177
  47.7487278  34.2821836  54.5722914  47.5186491  35.7463384  54.8793650
  20.1241326  16.1375082  49.3998194  19.4703138  15.5586982  49.0077305
  20.1529598  15.8773398  50.3205299  85.9099027  81.9248445  45.4612446
  85.6966849  82.4861557  46.2066984  86.3459106  82.5076408  44.8395729
   4.3304953  12.8372884  10.4653895   4.6005103  12.2221601   9.7835231
   5.0730634  12.8672338  11.0686529   7.2402889   8.3102697  36.3131738
   6.9837123   9.2267114  36.2105322   7.0960903   7.9230320  35.4497600
  72.2642192  90.0727231  21.0962152  72.8774100  89.3914551  21.3720822
  71.9125038  90.4239244  21.9142532   6.3229728  24.3511581  45.5496168
   6.9232875  24.4911027  44.8173094   6.4924812  25.0839376  46.1416721
  41.4566266  87.5103324  83.9375615  40.7360971  88.0421465  83.5995614
  42.2447032  87.9206341  83.5814437  12.0131576   6.5164679   8.6568630
  11.9194818   5.6469703   8.2677221  12.6254606   6.9725513   8.0795377
  24.4538045  38.2640791  29.8086452  24.7367978  39.0231347  29.2987633
  23.8505626  38.6238003  30.4589796  38.7643003  22.7413774  36.2178302
  37.9491544  22.3339415  35.9249735  39.3848753  22.5719857  35.5090117
  71.4010000  22.8469014  71.2832308  72.0673609  23.5000920  71.0698271
  70.6431103  23.0963182  70.7544327  47.3922825  40.8694458  29.5450163
  47.8481722  41.0146523  28.7159729  47.0527554  41.7314005  29.7858214
  56.1822510  53.9960289  31.1057901  55.8420658  54.8593664  30.8709431
  56.1368752  53.4916449  30.2935266  72.2104454  21.7227602  41.8849850
  73.1303120  21.4729071  41.9724560  71.7890167  21.3618636  42.6649761
 107.4136003  88.0123860  35.4149389 106.6562351  88.1129868  34.8383021
 107.5913914  88.8973732  35.7334042  55.8663845  33.7711430  23.2289481
  56.1873293  32.8872561  23.4077454  55.2033710  33.9258790  23.9017820
  46.1553812  22.9354167  36.7466545  46.1131859  22.0259356  36.4511943
  45.8343172  22.9095626  37.6480341  34.7151470  20.9448433  37.0402813
  34.8378754  21.1029363  37.9763246  35.5397630  20.5524063  36.7535186
  61.1392927  20.5923676  12.8532791  61.8758631  20.5397964  13.4623194
  60.5639505  21.2580991  13.2301319  37.4457644  88.0542510  82.7946108
  38.1871359  88.6597198  82.7919244  37.5169965  87.5920861  83.6298123
  13.8895321  21.7574906  28.9786029  14.1200447  22.0013475  28.0821490
  12.9346263  21.8181133  29.0052915  31.3676667  39.2534471  34.8067451
  30.9781623  39.9456382  34.2725253  32.0940852  39.6810460  35.2602935
  13.6762992  82.1102054  30.8650708  13.9368049  83.0137152  30.6860757
  13.2114164  81.8340237  30.0752354  46.2228060  24.9892282   4.6113977
  46.3918114  25.4426575   3.7855220  45.3956223  24.5296001   4.4673735
  12.1783876  29.9092793  28.6035490  11.6319788  29.3360472  28.0658913
  12.9143238  29.3580985  28.8696861  27.9486227  30.7100201  37.0990252
  28.6560726  30.8449769  36.4685225  27.8261232  29.7609711  37.1220517
  60.9090710  17.4486291  16.9592297  61.3552952  18.2055306  16.5794754
  61.2551737  17.3884284  17.8496349  20.9244537  47.8877354  12.1653867
  20.3816772  47.1037960  12.2494030  21.6406965  47.6224470  11.5884566
  34.9724770  41.5279102  26.9594216  35.7596207  41.8800020  27.3749542
  34.7812724  42.1414471  26.2500238  33.5290194   8.9225513  30.0190091
  32.9020810   8.4280866  30.5469155  34.3747258   8.5162205  30.2084947
  22.3878264  35.4041123  18.9495838  22.4906826  34.8548317  18.1724453
  22.4371338  34.7919512  19.6837902  36.9910693  35.0058198   4.0023899
  36.3304019  34.5706606   3.4635115  37.6130652  34.3130469   4.2246929
  51.3810929  67.5659586   3.6438066  51.5691098  68.2272114   2.9777605
  50.7494648  66.9794895   3.2274801  84.8089071  98.6169786  16.9487631
  85.5383857  99.0310813  16.4876640  84.0700003  99.2091412  16.8087935
 105.7541600   7.1969408  26.6166806 106.2606848   7.4357122  27.3929882
 105.9347078   6.2654918  26.4900446  57.4899864   9.7201937  24.1100645
  58.2261944  10.0554109  23.5983443  57.7248526   9.9077511  25.0188518
  55.0861979  35.2944350  27.7612925  55.7614851  34.7222137  28.1256866
  55.0413561  35.0530148  26.8361211  17.8274751  39.3595958  48.2108498
  18.3849072  38.8978028  47.5845480  17.0276356  38.8353515  48.2515574
  31.7381167  27.5945592  11.5549994  32.4554133  27.1973729  12.0489252
  32.1416140  27.8819251  10.7359493  57.6474794 100.5940635  39.4773459
  57.2961875 101.3807562  39.8944092  57.6115020  99.9244561  40.1604033
  24.9209809  20.6131530  32.2725058  25.2848053  20.7417631  33.1484747
  24.8242879  21.4982104  31.9210005  24.9705100  29.8268867  48.8323641
  24.6365666  30.3422236  49.5666265  25.5632854  29.1923285  49.2350817
  40.8297777  76.9828844  32.5976920  41.4738417  77.1104383  31.9011688
  40.4254484  76.1384869  32.3983312  21.0629368  27.5873399  23.6297250
  21.3763213  28.4544635  23.8868570  21.3864541  27.0027661  24.3151736
   5.3444558   6.5360922  43.7110806   6.0395169   6.6009057  44.3660021
   4.5608115   6.8511128  44.1615200  50.4790020  22.0496345  14.0522301
  50.3556681  22.5401187  13.2395518  51.2905169  22.3979998  14.4214308
   6.6740453  20.0616765  45.6036854   5.9592104  20.6216145  45.9065247
   7.4342328  20.6422329  45.5676031  17.7925360   4.7830218  17.2790873
  17.7128220   5.1969242  18.1384838  17.9108453   3.8528123  17.4712980
 100.6978301  54.3242693  67.2906208 101.1413107  54.3135548  66.4424229
 100.4611884  53.4103584  67.4487305  61.9795497  95.0773150  51.3892269
  61.1324807  94.9034715  50.9787607  62.3841157  95.7417435  50.8314705
  33.4582019  28.6257291  56.6874695  33.7429595  28.5238314  55.7793045
  32.8070951  27.9354501  56.8132067 102.9311117  94.9559063  53.5422754
 101.9747361  94.9894864  53.5210800 103.2080634  95.6138075  52.9045439
  42.8155462  94.7413529  15.1853848  43.6994640  94.9425627  15.4926884
  42.6531927  95.3781230  14.4893992  34.5178056  29.7290945  49.4867277
  33.7929153  30.3449273  49.3794060  34.9264812  29.6871972  48.6221647
  72.0347166  78.2701510  68.8126510  71.9356060  79.0221828  68.2288223
  72.0245027  78.6469977  69.6924883  38.6752415   6.9700688  35.6781030
  38.8747859   7.5684899  34.9581671  37.7847600   6.6681933  35.4988098
   9.6067039  95.3659607  62.0637703   9.0890543  94.8597658  62.6898956
   9.3818084  96.2777741  62.2488403  23.7168765  13.5410869  64.2080641
  23.7205052  12.6562905  63.8428879  23.0057955  13.9871466  63.7480354
  46.6056585  23.4760022   7.0907563  47.1442699  24.0545869   6.5509647
  46.0892200  22.9730225   6.4610457  55.3539133   2.3058124  40.1839876
  55.3269100   2.5578338  41.1070204  54.9727535   3.0517337  39.7207928
  17.1094298  28.4500861  48.8456297  17.6992798  27.8511977  48.3877659
  16.7299521  28.9895129  48.1519127  60.2350140  15.0087810   2.1913013
  59.5631218  15.2638626   2.8235441  61.0093117  15.5086052   2.4498847
  91.4998539  80.9487421  35.9802032  92.3755916  81.3306553  36.0390186
  91.5718706  80.1124556  36.4402771  20.1838326  24.7275901  66.8286324
  20.9153724  24.7642899  67.4448538  19.4923735  25.2405953  67.2468901
  82.2761885  15.5580437  20.3385925  83.1514136  15.8956885  20.5288744
  82.3286239  15.2537131  19.4325757  33.0199289  37.0516849   5.5485839
  32.3228431  37.6838374   5.7237649  33.5308671  37.4480176   4.8428255
  60.5007982  13.7319589   4.8916361  60.7138109  13.3442688   4.0427816
  61.3038540  13.6413944   5.4046011  35.6984520  21.0043311  13.0052960
  35.7637477  20.0504971  13.0518675  36.3280320  21.3194513  13.6538017
  22.1342921  20.8066869  33.4928489  21.2602925  20.9324598  33.1233382
  22.6061630  20.3065443  32.8269458  59.2003632  18.2183421  52.9281616
  58.6304283  17.8552008  52.2502756  59.7776604  18.8203299  52.4585152
  59.6544695  66.6007369  86.4163942  60.2919245  66.8375152  85.7427340
  59.0505957  67.3428183  86.4461225  53.7061024  67.6546865  84.5576703
  53.3678984  67.1569961  85.3020858  53.5758710  67.0779269  83.8049286
  23.7937593  12.3473096  36.6160274  24.3218660  13.1383049  36.5080333
  24.4012785  11.6282010  36.4427185  10.8249307  45.5099916  18.5587430
  11.4669812  45.3796387  19.2566049  10.1440990  46.0517120  18.9577937
  40.3842306   4.6964782  18.8389277  39.9886394   4.4148728  18.0140412
  41.1833382   5.1539594  18.5774505  18.6713636  45.3688574   0.9515882
  19.6251130  45.4151201   0.8848568  18.4045911  44.8342896   0.2037221
   0.7151854  13.9012551  15.6298530   0.4690733  13.0299056  15.3193521
   0.0923226  14.0901959  16.3316905  63.0390048  91.4064305  82.7223873
  63.2309246  91.9294828  83.5007286  62.0869160  91.3078635  82.7288371
  85.5120270   4.3115425  16.6886520  85.7153384   5.1823938  16.3473094
  86.3603060   3.8713723  16.7425644  89.4306151   9.6720213   9.6706086
  89.7533504  10.3164279  10.3005397  89.7455386   8.8320673  10.0045729
  69.2244291  24.8486900  35.4491591  69.2367268  24.1639328  34.7804379
  68.2966995  24.9687505  35.6519914  61.5616202  58.6748444  83.8737887
  60.8805346  58.1464886  83.4576234  61.3382959  59.5770174  83.6447856
  24.2236042   9.3111151  42.7634573  24.6697235   9.0407145  41.9609022
  24.5765376   8.7332356  43.4400082  46.8402815   6.5134895  45.4012299
  47.7516460   6.2229335  45.4361439  46.7624140   6.9567949  44.5564556
   6.1609179  47.0079279   6.1309582   6.5112829  47.1260405   7.0138657
   6.3620877  46.0977888   5.9132171  30.2910566  34.2630601  15.9892213
  30.8367682  33.6032557  16.4171100  30.5420732  34.2197704  15.0665355
  32.7537107  23.4444690  19.0927005  32.9786968  23.8377237  18.2495141
  32.2945333  22.6360393  18.8650334  11.0997522  34.6601558  24.0458870
  10.9950840  33.9872479  24.7185469  12.0471168  34.7609782  23.9533329
  25.1421571  10.4970169  34.5195866  24.6031857  10.1666498  35.2383351
  25.2874708   9.7347283  33.9592028  18.9620733  46.0435820  25.8847666
  19.7539914  45.5575705  26.1147380  18.2524049  45.5578327  26.3050628
  29.2602110  36.1865950  33.6038017  29.2469859  35.9455824  32.6775360
  30.1116943  36.6051912  33.7302351  40.6828022  31.6663718  69.0876579
  41.5672874  31.6139603  68.7254906  40.7450962  31.2279487  69.9362659
   2.6279783  13.2757163  27.1054339   2.9656437  13.4987855  27.9728746
   2.5188464  12.3250270  27.1280956  60.6222010  27.8639436  45.0466681
  59.8791075  28.4525299  44.9139643  60.8073950  27.5119448  44.1760159
  24.6978569  31.3404584  28.9915824  23.8389730  31.0232520  29.2707372
  24.5405436  32.2418571  28.7105703 100.3320654  90.8075697   5.4932570
 100.9533127  90.2070469   5.0813621  99.5123370  90.6661458   5.0196809
  34.1147447   1.8892996  55.2493382  33.9918566   2.8317076  55.1353312
  34.9527717   1.8104431  55.7051086  74.2246961  98.7094348  79.2766362
  74.2252469  98.4204333  80.1891660  74.5095491  99.6224874  79.3143934
  83.3906237  22.7932024  78.9713430  83.3649651  22.8692412  78.0175161
  84.1138593  23.3609343  79.2375088  60.0139093  34.4801974  28.3070636
  60.6148434  34.4613576  29.0518785  59.4684219  35.2519655  28.4588885
   0.0641596  12.8003550  66.2295151   0.3625468  12.9243481  67.1305275
   0.5029160  13.4922588  65.7345438  22.5452185  48.5630989  38.7518597
  22.8879356  47.6769829  38.6353660  23.2844996  49.1349220  38.5451865
  66.3486195  54.1738272  32.1074200  66.3872337  55.0703239  32.4406409
  65.5676746  53.8000154  32.5156140 107.0642953   3.2175133  59.0986395
 107.6619782   3.9294028  58.8701200 106.9004595   3.3334523  60.0345564
   8.4162605  24.1986966  27.5013471   8.5569131  24.3546319  26.5674663
   8.6065680  23.2681561  27.6201248  40.5282354  42.4166012  34.7117567
  40.9299231  42.5767708  33.8578129  41.0328722  41.6922474  35.0817418
  70.6339240  65.7524639  77.8159398  70.1821804  65.9418493  78.6383110
  70.2610564  66.3727575  77.1894902   9.9136502  20.1018834  39.1230392
   9.4447488  20.4502058  38.3647275   9.3173945  20.2423024  39.8585629
  36.6495085  20.2722502  27.1351886  36.9509649  19.3712080  27.2512817
  36.0573316  20.2318168  26.3842416  17.3958755  28.3334994  33.2036328
  18.2742357  28.0889297  32.9122519  17.4141169  29.2897224  33.2428265
  34.0228677  20.8530116  46.9503260  33.7162614  20.2335358  46.2881517
  34.0950179  21.6858315  46.4840221  96.5163477  95.5170936  52.0009375
  96.3565334  94.5831502  52.1367359  96.2513741  95.9275926  52.8240490
  63.6401558   7.8023571  31.3758516  64.0594006   8.4694844  30.8323383
  64.3638325   7.3835444  31.8418145 106.3492638  74.7164917  44.5539427
 106.3573396  75.4754639  43.9707375 107.2456032  74.3819523  44.5240974
  54.5813060  58.9708888  84.5492360  54.2605030  59.7873902  84.9321758
  55.4027116  58.7972146  85.0089782  28.1853795  49.0638161  19.2498326
  28.8182211  48.3459234  19.2692351  27.6408243  48.8824224  18.4838116
   4.9831241  15.9354746  26.1020708   4.7324574  16.7385590  25.6455040
   4.1524217  15.5452502  26.3738990  49.6450329  27.8551531  14.5741165
  49.6620750  28.6865902  15.0480938  49.4619846  28.1002259  13.6671066
  45.9039402  13.3430541  18.4017122  45.5444717  13.2363617  19.2824101
  45.5193186  12.6260388  17.8975427  93.0022724 101.1857989  64.5468426
  93.4111627 101.0959379  63.6860466  93.6133440 100.7597456  65.1479244
  31.3338065  39.0986872   2.5066894  31.9544101  39.4373965   1.8614304
  31.5059972  38.1574869   2.5335458   6.4640808  24.4083977  40.0166607
   6.5777975  25.3587747  40.0076580   6.6556084  24.1357470  39.1193247
  24.1223097  26.6256738  35.4392672  23.2837939  26.4700532  35.8738995
  23.8906980  26.7979288  34.5266247  10.5753934  34.1570163  42.7902985
   9.6444523  34.2642164  42.5951338  10.8761311  35.0377226  43.0142355
   5.4738657  94.4160009  25.0320816   6.3220636  94.1296912  25.3709221
   5.2519123  93.7679500  24.3635011  43.6433220  15.9891760  39.5779872
  43.8490343  16.3426292  38.7125468  42.6937914  15.8686757  39.5679832
  78.7443354  99.9590398  36.9237876  78.6065539  99.1676296  37.4442840
  79.4246211 100.4401527  37.3949289  10.7429481  49.7344398  68.7667370
  10.9858418  48.9547014  68.2674980  10.2088547  49.4006014  69.4875193
  39.4047785  57.6020098  32.8416395  39.7711778  58.0465937  32.0772266
  39.7823119  58.0631113  33.5906959  14.7975874  16.1805391  12.1764314
  14.7272837  15.2272832  12.1255195  13.8955712  16.4817464  12.2853971
  36.5280342  36.7185974  57.0037746  35.7236457  36.9956517  56.5651035
  37.1775460  36.6666460  56.3025856  25.0973344   2.0800391  47.4873829
  24.2449689   1.7343281  47.2224569  25.6967258   1.7934237  46.7983150
  10.1446021   8.4137857   9.2007405   9.8198575   8.8359529   8.4054124
  10.8849430   7.8837931   8.9053828  13.8774860  52.1883154  21.5685487
  14.0064037  51.3143301  21.2000871  12.9654872  52.1935797  21.8591762
  76.6256857  91.7304175  77.1322292  76.5207863  91.2850707  77.9730004
  76.6747713  92.6593822  77.3577350  30.4154348  52.5344753  37.8820705
  30.4972434  52.8627586  38.7774873  31.2754846  52.1643686  37.6831460
  31.7794061  30.6818175  55.6894159  31.0230470  30.6523848  56.2753296
  32.3630238  29.9975610  56.0171556  31.2919164  58.9673185  38.5698152
  31.9982505  59.2435217  37.9858351  31.7024326  58.9119625  39.4327426
  50.9401274  32.5023770  34.2351079  50.8233833  32.5398016  33.2857919
  51.7767286  32.0532584  34.3560219  22.2093956  99.5053989  52.6880503
  21.5963832 100.1467077  52.3286533  23.0725042  99.8955231  52.5499105
  24.6681643   7.9620433  23.4568334  24.1534090   8.7690490  23.4557414
  24.0843725   7.3050678  23.0776167  52.8285313  17.9571581  51.6803694
  52.4422264  17.8049779  52.5428295  53.4157181  17.2132063  51.5462828
 105.6359239   3.1350139  31.4667845 105.3971760   3.0493146  32.3897600
 104.8172553   3.3665013  31.0281181  52.5547028  31.8332338  22.5196314
  52.6853848  32.4419808  23.2466674  51.6718292  32.0243096  22.2029972
  40.9330034  32.1484637  30.5034018  41.5252542  31.6135097  29.9749136
  40.2127647  31.5589166  30.7268333  11.7279780  21.2571812  19.7959495
  11.5749991  21.6277313  18.9267421  11.3221800  21.8816066  20.3973246
  24.4717399  86.4934117   3.5810435  24.1441289  85.6913001   3.1742033
  24.2101470  86.4205248   4.4989142  37.6472306  21.5315843   4.1146621
  38.0144191  21.8356943   3.2846490  37.9704213  20.6351781   4.2054161
  61.1662245  83.7141150  85.2953434  61.8994713  84.3293827  85.2901709
  61.1620331  83.3539456  86.1821872  58.0102444  36.9707370  15.3841972
  57.3107958  36.8393254  16.0243022  58.5923529  37.6109099  15.7935393
  58.8963127  43.0275488  26.7366719  59.0774584  42.2913694  27.3210144
  59.3486595  42.8045177  25.9231186  33.8066459  32.6415944  16.1502910
  33.5795379  32.2842360  15.2918339  34.6952081  32.3254752  16.3138735
  21.7575550  41.3248587   9.6318787  22.5500989  41.2437010   9.1012955
  22.0092463  40.9874296  10.4915428  18.1310964  29.4245195  12.3972678
  19.0714645  29.3006778  12.5261223  18.0566955  30.2879596  11.9908619
  30.8424377  24.9972677  31.4788222  31.3667750  25.5485773  32.0596480
  30.7475376  24.1715240  31.9535589  18.7302077  14.5673490  67.9782391
  18.2390106  13.7462723  68.0063725  19.0712011  14.6730053  68.8663769
  78.4334036  98.5570551  27.9419994  78.6394819  98.3909781  27.0221162
  79.2202457  98.2880402  28.4160686  60.4632711  32.8682518  41.6702700
  60.8514357  32.1572852  42.1802521  59.5482254  32.8919339  41.9502068
   1.3923095  38.7932253  35.6658149   2.1866712  38.2877207  35.4935122
   1.5091300  39.1271710  36.5552330  32.1893406  22.6573253   9.3707901
  33.1073594  22.9260087   9.4065559  31.7160439  23.3623767   9.8125207
  11.2490273  40.3248882  44.6288204  11.0845578  40.9951496  45.2920914
  10.8196378  40.6574488  43.8406229  77.0715904  66.5046024  22.0952940
  77.7622986  65.8488417  21.9997501  76.3511372  66.0342455  22.5147581
  96.0640649  14.2939377  24.4752884  96.3379494  14.2643106  23.5585880
  95.1923649  13.8985074  24.4777226  33.3111644  31.0737801  14.0238225
  34.2654848  31.0460973  13.9549983  33.0716848  30.2176476  14.3786752
  25.2127481  11.6767251  18.1009877  24.4764853  11.8121350  17.5044870
  24.8071265  11.5664530  18.9609563  65.0655699  54.7493478  84.0965235
  65.1224327  54.8268052  83.1441587  65.1342416  55.6495505  84.4145664
  44.1001987  18.4883201  18.5702300  43.5825300  19.2871499  18.6708426
  45.0069666  18.7931192  18.5370409  95.4875382  90.0883371  46.4125490
  94.5882686  90.1702530  46.7300987  95.7041987  89.1650540  46.5423155
  14.8745823  16.4460874   9.4421315  14.3642998  15.6764412   9.1901618
  15.0192833  16.3402021  10.3823876  93.5501293  35.7780743  50.4666328
  93.4409789  36.5835905  49.9611998  94.2713038  35.3202081  50.0347757
  46.6116992  74.7142989  16.8852139  46.7631904  75.1882441  17.7029288
  47.4247066  74.2323882  16.7335343  54.9517775  41.9429111  25.9950924
  55.5343914  41.3292027  25.5477071  54.3630695  42.2576714  25.3091025
  41.3292885  28.1779432  27.8866029  41.0458326  28.8886571  28.4617281
  42.2450256  28.3777642  27.6923728  51.6500282  22.6357484  48.3082247
  50.9737444  22.1312189  48.7602425  51.2206745  23.4598231  48.0784655
  35.2314448   3.8438269  37.7632856  35.1304245   3.2213318  37.0431995
  34.8232985   4.6483907  37.4434018  19.9023128  55.0453472  21.6634941
  20.6021214  54.4304800  21.8835855  19.9118674  55.6842089  22.3762321
   7.2643608  25.7953954  24.1829300   7.2588331  26.7430472  24.0481734
   6.9293761  25.4347754  23.3619738  35.1910090   9.7784197  10.9374642
  34.4497705  10.1081538  10.4294550  35.7289457   9.3095231  10.2995050
  30.3529254  96.3652528  20.8699346  30.8892910  96.3237024  21.6616535
  29.5622913  96.8320794  21.1404896  24.2964029   6.4102501   6.7799079
  24.3631387   5.5330318   6.4027262  25.0905609   6.5059704   7.3056287
  54.5902729   7.5352764  47.5855970  53.7754917   7.9767787  47.3459291
  54.5091534   6.6602802  47.2060823  79.8941239  86.9673104  32.2750378
  79.7813698  87.9055757  32.1227980  79.3940594  86.5491397  31.5741086
  41.4564228  13.1322229  44.8791742  41.4686823  12.6341939  44.0618277
  40.9894133  12.5686669  45.4960537 100.9469684  70.9276301   9.1285282
 100.2539976  70.2769167   9.2407501 101.6093286  70.6862480   9.7760212
  28.4534335  13.8867533  22.1161199  28.4840608  14.4088173  21.3144064
  28.2281399  13.0050564  21.8193269  35.4952478  53.7930489  38.2770681
  35.9157467  53.2552576  38.9480305  36.1907148  54.3706036  37.9624486
  29.7370791  27.9930830  51.7680407  30.2744079  28.5928607  52.2855139
  29.3651104  27.3893571  52.4109888  31.6461555 100.2750243  36.8988085
  31.9360200  99.9769644  37.7609992  30.7017271 100.1191977  36.8965459
  13.9706886  25.5048418  40.9668446  14.0859818  25.0182104  40.1506758
  13.0812836  25.2916431  41.2492228  39.3358779  21.0949636  28.8649797
  38.4184599  21.2465715  29.0921187  39.3252587  20.9314013  27.9219198
  62.6152086   7.6319349  62.7183294  63.2388115   7.3781091  62.0379448
  63.1616735   7.9416972  63.4405899  27.3080516  21.6698766  47.9517174
  27.3485136  20.7772684  47.6084280  28.2230258  21.9437981  48.0151510
  39.6809936  57.3095846  51.0707951  38.8862467  56.8166542  50.8667660
  40.0997734  57.4509239  50.2217484 100.1268967  94.3016935  57.5020885
 100.3329118  94.5511771  58.4029484  99.6540936  95.0545312  57.1472263
  40.2605820  36.0244513  49.3565083  40.7900000  35.7809186  50.1158810
  40.3071737  36.9801092  49.3286037  27.7698517  26.4924121  20.9586859
  27.7019811  25.6643176  20.4834104  27.9422569  26.2352896  21.8644428
  98.7373136  24.2544127  23.8053799  98.6130784  24.5319724  22.8977704
  99.5491521  23.7474942  23.7918282  22.6319265  33.9437771  21.1128926
  22.2217870  34.5447278  21.7348862  22.6331139  33.0984020  21.5618587
  34.1133094  19.3941629  16.1271572  34.0953398  18.4394836  16.0601068
  33.5493684  19.5924163  16.8747520  64.0192652  17.8063893  33.2109571
  63.9548159  18.4406304  32.4969435  63.2116365  17.9254937  33.7107420
  35.6162810  16.3966036  29.8366046  34.7139239  16.5093613  29.5378232
  35.7615638  15.4509175  29.8082542  45.5932236  10.1521420  26.7778373
  45.7182503   9.9288565  25.8554792  46.3122463  10.7511711  26.9788480
  56.3073492  44.5251369  26.1811662  57.1758080  44.1897821  26.4037561
  55.7374382  43.7569427  26.2173915  66.8814135  19.6928799  21.6949677
  67.3647451  19.7864842  20.8740759  66.0844564  20.2065206  21.5635777
   7.0602322  45.2619886  59.5260096   7.3105174  44.8656750  58.6914301
   6.1634266  44.9619818  59.6742296  15.6610322  43.9411783  50.5423594
  16.5191102  43.7700796  50.9305048  15.0665104  43.3514738  51.0060596
  37.2409368  21.5051675  22.0709825  36.4863086  21.3075995  21.5162444
  37.5400829  20.6506348  22.3816609  32.8495216  32.5357485  61.9313765
  31.9211125  32.7613759  61.9895124  33.1390548  32.9237795  61.1056423
 102.8797589  69.8782682  24.3439555 103.8311217  69.8356676  24.2473865
 102.6462976  69.0585613  24.7796273  75.1126002  81.4049704   5.4001856
  74.2844110  81.7359979   5.7476848  75.6489690  82.1875531   5.2732766
  28.6079001  17.7408373  29.7616124  28.0061865  16.9990563  29.6988702
  28.0520630  18.4798765  30.0087905  28.0402517  24.9051476  25.7760167
  27.1926093  25.0252557  26.2041664  28.6681223  25.3207803  26.3669991
  35.4975462  33.9940882  31.4660954  34.6512461  34.0137315  31.9128847
  36.1421895  34.0039515  32.1736026  19.3903629  47.0151840  87.9963496
  19.0094892  47.7209984  88.5188475  18.8111393  46.9391285  87.2380962
 106.5682101  40.7750034  33.0179024 105.6845982  40.8669710  33.3742762
 106.7070368  39.8295259  32.9628038  35.6463790  88.6964703   6.0877585
  34.7017384  88.7922955   5.9664989  35.7333541  88.1478882   6.8673229
  40.6448555  48.2488871  18.5502923  39.6881342  48.2551003  18.5206652
  40.8567524  47.7548504  19.3422914  21.2962532  38.0618954  21.9655371
  20.7094193  37.8597689  22.6942372  21.8707395  38.7486315  22.3040485
  52.5357056  70.6438225  87.5845138  52.5187611  71.3923042  88.1809376
  52.9495096  69.9441462  88.0899354  50.8196211  78.5468340  14.4001532
  49.9253225  78.5566139  14.0590262  50.7932043  77.9205227  15.1235247
  60.2392673  21.4183879  16.2990129  60.0876951  21.8795705  17.1239793
  59.8669910  21.9939876  15.6309342  97.0180981  55.4632998  55.1728296
  97.5580780  55.0451469  55.8435011  97.5757126  55.4842567  54.3951035
  43.6547804  11.6349912  41.8435335  42.8303051  11.9211650  41.4503670
  44.1713095  12.4365377  41.9268990  42.6738787  45.4647923  30.2274656
  42.9610682  46.2350082  30.7178903  43.4349012  45.2179909  29.7019458
  75.1351142  80.3274315  64.0729278  75.5578923  80.5839842  64.8924845
  74.9562383  79.3929809  64.1779846  60.9597111  34.5967817  30.9761667
  61.0183239  33.6458254  30.8840990  60.5539989  34.7299194  31.8328476
  27.1479702  50.5830622  28.9620543  27.9776764  50.2507496  28.6194372
  26.8056321  49.8668146  29.4968700  20.1790118  32.5802636  23.6599398
  20.7883191  33.2700992  23.9228153  19.3264186  33.0140233  23.6257291
  96.4048099  86.1786550  85.5247503  96.2657928  87.0337408  85.1176473
  97.2793579  86.2359517  85.9096083  10.5671799  28.4923983  26.5773296
  10.4069293  27.7249980  27.1265531   9.7697920  29.0156865  26.6584063
  58.3010626  15.7972109  46.4450693  58.7352848  16.4793932  46.9572306
  58.1887913  15.0715768  47.0591402  85.7288333   1.5707432  84.1792541
  85.1816936   2.2259079  83.7460959  85.6939205   1.8048512  85.1067275
   1.3859693  84.4588215  22.6307344   1.5519587  83.6991448  23.1889200
   1.6586176  84.1782827  21.7571259  55.6180573  46.8398809  11.2578285
  55.7982254  46.4613676  12.1183515  55.5836630  46.0871601  10.6675196
  70.2798223  17.8828764  44.6956444  70.2672100  17.9839146  45.6474113
  70.3307295  18.7780082  44.3604136  54.5372915  26.2160277  51.6421270
  55.0595379  26.2412786  52.4439096  55.1452637  25.9083462  50.9698677
  47.7438641  38.1591415  22.5779295  48.4160185  38.7587857  22.2541022
  47.0846748  38.7293744  22.9735756  50.5186510  28.2199097  29.6620178
  49.6989584  28.3842254  29.1958261  51.1960459  28.5803533  29.0897894
  12.7841274   6.9988476  80.3602999  13.6065332   7.2929751  79.9686742
  12.2051040   6.8445383  79.6138751  46.5860367  46.6255522  15.3806925
  46.6624117  46.2172747  14.5183074  45.6715250  46.9031143  15.4341388
  78.4306874  81.9583578  39.3018794  77.9349693  82.4424035  38.6414289
  78.5575642  82.5857396  40.0135851  13.2406676  27.0361543  12.3896265
  13.6357152  27.8873277  12.5785065  13.8147748  26.6467023  11.7301118
  28.9046216  51.2152863  33.6758780  29.1932178  50.7237101  32.9069185
  29.6929669  51.6621065  33.9842534  61.6215038  37.1350455  27.4804020
  62.2942257  37.0180845  28.1512189  61.8197966  36.4677358  26.8234324
  10.9237266  42.6921892   0.8402400  10.2360129  43.0214119   0.2615401
  11.0208726  41.7714787   0.5971674  17.2169983  24.9273252  23.6792111
  16.4743936  25.0295210  24.2744637  16.8186831  24.8222518  22.8151870
  32.6664678   4.4914661  65.6571454  32.4718801   4.3965374  66.5895384
  32.0416299   5.1472126  65.3476232   9.1639340  52.0977068  18.5567820
   9.8947406  52.0412350  17.9411805   9.5777184  52.1033049  19.4199061
  31.0307121   7.8088230  40.8401966  31.3964915   7.8650379  39.9574304
  30.4865479   7.0215082  40.8242893   4.8775351  55.0873852   1.2287118
   4.4615424  54.7162104   0.4506309   4.2153308  55.6710052   1.5989912
  46.5796995  82.2340965  20.6472397  45.6714106  82.3277378  20.9344244
  46.5326023  82.2599506  19.6915495  67.4599457  70.5934381  49.8000622
  67.3504019  69.7070837  49.4556618  67.5729656  70.4718351  50.7427549
  39.3065810   0.6201524   2.4016203  39.7198701   1.3279739   2.8960016
  38.8829947   0.0784905   3.0675092  64.2898178 101.0435670  70.0571173
  64.5209169 100.4393476  69.3516057  64.4420457 101.9131702  69.6871859
  54.2307472  53.6852455  17.0483518  53.5106802  53.2241344  16.6180944
  53.8345432  54.4904757  17.3813021  32.5857592  46.1065102  31.0395503
  32.8475595  45.8146477  30.1663327  31.8536925  46.7030621  30.8832264
  49.4139910  38.0195355  30.3798652  49.1360807  37.3451257  30.9996796
  50.0586796  38.5371447  30.8622408  14.6477997  32.8835559   6.9678020
  14.0555525  32.8795981   7.7197725  14.1718042  32.4100804   6.2855393
  46.8280458  65.3056717   3.0742326  46.4588070  66.1884403   3.0495152
  46.3578129  64.8691702   3.7845683  27.7962589  69.8235893  45.3597879
  27.4582076  70.7174969  45.4134655  28.0519462  69.7188473  44.4433355
  14.8008434  10.4730450  79.9346530  15.1290170  10.7304512  79.0730989
  15.2491323   9.6490799  80.1253307  24.4924045  62.9208040  20.0975847
  24.2152762  62.0480919  20.3765273  24.6385598  62.8359509  19.1554213
  37.7372241  50.3506899  33.5823870  37.2761321  50.3985167  34.4198442
  38.6612248  50.4500580  33.8116956  39.9012685  36.7428923  40.4324293
  40.2229643  37.6431489  40.4802418  40.3733444  36.2826872  41.1263943
  99.9592908  17.5160013  85.2682087 100.0253328  17.8117548  84.3602434
  99.0388187  17.2764145  85.3757152  55.8622074  48.9186382  22.0024276
  56.4884520  49.2628765  21.3655972  55.9294701  49.5128965  22.7497983
  53.7815523  56.6356230  17.1620464  53.0731535  56.4603949  16.5426075
  54.4476843  57.0861721  16.6429090  77.9825258  17.2985280  14.2049241
  78.7412071  16.8793404  13.7988257  77.9405117  18.1638134  13.7978053
  57.4480772  42.3816109  30.5921984  57.3531628  43.3147192  30.4010487
  58.0800104  42.0676947  29.9453998  17.4599600  53.1738424  59.2886448
  16.6873693  53.5183191  58.8406801  18.1741476  53.7465811  59.0091133
  54.3720865  35.9995055  44.5062256  54.5257330  35.6091166  45.3665876
  53.4189796  36.0254240  44.4217205  63.9036417  48.2667637  35.1053214
  64.2103386  47.3629904  35.1785541  62.9593945  48.2119179  35.2523708
   4.5315674  36.6984034  44.6893311   3.8106599  36.4124250  44.1283131
   4.4128934  37.6449561  44.7679758  35.5391121  80.8940506  22.4930429
  36.3540554  80.4948807  22.1884823  35.0273275  80.1616192  22.8363347
  26.5960399 101.6536956  21.4265513  26.0210983 101.0955406  20.9029675
  27.4798671 101.4206060  21.1423802  41.3149929   5.9228349  11.6389167
  40.5883598   5.3027302  11.5780067  41.5394878   5.9380966  12.5692928
  73.5805172   3.7089954  85.3447413  73.0121961   2.9613911  85.1594576
  73.3743559   3.9484488  86.2482854  53.0206013  41.0011053  16.2504804
  53.0781794  41.5120840  15.4431272  52.1667051  41.2292671  16.6179502
  57.3116636  11.2738788  30.3276277  56.5201902  11.7722332  30.1240635
  57.1647596  10.4169631  29.9271941   4.9423440  86.8922728  67.0948690
   4.3676789  86.2277215  66.7149085   4.5932420  87.0362442  67.9744333
  46.1197662  55.5557823  25.1560903  46.2854099  55.8589458  24.2634058
  46.9642210  55.6412029  25.5986142  67.9524279  57.7326965  14.7582674
  68.2032919  57.9222441  15.6623518  67.7672434  56.7935944  14.7529614
  30.9240317  32.9652691  22.2157454  30.7429028  32.7785540  21.2945724
  31.3137627  33.8395214  22.2107863  34.0103459  69.9214363  19.8107326
  33.8268399  68.9960194  19.6490061  34.4081616  70.2324009  18.9975429
  32.5070572  38.2158661  20.5684638  32.4221611  37.5406790  19.8953032
  32.7383780  39.0087223  20.0846219  34.3723989  43.6844349  37.8992653
  35.0632524  43.3570957  38.4752870  33.9617801  44.3922043  38.3959436
  30.5659533  31.0180879  24.6882677  30.7477546  31.8194318  24.1973209
  29.6180272  30.9046292  24.6190286   8.0293298  29.9741340  27.5123096
   8.0248773  29.3852687  28.2669282   7.1594769  29.8743391  27.1254921
  55.3183985  12.1723819  46.4513683  55.5073261  12.5338840  45.5854273
  54.6749401  11.4828444  46.2878752  38.8704872  23.8697028  56.3294554
  39.5973063  23.3169961  56.6166449  38.9823627  23.9389658  55.3813410
  36.3500714  51.6807175  43.0850410  35.5908465  52.2244501  43.2951927
  37.0886850  52.1328068  43.4928370  50.6129456  42.4797535  16.0564756
  51.0224485  43.2618570  15.6865299  50.0620222  42.8106308  16.7658663
  67.9075146  76.4303875  15.4028130  68.4345198  75.6380558  15.2993155
  68.4100723  76.9748497  16.0088074  58.4828329  13.1350744  13.1214952
  59.4389820  13.1541646  13.1620538  58.2784843  13.3115983  12.2031748
  49.9343014  42.8373384  22.3263979  49.7315788  41.9794130  22.6993632
  49.3094683  43.4323740  22.7408218  47.3338366  29.9578071  16.7637146
  46.4700413  30.2808690  16.5073514  47.8684473  30.7469702  16.8511486
  33.6756992  38.2912040  37.8602529  33.1179047  37.5269151  37.7154684
  33.0925012  38.9431763  38.2488990  37.8651619  54.3490267  29.2593098
  38.4753108  54.0360260  28.5914922  37.0486069  54.5032978  28.7842607
 106.0720642 100.5556738  36.9277453 105.4061230 101.0930678  37.3566532
 106.8808921 100.7550820  37.3991966  28.5963273  54.1807032  33.9076638
  28.7919664  53.2448196  33.9532852  29.4124818  54.6088791  34.1661024
  12.8845417  45.3550243  15.4771996  13.0865455  44.7514248  14.7622907
  13.3395207  44.9888706  16.2355900  52.0532942  48.9365005  34.7336221
  51.6990185  48.7160301  33.8721633  51.8211603  49.8565197  34.8597622
  22.7796745  33.3086848  47.9134178  23.2834220  32.6296997  47.4645853
  23.3444190  34.0811610  47.8894663  54.6687484  64.3179863  56.1731714
  54.6576416  64.5891111  57.0911044  53.8053489  64.5631986  55.8405393
  51.1116791  48.2561541  32.0862341  51.3780022  48.9828920  31.5230703
  51.9005775  47.7216530  32.1766591  45.0404358  33.9374542  25.0296474
  45.1489258  34.5329022  24.2880917  44.4742203  33.2411289  24.6968412
  37.2638488  30.2567506   4.6682596  36.9568586  30.4561019   3.7838113
  37.5927186  31.0916328   5.0015008  17.0905721  40.5187130  17.8970337
  16.1494648  40.6103706  18.0458581  17.4459684  40.2775574  18.7524688
  58.9220667  21.3011432  25.8645082  58.8825512  20.3472924  25.7949471
  58.4015179  21.6169238  25.1258993  46.9725704  18.7617707  28.0523634
  46.9194460  18.1679845  27.3034787  47.8830957  18.7017930  28.3414674
  55.2968311   7.2161847  34.9751377  55.4391956   8.0122995  35.4871559
  54.3709040   7.2484839  34.7346067  36.8391220  35.1817356  82.2992670
  36.2574283  35.8900772  82.5751525  37.0379678  35.3779446  81.3837385
   1.7444269   5.1440750  79.7269737   1.8392340   5.3498827  78.7969810
   1.7161886   5.9975229  80.1594811  66.4602089  38.1733131   4.2015913
  67.3385859  38.5111713   4.3763411  66.2004423  38.5940194   3.3819827
  47.1772861   2.3190811  53.1020880  46.3605356   2.0886752  53.5448790
  47.8617907   1.9205645  53.6395550  53.7912846  11.8243182  16.4419317
  54.5000505  12.1974432  15.9178507  53.2130575  11.4092791  15.8019054
  40.0460911  29.2755532  52.1847343  39.9202251  30.1883841  52.4438238
  40.0238848  29.2929006  51.2279463  56.2372255  15.5163193  14.3517768
  55.7303905  16.2656999  14.6644711  57.1280479  15.6847370  14.6588755
  19.8318458  46.2946415  65.8832884  18.9384401  45.9856415  65.7330275
  19.7238183  47.1800995  66.2304449  81.1642265  73.0957937  36.2341571
  81.7672062  73.6449242  35.7330561  81.1101913  72.2813559  35.7341552
  19.5231628  10.2527726  24.6194506  19.0556002   9.9256343  23.8509488
  19.4864178   9.5311826  25.2472973  54.4571257  28.8406205  10.3043199
  54.3398762  28.6394262   9.3758780  53.6017847  29.1618800  10.5896533
  78.0625846   5.9018360  83.7789240  77.9302551   5.2113281  84.4284808
  77.1780552   6.1814915  83.5430628  55.0563478  48.3011198  31.1925316
  55.8189249  47.9262590  31.6332030  55.3775311  48.5458803  30.3246808
  95.2601337  43.4767866  25.4224348  94.5063686  42.9358292  25.6578803
  95.5779743  43.1005001  24.6016932  57.3421478   1.3143113  16.5508306
  57.8211212   0.6216393  17.0058262  56.6273928   0.8588333  16.1059701
  77.6828718  27.7289963  12.9216743  78.2691002  27.6509309  13.6743164
  78.1979656  28.1968427  12.2643864  33.2601428  59.7335386  19.7635746
  32.7891922  58.9218044  19.9520671  34.0819001  59.6515894  20.2475500
  28.9889050  39.7927833  23.6367321  29.3607903  39.7447181  22.7560377
  28.6293507  40.6778431  23.6969209  23.5707784  21.0176992  42.6085138
  23.0738711  20.2441025  42.3423147  24.3768525  20.9732628  42.0942163
  47.5408220  14.7008765   8.4032333  46.6083670  14.9109614   8.3520436
  47.8926039  14.9637330   7.5527102  34.6139240  38.3286810  27.2659063
  34.8811078  39.2021561  26.9797444  33.6892223  38.2703328  27.0255876
  56.3787222  29.4739223  72.0568514  55.8264112  30.2248049  71.8392181
  55.7895899  28.8639355  72.5007772  28.2034373  59.3715191  37.6902175
  28.6491609  59.3031263  38.5345435  28.6299753  58.7143469  37.1402860
  48.1310034  42.0313120  27.1650672  48.3333015  41.6723442  26.3010931
  48.9400721  42.4620819  27.4408889  28.3297324  36.8933749  20.7220650
  27.9976201  36.3583589  21.4429593  28.1207180  36.3907480  19.9347210
  40.0860977  38.9984989  48.9648294  40.6607246  39.6210289  48.5193014
  39.2032409  39.3344855  48.8102007   6.9158030  44.7415972  53.3872032
   6.8397963  45.3937531  54.0837240   7.5907248  45.0905228  52.8049946
  48.6062479  54.9527121  17.9436946  49.0888643  54.3308401  18.4882951
  49.1477585  55.7420111  17.9441261  54.7591496  47.3097706  23.9005303
  54.6536255  47.8703690  24.6691823  54.8846817  47.9203892  23.1741571
  17.0704806  48.0283165  48.6671066  17.1905756  47.8884411  47.7278280
  17.9150951  47.7970791  49.0536165  63.6234808  38.2015944  22.3182750
  64.5515633  37.9718423  22.2723746  63.4182501  38.5442257  21.4483809
   6.6175133  40.9808540  17.7468252   7.1048546  40.4610109  18.3859587
   7.1623820  40.9652853  16.9599915  58.0076361  37.8096366  10.7003009
  58.9099360  37.5969601  10.9387410  58.0890322  38.3584476   9.9202931
  64.1461182  29.7128820  42.0488644  64.3193626  28.8751507  41.6194201
  63.3080769  29.5853353  42.4934483  48.3691549  43.3329153  18.9086640
  49.0302706  43.9291906  19.2602563  48.6565590  42.4641562  19.1895378
  32.4381995  32.6857758  41.8074656  33.1475830  32.9223585  41.2099409
  31.6451597  32.7508259  41.2754059  23.4032226  46.5232468  49.4915247
  23.5255718  47.4297523  49.2095518  23.8256645  46.4801645  50.3493834
  39.8604822  29.7585034  11.0054362  39.0409732  30.2203035  10.8282924
  40.2745152  30.2648735  11.7042899  33.4211135  62.1772623  37.7332115
  33.3452225  63.1267786  37.6389194  32.9704642  61.9813681  38.5546565
  45.2018118  54.4684744   6.8192333  45.6266069  54.6952391   7.6464915
  45.1505566  53.5127115   6.8304098   8.8660330  31.6977811  39.3947172
   9.2730409  31.1029005  40.0245523   8.2398438  32.2033644  39.9128914
  27.0326940   7.3979221  75.3128653  26.2268774   7.6003109  74.8375457
  27.6516525   8.0723225  75.0330227  36.6776109  21.8572807  34.0218186
  37.1146154  21.1669898  33.5230637  35.7634950  21.5771604  34.0682387
  60.7731962  62.1937704  30.6021047  60.0834942  62.7317667  30.2133918
  61.5850592  62.6528406  30.3867722   8.5585654  54.7171068  18.0094481
   8.8274783  53.8368607  18.2722867   7.8307021  54.5745230  17.4043727
  55.1410627   5.5507869  22.0092797  55.4763937   5.4571074  22.9009151
  54.3441629   6.0720438  22.1066236  79.3302727  32.3947811  26.7799664
  80.1803875  32.8068876  26.9339609  78.7942171  33.0881071  26.3950324
  81.0683250  17.9516327  18.7747848  80.1809883  18.2794607  18.9210188
  81.0305882  17.0323479  19.0388358  38.5723066  54.6309328   9.2164505
  39.2627215  55.2785635   9.3583429  39.0045881  53.7871695   9.3484670
  21.2002635  36.9703555  13.7309992  22.0703602  36.6480446  13.9661145
  20.5970001  36.3384748  14.1221869  39.7501016  34.6348715  35.2914262
  39.9468851  35.3729105  35.8683228  40.5939007  34.2027998  35.1589584
  42.8203821  21.0508013  31.0361218  43.4793949  21.0594106  31.7302847
  43.2117319  21.5622759  30.3279757  72.2481775  20.6589413   6.0779715
  72.4689722  20.1078868   6.8288511  72.5492573  21.5331411   6.3256717
  33.6740828  68.6282825   9.5422107  34.1665411  68.8086176  10.3429592
  34.1080284  67.8650379   9.1609174  48.0023336  11.6865742  27.9481554
  48.8306904  11.9811046  28.3267236  47.7077579  10.9870517  28.5313606
  16.6251699   1.9443594  66.5219539  17.4828044   2.0450150  66.1089676
  16.7275945   1.1935555  67.1067923 102.3008347   9.2658687  20.0195312
 101.6654873   8.7948048  20.5586600 101.8136024  10.0135303  19.6733618
  49.7995043  46.6432285   8.1246692  49.5836353  45.8383846   7.6536477
  49.6322823  47.3426437   7.4929357  29.6638417  32.2728205  44.8066044
  28.9770722  31.6828108  45.1171923  29.2847204  33.1475902  44.8919010
  28.8306790  89.5615523  76.1984890  29.2960930  88.8808292  75.7124442
  29.2072207  90.3823703  75.8811480  38.1632304  32.0032787  22.0456100
  37.9672050  32.7075434  22.6635242  37.7047849  32.2538495  21.2435651
  32.8520107  23.9884353  34.0584707  32.0118761  23.5924268  33.8269877
  32.7112341  24.9290657  33.9506245  10.0362265  63.3766508  31.3527966
  10.1024997  64.3138075  31.5360522   9.8622131  63.3281374  30.4127979
  31.6099167  34.9546170  49.8742771  30.6766009  35.0895309  50.0384521
  31.6492319  34.6154451  48.9800453  97.0926428  88.0484002  78.3215636
  98.0228329  87.8290790  78.2679349  97.0505905  88.7588518  78.9616585
  59.6480751  43.7481880  16.9165456  59.0390110  43.0109406  16.8748021
  59.8733759  43.8205099  17.8440356  16.3322711  39.9520731  45.1113176
  17.0576620  40.5761957  45.1339054  15.5771434  40.4723310  44.8368216
   0.2848957  44.3989849  11.2737298   0.8016174  43.7557983  11.7590535
   0.2874105  45.1775837  11.8305206  49.4634485  67.3015642  12.0458484
  49.9877834  67.4069548  11.2519968  49.7022676  68.0506277  12.5918293
  60.5434847  63.5726690  17.9454732  61.3326788  64.0523911  17.6939285
  60.7645559  63.1718922  18.7861514  23.8699412   6.2027580  26.8552971
  24.5966148   6.5936965  26.3701749  23.6497808   6.8531364  27.5222087
  41.1101866  27.9688740  22.3599720  40.2616119  27.5392747  22.4676585
  41.2981415  27.8967047  21.4241862  33.1636786  74.2087460  48.9140511
  33.2645607  73.3095741  48.6017275  34.0062451  74.4182634  49.3170643
  41.8836355  63.4380722  29.5702171  42.3015356  62.8414011  30.1911569
  41.7398357  64.2416811  30.0699830  53.1867361  41.3493204  21.4521313
  54.0593767  41.7204666  21.5824485  53.2973528  40.7225752  20.7371545
  48.4616041  13.8798380  64.6605730  48.5827065  13.0691612  65.1549101
  48.2723093  13.5901546  63.7681150  41.0854149  35.6935644  16.0665095
  41.0770512  35.9823084  16.9790816  42.0000315  35.4696560  15.8945155
  73.5296679  69.8805761  41.0280371  74.4485903  70.1482344  41.0150242
  73.1134415  70.4203272  40.3559828  42.3245382  64.6225405   0.4824945
  41.5855169  64.3634224   1.0328940  42.3125792  65.5794954   0.5004178
  68.5284042  45.8987379  24.8716855  68.8282824  45.0013494  24.7267938
  69.1853857  46.4436960  24.4385219  54.2698240  70.6146574  32.1507144
  53.8829899  70.8133745  33.0034161  53.8454151  69.8008585  31.8789673
  92.4061584  71.0218763  31.3985777  93.1001663  70.7447195  31.9967127
  92.0248604  70.2041960  31.0788202  98.3513347  53.7436962  31.2767434
  99.0762184  54.1431427  30.7958937  97.5730304  53.9683104  30.7668185
  13.3523786  49.6218109  20.6716347  13.3275819  48.7798309  20.2170062
  13.0463076  49.4250631  21.5569854  79.8356724  57.6166058  34.1410923
  79.1851854  57.4056673  33.4713125  79.3757105  58.1973982  34.7471833
  45.4448938  63.0641794  21.7561245  44.6346140  63.5172176  21.5228248
  46.1401367  63.6216593  21.4067149  81.8880177  77.3598003  42.9926014
  81.9799137  76.4973497  43.3975267  82.7290535  77.7890015  43.1497145
  29.4628755  21.3774668  78.6946320  30.1023189  20.6690203  78.7684065
  29.9772874  22.1769796  78.8059729  46.5328455  50.7138109  25.5694604
  45.6422424  50.9536123  25.8255029  46.4444733  50.3845787  24.6750164
  44.1001320  56.9064808  31.6240001  43.3502293  56.5681171  31.1347294
  44.1095161  56.3941622  32.4325013  25.8952618  46.6126490  14.8914886
  25.7594395  47.4742317  14.4972026  25.0224590  46.2204552  14.9165928
  76.3170099  72.4153709  27.8187990  75.4869556  72.8832674  27.9099917
  76.1081886  71.5100574  28.0490875  62.9097319  76.3656902  37.5870657
  62.7799511  75.6326199  38.1887269  62.1275091  76.3641214  37.0353794
  39.7822499  37.8575397  12.5127578  39.4777179  36.9673157  12.6888001
  39.0100622  38.4063292  12.6498330  24.6822977  76.8532658  29.9909997
  23.8204575  76.5612268  29.6940589  24.4948936  77.5309992  30.6404519
  67.1725559  57.0791578  40.6662464  67.2882986  56.4244318  41.3548470
  67.8708887  57.7153063  40.8207846  43.3779812  49.8394203  25.2192760
  43.8467646  49.8292494  24.3847871  42.5067520  50.1701069  25.0005555
  43.5935593  49.3415689  14.4736922  42.8436995  49.3021011  13.8800740
  43.5891628  48.4956980  14.9216974  68.6085701  61.3242674   2.5310963
  68.3015108  60.5900049   1.9993015  68.6451054  60.9760141   3.4219480
  65.9435034  32.1693611  29.1123772  65.5940962  32.1493578  28.2214499
  66.2269402  33.0749321  29.2382121  85.5783176  49.9746943  51.8540239
  84.7143459  50.1549911  51.4835119  86.1843395  50.1102066  51.1255932
  85.1347351  80.3628731  21.7000151  85.7624626  81.0730934  21.5666890
  85.6705761  79.5699358  21.7185426  66.9922256  56.2185478  44.6636534
  67.5512934  55.6684971  45.2123976  66.9940042  55.7855368  43.8100004
   4.1195957  28.6871372  83.0875569   3.5798065  28.6103331  82.3008162
   3.5485689  28.3973776  83.7990355  67.9604006  64.8229980  12.9758799
  67.4849939  64.1180944  13.4155715  68.8399601  64.4705105  12.8403771
  39.6685505  48.8778639   7.2856730  39.6893668  48.4636402   8.1483549
  39.2071939  49.7043896   7.4279141  43.3063698  41.8674803  16.8257511
  43.9278269  42.5064564  16.4768624  43.6931324  41.5850496  17.6545334
  59.5937681  80.9625244  10.5638015  59.0865707  81.7103481  10.2479732
  59.5240402  81.0113239  11.5172112   0.8411304   6.7895167  25.5315924
   0.1710073   6.1538451  25.2804232   1.6496126   6.4492743  25.1484060
  16.7781949  57.2474337  53.9162445  16.0750580  57.8959703  53.8811827
  16.3505781  56.4467287  54.2199659  58.0669928  28.5275841  16.1625707
  58.6426067  28.7257481  16.9012368  57.1869564  28.7195325  16.4864862
  63.0630922  61.1555290  14.7311127  63.0734396  60.5349445  14.0024173
  63.7420988  60.8375645  15.3261626  56.3876772  77.1108532  21.2779570
  55.7191706  76.8515348  20.6438565  57.2135735  76.8309450  20.8832645
  51.2199211  55.7806206  28.5870242  50.9922838  55.1059103  29.2266965
  50.8008242  55.4928780  27.7759767  50.4584217  46.8539524  18.2705510
  50.4402828  46.5999746  19.1932631  51.1833811  46.3519669  17.8981638
  67.3768187  62.3623180  20.0878406  67.3868179  63.2703876  19.7852790
  67.8558207  62.3806334  20.9163666   8.1814758  11.6572319  83.0568462
   7.5392524  11.7210756  83.7637421   7.6607887  11.7055451  82.2551095
  70.2653646  95.7977098  78.5496801  70.9752393  96.4294761  78.6645055
  69.5023107  96.3321727  78.3298343  62.1786547  73.7752867  33.0645490
  61.6512680  74.4497204  32.6364899  61.9118118  73.8097286  33.9831591
  70.9331036  69.7103214  27.2564936  71.6791821  69.4395733  27.7915573
  70.1994038  69.1936779  27.5896549  37.9742908  40.4154968  41.1800003
  38.2348108  40.3546286  40.2609491  38.6978006  40.0139189  41.6611433
  22.3170137  68.4506416  20.3186750  21.8079090  69.0043116  19.7266531
  23.2178879  68.5294199  20.0049043  73.5120869  51.9621181  28.8545227
  73.8390017  52.5846720  29.5039725  73.7508202  52.3478079  28.0116248
  55.9073257  36.0303593  17.2050118  55.7351255  36.5547729  17.9870415
  56.1342669  35.1639724  17.5428045  56.5710545  26.5722752  26.2978172
  56.1821079  25.7210350  26.4986730  56.9259596  26.4710426  25.4146242
  58.3289003  28.1673384  10.0749803  58.8097858  28.7965870   9.5373690
  57.8167582  28.7080932  10.6762493  76.3762760  90.3068924  12.7286899
  75.9312391  90.8172226  13.4052515  76.4077282  90.8902740  11.9704652
  52.7842569  29.4138956  28.3113837  52.7284861  30.1407671  27.6910782
  52.9818630  29.8297954  29.1505575  49.5239115  16.2020731  39.9890780
  50.3429413  16.1666024  40.4832077  49.1109228  17.0192075  40.2683020
  18.5057533  41.7365551  49.4557428  17.8379965  42.4130249  49.3429661
  18.3211184  41.1002254  48.7649250  29.6499944  72.9848957  10.9774351
  29.3839931  73.9026308  11.0343504  29.8278189  72.7304697  11.8829060
  69.7382927  63.2255793  30.1436114  68.8277483  62.9794788  29.9805951
  69.6809530  63.9866734  30.7212591  50.8655119  53.9205027  30.7622433
  50.4230213  53.0733490  30.8148527  51.3027620  54.0152884  31.6084456
  60.4367781  59.0614796  17.3631573  59.8333836  59.7650290  17.1240592
  60.0057650  58.2626724  17.0592332  12.8541720  69.2125463  39.7747421
  12.4799430  69.7888184  40.4411507  13.2491732  68.4962893  40.2719116
  32.4973178  14.1233587  12.9930317  32.8503132  13.5622489  13.6835253
  33.1968713  14.7516823  12.8139675  47.5643539  50.8619785  18.3115697
  46.9113064  50.1816559  18.1474888  48.2858372  50.6491804  17.7196109
  84.2010975  11.5325141  26.8585563  84.5818710  10.8474350  27.4080229
  84.0714169  11.1129332  26.0080481  46.7061853  38.6070991  19.3800521
  46.5288019  38.5109973  18.4443545  46.9878292  37.7365112  19.6610928
  66.1335802  60.2337122   4.7911546  65.9695148  61.1709690   4.8953626
  67.0676708  60.1749229   4.5905283   5.7880247  61.5436268   4.0357783
   5.1387471  62.2453213   3.9878732   6.3186759  61.7602539   4.8024040
  40.5421066  31.8689728  44.1368437  41.2855816  32.1578979  43.6076927
  40.4991579  32.5007033  44.8546934  44.9831772  53.0585003  25.3055000
  45.5112076  53.8355684  25.4887486  45.2005672  52.8287983  24.4020557
  58.5805845  66.0960913  15.8816576  58.4830427  66.8113041  15.2530158
  58.6845684  65.3137064  15.3400898  89.5160198  52.3867893   9.5898241
  89.0404606  51.5583754   9.6514755  88.8346577  53.0442238   9.4492972
  43.7276745  56.6718626  26.1226988  43.9491558  57.4609232  25.6281710
  44.3082523  55.9974098  25.7701683  74.6166992  60.9998703   1.6254300
  73.7415934  61.1405182   1.9868778  75.2040434  61.4336300   2.2443879
  65.7907486  59.9978113   8.5448241  64.9205351  60.3875208   8.4606218
  65.9742737  60.0222492   9.4839478  23.1838822  49.6873713   5.5670726
  22.2602224  49.6743011   5.3162467  23.4760904  48.7831354   5.4521710
  27.1584463  63.5041952   9.7686332  26.8035793  63.5886383   8.8836634
  27.1320653  64.3929625  10.1230752  54.7077799  32.3171091  11.2205672
  54.9026632  32.0704579  12.1246779  54.0829229  31.6565561  10.9214735
  64.7717333  54.5011902  40.5915165  65.4180241  54.8530149  39.9793434
  63.9371300  54.5783138  40.1292229  39.1946268  49.3163967  29.2028427
  40.1445436  49.3490887  29.3160844  38.8954616  50.1957798  29.4339657
  79.0560722  97.6017182  56.4325803  79.9826813  97.7969163  56.2928527
  78.9204359  97.7418845  57.3696965  59.0822649  65.5240822  26.0834503
  58.4100533  66.0734653  26.4866161  58.9399862  65.6234837  25.1421165
  78.8042259  63.2077742   7.6725936  78.1537628  62.9298735   8.3174986
  79.3031025  63.8939190   8.1159443  13.3797085  70.3527212  18.1822681
  13.7046170  70.6280422  19.0395105  14.1698456  70.2104664  17.6610410
  35.8410716  56.2658978  15.1100302  36.1253381  56.7288828  14.3219495
  35.1158905  56.7913389  15.4480481  66.9770622  47.8436995   7.0755672
  67.3192596  48.6874723   7.3708302  67.1827030  47.2390842   7.7885783
  31.4887142  31.7936301  17.2141171  32.4285603  31.8173766  17.0342374
  31.0824084  31.6963744  16.3529038  40.4874325  50.3522348   4.8251995
  40.1922464  49.8696184   5.5973256  41.2531137  50.8412123   5.1266360
  58.5687017  32.4127913  14.6156800  58.6369944  33.2196665  15.1260912
  58.8250065  31.7210937  15.2256763  80.3368759  62.7261305  48.2477283
  81.0566998  62.6765871  48.8767195  80.7076836  63.1870174  47.4951887
  23.2602453  58.8385010   4.2922053  22.6589918  59.5135117   3.9774194
  23.5567617  59.1600370   5.1436305   3.1252368  37.0535660  19.5306253
   3.9620670  37.0790982  19.0666306   2.8992732  36.1240959  19.5660424
  68.4175920  57.0757008  37.4619246  67.8776550  56.9802523  38.2465219
  69.1631746  57.6039314  37.7470732  76.2410402  81.3522243  20.3351045
  75.7848740  81.4749146  19.5025837  77.1533155  81.2004280  20.0882483
  23.2596731  72.5659466  11.9353962  22.5980544  72.0803308  11.4427805
  23.7439108  71.8929958  12.4138141  37.7040601  84.1253662   0.4934673
  38.5333061  83.9814854   0.9494100  37.6177692  83.3716679  -0.0902574
  32.1324325  56.1745214  26.8679786  32.8699780  56.6690016  27.2253942
  31.4002872  56.3836432  27.4480319  52.1651125  60.7969904  28.7141323
  51.7398643  61.4700508  28.1827331  51.8379116  59.9700737  28.3600402
  54.9552011  38.5610318  14.1849446  54.9001837  39.1007686  13.3963454
  55.4486656  37.7876186  13.9118934  57.4432373  47.0185518  41.1612797
  58.0039072  47.4875975  40.5433178  58.0072927  46.3369894  41.5267181
  14.5483486   1.9533484  12.2955191  13.8749782   2.6193946  12.4340737
  14.0720264   1.1233275  12.3159778  41.0197687  85.0621796  16.0983336
  40.6754541  85.7594109  15.5401647  41.9705343  85.1570988  16.0411370
   9.7348396  14.0116726  81.8716275   8.9155523  13.5208498  81.8076247
   9.7578756  14.3222891  82.7767342  66.6359377  62.0304871  32.6872540
  66.4344120  62.9378986  32.4587154  66.0546541  61.5092611  32.1334839
   3.4259931  13.6994778  75.4935342   2.5215832  13.9663683  75.6579929
   3.3569662  13.0195223  74.8233658  47.7565289  50.0292110  14.2866969
  47.2396803  49.8761320  13.4957063  48.2130432  49.2016745  14.4383907
  90.4180241  76.3674784   4.0856540  89.8302841  76.8986320   4.6229333
  91.1026287  76.9755411   3.8067290  90.0056553  55.2071762  24.7386646
  90.9424973  55.1440668  24.9246144  89.9205685  55.9950876  24.2018390
  53.5146379  56.7900801  27.5864244  52.9960632  57.2995138  26.9636941
  52.8656149  56.3603544  28.1435013  40.5939388  49.0662146  22.0112658
  40.8203936  49.6065474  21.2543035  40.3563499  48.2176971  21.6373682
  37.1215606  84.8951149   5.2926874  37.1889257  85.3881550   6.1103719
  37.3555923  85.5264568   4.6123472  29.6364737  62.9533195  14.5692766
  29.2781401  63.6215639  15.1534677  28.9864922  62.8718472  13.8713384
  66.0324526  60.4337835  38.3090997  65.7927799  61.3361549  38.0981016
  66.0120869  60.3979206  39.2654109  50.9170103  59.5915270  17.8792500
  51.5118551  59.9050617  17.1980083  50.7570267  60.3585434  18.4290934
  52.7644730  16.7565453  30.9534526  52.2282553  17.1532714  31.6399717
  53.6003494  17.2201610  31.0044694  85.5605125  58.7003231  30.8470297
  84.9881744  58.4647417  30.1168489  86.2460327  58.0323124  30.8392000
  81.0810947  62.6265669  43.0351257  81.4418316  62.4354506  42.1693420
  81.5190887  62.0073986  43.6190987  78.2197666  98.2491201  83.9825803
  77.6900196  98.7736219  84.5829928  79.0883970  98.6497634  84.0171545
  58.8416004  42.0928955   9.1781551  57.9608393  42.4622583   9.2419219
  59.4221592  42.8537655   9.1944265  70.6755161  68.1781387   4.0084124
  70.7396936  68.5074282   3.1119305  70.9997797  67.2789955   3.9570910
  63.2800245  65.5081224   4.0976244  62.5910711  66.1278963   4.3373278
  62.8103256  64.7532654   3.7429354  45.7533026  90.6772804  47.0106745
  45.8134222  91.2456131  46.2428093  45.3694057  89.8657703  46.6785479
  42.4874163  73.5192108  31.4079499  43.1102800  73.6725521  30.6974888
  42.4632502  72.5671434  31.5039730  34.3950653  52.0930481  35.1046419
  35.1391244  51.5077305  35.2460980  34.5132875  52.4194384  34.2126060
  56.0087395  69.0996361  14.2658973  55.3812885  68.5383558  14.7214234
  55.9855175  69.9258566  14.7486496  86.1390400  80.3581238   5.9190738
  85.7551575  79.4880056   6.0275620  86.6578865  80.4916000   6.7123026
  55.1600981  43.0313778   0.8169598  54.7044325  43.8144493   0.5080817
  54.4885921  42.3492527   0.8204874  62.5173140  57.6663351  31.4059210
  61.6536093  57.4179649  31.7354012  63.0063200  57.9250860  32.1870422
  31.1163378  41.0910320   8.9743459  30.2658248  41.4765596   9.1846526
  31.2462616  41.2889242   8.0468822  47.5948095  48.4281492  27.0244503
  47.4053335  49.2703915  26.6109729  47.0995855  48.4465742  27.8433800
  52.8378868  13.9935970  24.7054219  52.9840231  13.1677532  24.2440557
  53.6253643  14.1141021  25.2360654  77.7047062  34.7449517   6.8758219
  77.9910278  35.6313848   6.6556263  77.2417402  34.4418430   6.0947835
  26.3801551  73.9958954  37.5445724  26.9170523  73.7824965  36.7814016
  26.7788482  74.7884893  37.9038358  84.7914314  61.2669182  34.2037988
  84.9047470  61.3814878  35.1473379  84.0895748  61.8748474  33.9712930
  57.6150370  66.8208122  18.3364224  56.8128538  67.1189308  17.9076374
  58.1967640  66.5800667  17.6154029  33.4353590  45.6804419  22.3851252
  33.1576014  46.0759258  21.5588832  34.3914270  45.7195711  22.3599291
  75.4433232  22.4440847  74.3317610  75.8354925  23.2839714  74.5705718
  75.2161129  22.0392023  75.1688260  69.3282700  25.7338047  31.5222025
  69.1197586  26.5976906  31.8778086  70.0792313  25.8858490  30.9484696
  86.2816429  59.6238518   9.6458334  85.4862785  60.1563358   9.6548772
  86.1578655  59.0208578   8.9128214  82.6187038  23.9375949  25.6489921
  82.2703552  24.7098494  26.0945344  82.5292110  23.2312489  26.2887573
  10.6028644  24.4451796  72.4526459  10.0965349  23.7655626  72.8975981
  10.0134365  25.1985441  72.4173528  63.4797430  46.7394686  30.5628252
  63.5748005  47.6082850  30.1724958  63.1802225  46.1847591  29.8425341
  48.7965870  49.9221230  38.3107638  49.4745493  50.5351019  38.5951185
  49.1000080  49.0687943  38.6205983  25.0140333  68.1739855  28.4849048
  24.6015739  67.9861498  27.6417994  24.3214703  68.0254316  29.1287374
  58.3673334  55.2912378  26.2877679  58.5797739  54.7425127  27.0427513
  57.4521542  55.0882912  26.0941195  91.1162853 100.3277295  61.7406648
  91.1691713  99.4477933  62.1136874  92.0020008 100.6794732  61.8302363
   2.6351610  49.3865347  14.3516624   1.8100023  49.5088148  13.8822019
   3.0881953  48.6983252  13.8644660  66.3381386  36.7017293  31.7151427
  65.9965324  37.5343347  32.0411873  65.7224464  36.0457587  32.0420313
  69.6706009  51.7876387  14.0360689  70.1385069  50.9532022  14.0042448
  68.9471245  51.6335297  14.6435750  62.3383331  52.7425003  17.0096886
  62.9390001  53.1943798  17.6023388  61.4667845  52.9601240  17.3402524
  22.4475805  97.9478879  41.3665485  22.6651231  98.8745565  41.2656021
  23.1171409  97.6079655  41.9601583  73.0566549  56.2302732  15.1030326
  73.9855289  56.1621952  15.3239179  73.0466747  56.4138174  14.1636491
  70.4568672  49.6852541  20.0437832  71.1737967  49.0517569  20.0134039
  69.7307301  49.2062283  20.4431438  71.6579390  16.8388093  25.4240179
  72.0044708  17.2495794  26.2161136  71.2032747  17.5461590  24.9666715
  21.6832876   9.1302514  16.1462581  20.8510852   8.8912100  15.7381773
  21.4498401   9.3719947  17.0425248  38.1511140  51.8579769  16.2184882
  37.7026081  52.5875378  15.7909238  37.5148869  51.1430073  16.2021160
  60.7180643  55.6021452  28.3338308  61.6596603  55.6479406  28.4997678
  60.4583931  54.7417068  28.6631465  84.0056515  85.8857077  51.9325226
  83.9410257  85.7485073  50.9874147  83.2792330  85.3808015  52.2980684
  99.4414330  82.1964169  34.8334241  99.7559452  83.0763912  35.0407004
  98.6702061  82.0807934  35.3884649  84.4681072  59.0888357  49.4981337
  84.0783787  58.9973879  50.3676081  84.4094849  58.2131529  49.1160774
  55.4817200  66.3363457  12.4982607  56.3264799  65.8906889  12.4349809
  55.5280638  67.0317841  11.8421745   5.1203471  11.1908960  16.2951016
   4.3986812  11.7663777  16.5485799   4.7936881  10.3075588  16.4661014
  75.9423876  63.9217567  41.1862850  76.7395544  63.9680195  41.7141247
  75.7675838  64.8290873  40.9364223  56.1455584  67.6194048  24.5130610
  56.6530466  67.6345778  25.3245139  56.7693853  67.8801537  23.8355064
  86.2319144   5.8926051  39.4433761  86.7702969   6.6541331  39.2278409
  86.4575156   5.2434676  38.7770748  44.0529156  83.1674290   4.5320725
  43.9281988  82.3964214   5.0854433  44.6970129  82.8923130   3.8796261
  58.6918926  77.1791124  31.9885111  58.5013962  78.0067587  31.5469861
  57.9183674  76.6385603  31.8282223  98.7171841  76.0343409  40.7101297
  98.4068680  76.9210291  40.8937550  99.6214008  76.1524963  40.4191542
  32.4868584  28.8185525  19.3904364  31.8202496  28.9335442  20.0676656
  32.8908324  27.9747081  19.5928299  96.3060760  43.5921192   8.4239042
  96.1655235  44.5388556   8.4108806  97.2382927  43.4857559   8.2344306
  32.8579513  36.5369736  81.5116828  33.5357181  36.7920528  82.1376216
  32.9370395  37.1728931  80.8006352  45.2834606  74.8867464   6.7005169
  44.6323872  75.5857420   6.7616951  44.9424601  74.3002367   6.0252726
  57.1135950  79.3706322   0.3317341  57.3779488  78.4557867   0.4287263
  57.1460009  79.7248125   1.2204056  16.2208645   0.9410232  35.8779836
  16.5844623   1.5457385  35.2311850  16.4889518   0.0742953  35.5728126
  75.9660006  57.5171566   6.7821413  75.5335474  56.8252277   7.2825885
  76.3035107  57.0743895   6.0035050  27.0772576  55.5415010  14.9426353
  26.2481856  55.2929163  14.5338845  26.8449211  56.2482214  15.5449665
  93.4939766  58.6457396   7.8698742  93.5176277  59.5842505   7.6831442
  92.5664139  58.4148121   7.8194845 105.0718832 100.4585689  75.6247753
 104.8133373  99.6252626  75.2310937 105.8216953 100.2396768  76.1780327
  73.5546589  73.5486794  19.3569410  72.7804089  73.6584330  19.9089539
  73.9628124  72.7431059  19.6742666   0.3580173  91.6686719  86.6560657
   1.2267240  91.9940894  86.8920400   0.3701194  91.6251844  85.6999308
  66.1850166  82.4107647   9.4081581  66.6740704  81.7463112   8.9228076
  65.2713585  82.1338558   9.3389702  48.4648657  71.3628864  31.0047150
  49.3566608  71.0504675  31.1574554  48.4842825  72.2821808  31.2707043
  67.3723030  81.0090637  28.1706643  68.0559254  80.4989815  28.6050749
  67.5442934  80.8931828  27.2361994  67.0818090  73.9194489  27.3957586
  67.9030085  74.3164730  27.1055174  67.2355270  72.9768801  27.3312259
  77.9904270  51.0127354  31.8413591  78.2167435  51.1515522  30.9217167
  77.9702759  51.8922949  32.2184587   3.4666713  88.7248128  84.9829596
   4.2091735  88.1240647  84.9195242   3.7611421  89.5177143  84.5348206
  64.4346809  53.0222940  33.4774995  64.5574570  53.0428934  34.4265699
  64.0174198  52.1776199  33.3082461  51.4307737  84.3388653  26.7552233
  52.0542812  85.0643826  26.7883992  50.6277132  84.6956730  27.1347117
  61.1556816  73.7632751  38.3069944  60.3036594  74.1985226  38.3361840
  61.4427614  73.7373066  39.2197585   0.2330573  62.5800133  68.2270432
   1.0329612  62.7673340  67.7358341  -0.3755681  63.2712412  67.9662514
  63.0377722  96.3302612   3.6575690  63.2264423  95.7479858   2.9216415
  63.2726669  95.8203030   4.4328064  58.3644724  70.8639956  45.0856781
  58.0831671  70.8436918  44.1709709  58.4179831  71.7955399  45.2991867
  74.1108561  51.0930157  24.2064667  74.0086699  50.5082512  23.4555745
  74.8642302  50.7428837  24.6819305  82.3887642   2.6252883  38.9385772
  82.9439124   2.5516074  39.7148609  83.0017718   2.6114505  38.2035518
  63.5310698  67.8269386  47.8350210  63.7935972  68.7472868  47.8515720
  64.3071890  67.3511362  48.1308031   9.8867496  54.0277529  52.9962778
  10.7624515  54.0840244  52.6139116   9.3182738  53.8004351  52.2604752
  77.0980978  70.9107733   4.1901472  76.5787840  70.1739979   4.5121887
  76.7592096  71.6688919   4.6662140  40.0317621  49.3132639  15.9571016
  39.7931623  50.2383900  15.8984232  40.4054689  49.2173958  16.8331051
  60.5471659  68.6668968  29.7058439  60.1720905  67.7966404  29.5709276
  60.5358362  68.7880278  30.6552815  42.3885441  71.4524317   9.8510325
  41.4864254  71.4187241   9.5327967  42.7666807  70.6132221   9.5884067
  86.0363483  68.4682178  33.8059521  86.0654926  67.5462627  33.5502529
  85.6494236  68.4618425  34.6814418  67.1636438  64.3235016  49.7583103
  66.5904093  64.8195696  50.3427362  67.8393888  64.9493217  49.4976330
  90.8054638  45.8143902  26.3972473  90.9302330  44.8915052  26.1760092
  89.9438477  45.8466673  26.8129420  45.2149916  69.8437071  11.9575167
  45.9051132  69.1828060  11.9011164  44.6936226  69.7137785  11.1653543
  81.6673470  97.6403999  13.6390948  81.0806274  97.0613098  13.1526411
  81.1101055  98.0397034  14.3071318  60.0094080  46.5928364  29.8925161
  59.2204905  46.8388700  30.3755355  60.6207371  47.3123932  30.0498462
  33.9125800  69.9068451  25.3256249  34.3326950  69.0533733  25.4320121
  34.3892956  70.3204155  24.6059489  54.5348072  79.4020081  34.9942780
  55.0994015  80.1134014  35.2965879  55.1374340  78.7634802  34.6130228
  53.6169291  77.9816341  61.8816566  53.4730673  78.7632418  62.4151611
  54.1639280  78.2838774  61.1566257  84.3158722 101.3749504  39.0071607
  85.0520992 101.4515591  38.4002542  84.7073364 101.0530281  39.8191643
  79.7609854  77.8326797  34.1053700  79.6742916  76.8798113  34.0778828
  79.0718079  78.1527710  33.5233021  61.1414623  74.0896225  75.8141994
  61.9792461  74.5522690  75.8316851  60.4971647  74.7684002  75.6132507
  86.2166023  35.4667687   2.5716045  85.9433174  34.6755648   2.1073358
  86.9072151  35.8395529   2.0235990  78.2826328  86.7808723  48.0393362
  78.5528755  86.0560322  48.6030865  77.5284004  86.4412975  47.5576162
  66.6575050  83.0014229  57.1933317  67.1714783  83.6475468  57.6776695
  66.7336369  82.1990204  57.7096462  50.0503492  50.6323481   6.1916476
  50.6430197  51.3110018   5.8685380  50.0104666  50.7792854   7.1366620
  72.5569725  97.4676609  32.4208641  72.0349073  97.8448963  31.7127872
  72.9316950  96.6714668  32.0441771  32.3326898  75.4786491  18.6518550
  33.1207371  75.6180239  18.1267011  32.3725724  74.5559502  18.9033806
  60.2716923  66.7753983  32.7187467  60.3874588  67.7245331  32.7631092
  60.4004288  66.5613365  31.7947149  62.6204443  88.5594368  49.8074293
  61.9633913  88.5243130  50.5026102  63.2826567  87.9206085  50.0712490
  46.2363482  63.8932419  13.4737098  46.1399221  62.9606628  13.6666453
  45.4540014  64.1155481  12.9689860   4.6123107  90.8638805  86.9831060
   4.2481216  91.7338365  86.8194654   3.8480504  90.2896708  87.0323574
  83.9653492  65.2244425  30.6429148  84.2650223  66.0835600  30.3456879
  84.6394253  64.9352169  31.2578917  68.4525394  52.4382877  10.9237671
  67.6691914  52.8685665  11.2664902  68.3844757  51.5350533  11.2332356
  80.0065327  66.8666744  42.7782679  79.6548653  67.5674391  43.3273411
  80.9446430  66.8613052  42.9684114  34.6787445  11.0665833  84.3734598
  34.6922723  11.9588743  84.0272382  35.5980627  10.8002173  84.3850705
  74.8407078  81.0175991  27.0479584  75.3249025  80.5153179  27.7033138
  74.0206480  81.2510777  27.4829578  90.1478672  70.9638357  28.5076380
  90.7233810  71.6508293  28.8438702  89.2634106  71.2863159  28.6807775
  32.0673505  41.7018639  76.3087791  31.3212863  41.8796001  75.7360428
  32.8231374  41.6919647  75.7214826  71.7413664  39.2445874   5.2125472
  71.3882399  40.0581026   5.5727196  72.2724247  38.8798594   5.9204918
  72.1878195  79.5660162  39.2289472  71.7524338  80.2958584  38.7884951
  73.1188059  79.7855520  39.1929626  76.3304281  68.7546539  36.3369942
  77.2696114  68.7806892  36.5199900  76.0535049  69.6701241  36.3751531
  99.2887878  64.3684530  33.2953477  99.6232891  64.6629953  34.1424537
  99.2073727  63.4191322  33.3869410  92.1346187  96.8514627  83.6989745
  91.5408277  96.2654107  84.1682183  92.4187183  97.4835151  84.3592977
  92.4244308  76.5972996  47.0090723  92.7742386  75.7449770  47.2687149
  92.3308754  76.5382481  46.0582829  61.6908836  74.9816036  40.8226109
  61.8774319  75.8975792  40.6166601  61.8104076  74.9200583  41.7703247
  78.7814713  55.5494356   9.6486270  77.9122496  55.4090548   9.2731518
  79.2289829  56.1090899   9.0139985  74.4944334  58.0595970  45.4020691
  73.7707853  58.5615730  45.7770157  75.0456905  58.7159014  44.9759054
  89.0955067  74.7048807  38.7914014  89.7107506  75.1204586  39.3955588
  89.0551281  73.7931728  39.0801740  14.8480550  25.5811010  85.0533783
  15.7998363  25.5643211  85.1536923  14.6656314  26.4249073  84.6399277
  39.0246654  40.1451588   1.6840941  39.4908237  40.4822731   2.4491303
  38.7229252  40.9280157   1.2233110  77.1774292  58.0062246  35.7324362
  77.6424646  58.7966824  35.4583001  76.3092041  58.0902815  35.3382850
  70.1973534  55.2435637  37.0638633  70.3259945  55.3522253  36.1215925
  69.4489717  55.8037663  37.2696018  92.9052448  86.7790794  48.3299828
  92.4549580  87.2323322  47.6172113  93.8355350  86.9162178  48.1511402
  42.0726824  33.3159900  18.6364460  41.6591978  33.3413672  19.4993591
  42.9723644  33.0390716  18.8100100  62.9130888  67.3532248  38.4987307
  62.7793980  66.5581465  37.9827738  63.7981749  67.6393127  38.2728863
  78.0436087  69.4943142  27.1745062  78.8353062  69.8263073  26.7511511
  77.4720955  69.2418909  26.4493251  71.4780951  67.3943758  44.5359373
  72.3392677  66.9915009  44.4250298  71.6247082  68.3243847  44.3632364
  59.3966579  89.0552998  55.8221674  60.1972675  89.3537331  56.2536621
  59.0860319  89.8203945  55.3380394  71.2203741  76.8067026  66.3802433
  71.4661741  75.9210253  66.6474152  71.3376236  77.3360586  67.1690845
  68.6988306  46.9600439  15.5978489  68.9206266  46.8412971  16.5213943
  67.7434826  47.0184898  15.5865598 102.4307537  42.1903944  28.6244607
 102.6135540  43.1025743  28.8496995 102.4634457  42.1686649  27.6680660
  59.4462299  67.6323605  20.6723475  58.7212944  67.1243572  20.3081584
  60.1134157  67.6235819  19.9860382  52.1157932 101.7166710  58.7877893
  52.7197075 101.3975620  58.1171989  51.3517237 101.1448956  58.7136602
  61.9110775  69.1419268  21.7377162  61.9948196  70.0752401  21.9330239
  62.6445723  68.9529419  21.1524820  64.6623802  52.1798182  36.3339233
  64.9985218  52.9905081  36.7160559  64.2567682  51.7190218  37.0683455
  81.6895580  66.7493200  27.1506858  82.2640038  66.8098211  26.3874149
  81.5762234  67.6554585  27.4375796  16.1847615  89.5364475  62.9029846
  16.5292561  89.1113186  62.1176100  15.6069589  90.2230167  62.5698090
  35.8896661  75.1358747  15.9638906  35.7326365  74.7935343  16.8438768
  36.8130302  75.3881168  15.9662628  18.6292449  27.8291403  86.8592638
  18.3248178  28.5750471  86.3423653  19.4623796  28.1192194  87.2307157
  64.2442751  59.4558620  27.3002863  63.9981270  59.8567867  28.1338954
  63.9445591  58.5496759  27.3725915  68.5826015  88.4705162  67.3482513
  68.4604073  87.6513386  67.8280878  67.7046156  88.8473511  67.2902155
  47.8593731  52.2099113   5.4394698  48.6027622  51.7086649   5.7746589
  48.2542324  52.9822397   5.0347191  69.8466635  70.2552986  43.0398226
  69.9530602  71.0322714  43.5886669  70.7405090  69.9951315  42.8171444
  64.8288393  75.6922722  44.9679422  64.3263960  76.4984226  45.0858688
  64.5658922  75.1366615  45.7016897  58.1984711  71.2306499   4.9153820
  57.5774002  71.6339779   4.3088970  58.0927134  71.7232180   5.7292759
  66.0299826  61.6947317  50.4423141  65.8852577  61.0365248  49.7625732
  66.4760971  62.4112225  49.9908161  83.9271259  79.0051746  36.0287833
  83.4292698  79.5237255  35.3967452  83.5507393  79.2366266  36.8778944
  41.1662149  89.2184734   9.7694105  42.0854521  89.4322395   9.9292141
  41.0463810  88.3591270  10.1736295  12.6000015  49.9135052  53.7054509
  13.0585996  49.0792023  53.8047999  12.2245447  49.8771511  52.8257102
  75.8621740  64.7103834  23.5728693  75.9992743  63.9768744  24.1723657
  75.0426292  64.5028734  23.1239653 101.6544922  38.7062203  81.6690755
 101.3853486  37.8357349  81.3757509 100.9063037  39.2685257  81.4684337
  59.8076010  28.3510423  18.3709562  60.6211615  27.9095817  18.1271064
  60.0899887  29.1914320  18.7318373  68.2309675  31.3239694   5.4436022
  68.9897585  31.8580198   5.6786793  68.1877899  31.3763118   4.4888103
 107.1989918  50.9731674  71.2992382 107.9421902  50.7878542  70.7251787
 106.7090797  50.1514053  71.3296175  68.3209562  90.7574940  29.8862052
  68.4753418  89.8236561  30.0288606  68.4338903  90.8776283  28.9433146
  51.5313244  73.2152891   6.6874868  50.6553555  73.2802629   6.3071102
  52.0997810  73.6568880   6.0565466  18.6505588  74.9531811  87.5504472
  19.1921981  74.1724270  87.4351932  18.5604461  75.3144806  86.6686445
  60.7880545  84.9249840  54.9314070  60.0295067  85.5087662  54.9373055
  60.4297018  84.0644360  55.1487923  50.6630230  67.4142075  20.3968143
  50.1128244  67.0009470  19.7314370  50.1826096  68.2028341  20.6488132
   3.7382404   0.7640975  37.0139217   3.5605089   0.6576293  37.9484296
   4.0511886   1.6648620  36.9307351  87.2536810  36.5057414  28.7748408
  88.0921563  36.7901366  29.1385770  87.3988493  36.4812701  27.8290296
  65.2810144  35.1369619  14.5835650  64.6106005  35.5734682  14.0579784
  64.8616076  34.3313026  14.8856282  95.7237911 100.4647064  33.1450033
  95.8162880 101.1440468  32.4770355  95.4420376  99.6889210  32.6602244
  65.3808069  48.1859779  21.4424515  65.4967117  47.6643038  20.6483150
  64.6266890  48.7446070  21.2541127  60.0583696  95.6070042  60.5950689
  59.8111057  96.1753559  61.3244963  60.8466339  96.0115051  60.2327919
  80.3611660  84.9946022  45.1616335  80.5922318  84.2438507  44.6146250
  81.1528683  85.1741123  45.6688023  50.3314447  85.5450344  16.6040909
  50.4037046  84.7868538  17.1838927  49.9027729  85.2057076  15.8183873
  58.7642860  69.7309637  35.6676126  58.5023546  70.0519896  34.8047304
  58.3131981  70.3072071  36.2846208  68.0273914  67.5026417  16.9919348
  68.5105658  67.5601387  17.8162336  67.1149635  67.6547956  17.2380257
   2.9894622  84.9024773  50.4503727   2.8560241  84.3669033  51.2324095
   2.9121383  84.2862606  49.7219992  53.3035898  39.7305465  19.3488550
  52.5154114  39.6677804  18.8093472  53.5473633  38.8215184  19.5234215
  87.2663498  64.8575449   5.8797908  86.4336872  65.3178501   5.7748181
  87.8560925  65.5117559   6.2545496  72.8684139  74.4241953  57.8933048
  72.4652100  73.5943317  58.1482315  73.7219000  74.4188833  58.3266211
  61.4531994  67.6987267  24.1005158  61.0777903  68.1407881  24.8620152
  61.5382576  68.3876610  23.4414482  70.4731369  77.5287390  37.8588367
  69.5575953  77.4428225  38.1246138  70.7664156  78.3421326  38.2694578
  68.0665922  84.3385124   4.4851086  67.2808933  84.0213299   4.0397930
  68.1968117  85.2221107   4.1408244  71.4311981  74.1833687  29.7188616
  70.6475878  73.9408207  29.2255425  71.4357281  75.1404667  29.7058249
  36.4029121  58.9921427  25.8978486  35.5934954  59.1728783  26.3757730
  36.4351439  58.0376387  25.8336997  73.1162453  65.7229042  50.7956839
  73.9757538  65.9562492  50.4449224  72.6212692  65.4195929  50.0346088
  78.2706833  86.2300873  30.3575134  77.8564167  85.3710938  30.2754569
  78.0014038  86.7021179  29.5695376 102.0012665  46.3027668  11.2833762
 101.9337940  46.7669439  10.4489779 102.1620750  46.9915628  11.9283092
  79.6658564  72.3383045   7.5420004  80.1188946  73.1177521   7.2203684
  78.9468765  72.6811075   8.0728352  71.3577461  60.2160072  19.1970921
  70.6651163  59.9076319  19.7813809  70.9201193  60.8349609  18.6126173
  63.6124039  84.9981213  25.6605101  62.6974201  84.8932362  25.3996634
  63.6855841  84.5083427  26.4796519  86.8205635   5.7350002  88.1256341
  87.0635692   6.6501366  88.2659795  85.9870998   5.7776867  87.6568598
  83.6289597  92.8788471  25.0627756  82.8311634  92.8272247  25.5891776
  83.3758163  92.5274658  24.2091441  57.0405579  97.4136543  10.4309428
  56.8439341  96.5592384  10.0468266  57.9961205  97.4397945  10.4805088
  74.3083858  61.1733866  26.2574792  73.7626076  61.9470406  26.1166859
  74.5980024  60.9217691  25.3805304  61.6143513  87.9731083  42.1492195
  62.2565651  87.4727249  42.6526213  60.7769680  87.5521183  42.3436356
  40.1941156  83.1651592  18.0244815  39.9730372  82.4985027  17.3741508
  40.5771494  83.8791656  17.5148702  58.7219429  71.3094759  48.9665604
  58.2483864  71.5899277  49.7497129  58.1214952  70.7080555  48.5261202
  68.7992096  65.1671743  54.3014908  68.2401848  64.5480680  53.8319921
  69.6550560  65.0835228  53.8810682  56.7245293  61.9118786   6.3726956
  57.1463537  62.7135944   6.6818029  57.2457409  61.6434050   5.6160653
  79.0715551  68.8575888  37.0758462  79.8050165  68.3008957  36.8143892
  79.0071583  68.7394714  38.0235457  65.8817244  77.7251863  29.5782709
  66.8128109  77.9322767  29.6584320  65.8557367  76.9544458  29.0112519
  15.9545986   2.9112707  84.6463811  16.0388700   2.2177731  83.9920187
  16.8446390   3.2456957  84.7569307  83.2864571  90.4070759  61.2298107
  83.8067722  89.8628807  61.8208694  83.3498383  89.9678326  60.3817081
  71.6285181  64.7204781  33.8988400  71.8119812  65.6440592  33.7268829
  72.3357248  64.4399071  34.4796729  78.0548382  84.6156979  34.4081306
  77.5225735  84.5151424  33.6189437  77.7592516  85.4408264  34.7928596
  83.4287357  84.3857956  37.8435421  83.0734158  83.7154102  37.2599554
  82.6571655  84.8057938  38.2236934  65.5035114  55.4776764  26.6345167
  65.0439167  54.6591139  26.4475393  65.5324078  55.9336567  25.7933998
  11.9548646  10.0088631  79.9709546  11.8560449   9.0616261  80.0669139
  12.8996126  10.1450716  79.8992932 100.7156372  42.9532528  12.7841377
 100.6680393  43.0471945  13.7355268 100.8949375  43.8376236  12.4648082
  35.4761529  27.1270204  26.6469646  35.9578800  27.7137685  26.0639572
  35.2146029  27.6814675  27.3820925  91.9071770  63.4282494  40.8693981
  91.3937759  62.6299429  40.9932804  92.5990200  63.1756258  40.2580261
  69.3052244  66.6686487  35.1490283  69.6691513  67.5076389  34.8663998
  70.0158215  66.2511349  35.6358123  81.3994884  79.7316885  35.4406309
  80.8808327  80.5361652  35.4471064  80.8854008  79.1195107  34.9141455
  74.1755056  58.4715271   1.0980321  74.3956327  59.3816900   1.2964740
  73.2297945  58.4182882   1.2359805  96.3433226  21.1479419  13.3482730
  96.7643651  22.0053046  13.2859826  95.4086550  21.3328689  13.2564890
  53.0017614  53.5412931   7.2494107  53.1686020  53.2006168   8.1282371
  53.8555288  53.5175943   6.8172663  53.2794714  46.5097570  31.9640851
  53.6754084  46.1574745  32.7611828  53.8835239  47.1956015  31.6795373
  81.3923073  67.7776289  48.2412434  81.7522430  68.1380272  47.4308157
  81.6796303  66.8645811  48.2457113  68.9087772  89.9791241  45.3610897
  68.8013172  89.6858788  44.4562769  68.0150414  90.0634480  45.6932878
 105.5779171  88.1109428  37.9437852 105.2493668  88.9147854  37.5411415
 106.3155937  87.8508663  37.3920345 103.1014880   2.7717917  27.3271275
 103.4986599   3.2035392  28.0834889 102.2993906   2.3777907  27.6701069
  43.8669586  75.4506922  16.5969479  44.7766018  75.1557779  16.5543997
  43.9220142  76.3521004  16.9142258  56.6969776  81.5546799  19.5743525
  56.0717869  82.1117306  19.1106069  56.8189764  80.8002377  18.9980137
  82.6027489  57.5856972  45.4034710  82.5663948  57.4080372  44.4636059
  83.5259914  57.7694082  45.5769634  96.3101101  53.0458641  37.7038217
  96.1657619  53.4639025  36.8549156  96.7900276  53.6985207  38.2136774
  60.3296423  53.9479685  30.6560874  60.3243494  53.0078030  30.8358073
  60.9932709  54.3013287  31.2485123  12.6290742  27.8244625  68.4833616
  12.3087398  27.1476208  69.0796023  11.8364421  28.2476173  68.1533569
  35.6662130  74.7113228  32.8152776  35.8292437  74.7004652  31.8721271
  36.0793138  73.9108229  33.1389809  58.2773829  56.8936205  29.0612650
  58.3125687  55.9469509  29.1984248  59.0713978  57.2259712  29.4799662
  63.4308243  55.9666252  29.4657421  64.3328047  56.2287235  29.2814445
  63.2882738  56.2231255  30.3768492  54.2133808  97.5463581  16.6357601
  54.4909477  96.6948795  16.9736469  54.5645380  98.1788158  17.2625887
  43.5206930  18.6648546  81.1448514  42.8552619  18.9612375  80.5238968
  43.9594022  19.4674479  81.4270049  44.9191332  73.1878185  20.7306218
  44.2992973  73.8587856  21.0166907  45.1796293  72.7429247  21.5371203
  99.7139796  23.0148070  50.5202627  99.8684271  23.5189097  51.3191700
  98.7669190  22.8768866  50.5034065  58.5401249  29.2489028   7.2746277
  58.7134027  30.1021576   7.6723254  57.7101040  29.3643665   6.8120670
  84.7484779  69.5651436  42.1059608  84.2366695  68.9189434  41.6194344
  84.9122047  70.2656603  41.4745331  86.1583328  60.7286501  15.5358207
  86.1238384  60.7149029  16.4923000  87.0877743  60.6322622  15.3282666
  72.6582336  84.1466618  31.6167140  73.1066465  83.4275723  32.0617676
  73.3612061  84.6485329  31.2041879  40.0478172  83.6594200   6.0806954
  39.2575598  83.2240105   6.4002955  39.7970676  84.0153408   5.2282429
  26.0347835  54.3752132  74.4677812  25.9438173  53.7337338  75.1723760
  26.0785047  53.8492809  73.6692148  96.7478275  66.9166994  32.0774746
  96.5637779  65.9913397  31.9160056  96.3100433  67.1067381  32.9072118
  84.2779064  63.7195444  65.8225107  85.0196552  63.7106133  66.4274549
  84.6373177  64.0712214  65.0080299  96.2002087  62.3534918  13.6371481
  95.2727032  62.1587133  13.5028756  96.5486431  62.4797344  12.7546012
  98.7294865  89.0809631  37.6075554  99.3955612  88.9442348  38.2812619
  98.7413883  90.0245285  37.4469876  33.2276940  69.5073318   3.9820483
  32.2919989  69.6493673   3.8387555  33.5413671  69.1303253   3.1600329
  51.4912796  59.6535921   8.2749134  51.7087126  58.7855864   8.6147904
  52.2273397  59.8794031   7.7061796  47.2144318  60.8047533  21.1435080
  47.0853281  60.2680540  20.3615141  46.4555645  61.3878679  21.1617661
  78.2889462  94.4581604  67.2268057  77.8377533  94.1720581  66.4325714
  78.0397081  93.8136864  67.8891993  57.6540756  74.8917437  27.9588842
  57.0026064  75.1209927  27.2961140  58.3039808  74.3717957  27.4861264
  37.3131680  43.4665394  10.6076622  36.8503308  43.3199692   9.7827190
  38.0154133  42.8160954  10.6071424  84.6088409  71.8535757  37.1096134
  84.8270226  72.6621866  36.6461658  84.1883373  71.3043213  36.4480066
  79.3337727  68.5118246  61.7674494  78.7923384  69.2121792  62.1315813
  78.8638449  67.7072334  61.9866180  59.4241810  92.5238228  22.5547981
  58.7753534  91.9744396  22.9946089  59.3975639  92.2408390  21.6407728
  68.8675165  81.2368107  76.9810295  68.5525036  81.9479847  77.5389051
  68.4935141  80.4452229  77.3680067  10.7699911  52.7895294  87.5666716
   9.8417560  52.5605808  87.5198199  11.2199012  52.0506798  87.1569085
  97.8413733  10.2501815  23.5154271  98.3516177  10.9162085  23.9761782
  98.2746323  10.1612800  22.6665401 102.4299057  18.4151404  14.7989345
 101.8884524  19.1643279  15.0474751 102.9475602  18.7291949  14.0575588
  73.5452127  98.3787060  35.8217454  73.0433130  98.1307125  36.5981650
  74.3940210  98.6584663  36.1645150  57.7734900  92.6481915   1.2877491
  57.5394630  93.3818913   1.8562107  58.3813524  92.1248817   1.8101241
  40.2094030  54.8847818   6.2897497  40.4326487  54.4472885   7.1113294
  41.0479593  55.1951981   5.9481406  21.5375415   2.1162837  40.0171185
  21.1095325   1.4007514  40.4872608  20.9054081   2.8344386  40.0469732
  92.4277218   8.9767783  20.9754848  91.7284401   8.8090938  21.6072416
  92.0726403   8.6748832  20.1394176  76.1898232  66.2500572  25.8347273
  76.2929153  65.6897593  25.0655293  75.3266621  66.6493320  25.7262540
  23.9522258   4.0391009  40.0153685  23.2788936   3.4549182  40.3640556
  24.7709648   3.7084334  40.3848982  27.2878639   6.4901774  20.4938221
  26.4314262   6.2947886  20.1135898  27.8641884   6.6071265  19.7385693
  70.0356245  62.4549294  45.8511257  69.3366003  62.9796314  46.2413692
  70.5537796  62.1533346  46.5973091  81.7397404  69.3929386  28.6654663
  82.5060368  69.5679522  29.2117119  81.6333485  70.1864243  28.1407833
  14.0430919   6.0669463  48.4772968  14.9948875   6.1358779  48.5519600
  13.7099449   6.8306010  48.9485550   9.1146843  12.9801314  21.2609792
   9.9056045  13.5087817  21.1551404   8.6223118  13.4216350  21.9529867
  47.4305916  76.4343929   5.9598327  46.7484617  75.7905483   6.1506099
  46.9527435  77.2085285   5.6621653  59.9313307  58.9589596  35.1928139
  59.7587776  58.0601358  34.9125147  59.3451309  59.4935703  34.6572852
  70.4735851 100.6571286  85.0244587  70.0125599 101.4959138  85.0356045
  70.3833747 100.3223651  85.9166631  73.8022661  87.6217937  32.7096748
  74.1714191  87.3630428  31.8652749  74.5563126  87.6645184  33.2977390
  96.2188435  86.7831326  34.7311926  95.6506252  87.5410366  34.8688078
  96.9412899  86.9106197  35.3460574  91.2705898  96.7569065  36.1527467
  91.8102360  96.6937160  35.3646970  90.3702068  96.7437744  35.8281493
  31.1608020  24.2801891  82.9396760  30.2644626  24.6159922  82.9463857
  31.7016975  25.0451695  82.7435338  90.0460339  86.0473061  38.9654541
  89.9241352  86.9908619  39.0707612  90.9343052  85.8837128  39.2823696
  50.8935595  98.6513996  32.3999906  50.4787874  99.4542027  32.7157474
  50.1712704  98.0308247  32.3029399  58.1951952  55.0794506  12.6815891
  57.8561974  54.5420742  13.3975065  58.8023424  54.5037127  12.2166908
  64.7380924  84.8318100  52.7545500  64.9523592  84.1315269  52.1381712
  65.3305864  84.6905518  53.4929466  92.4355507  90.9738445  36.2727642
  92.7107525  90.2284241  36.8064642  91.7005157  90.6412506  35.7576656
  58.3644104  70.9958124  67.5738382  57.6359892  70.4637003  67.2536945
  58.2855034  70.9611320  68.5271454  91.4820957  83.6011600  49.4365406
  90.9809303  84.4157124  49.4760513  91.7123604  83.5062122  48.5123158
 102.4231680  11.1756747   0.5062516 102.3694428  12.0055716   0.0323225
 101.8228444  11.2819617   1.2441817  79.8135233  83.8582802   7.3995674
  79.8245859  83.2775211   6.6387624  79.3711233  83.3520412   8.0809140
  47.7490759  70.8019686  13.2063746  46.9714546  70.6565475  12.6674962
  47.4058962  71.1218977  14.0407038  13.7337533  13.9792048  79.6033358
  12.9801408  13.9630877  79.0133863  13.3970872  13.6367689  80.4313618
  75.1881599  77.4979305  70.1283169  75.1872778  77.3013592  69.1915178
  75.0542927  78.4446001  70.1745272  97.3361643   0.9344428  24.8799706
  97.3471507   1.0423892  25.8310008  96.5011652   0.5035251  24.6974587
  62.1489716  79.7851372  35.3682971  62.8051090  79.1069698  35.2076817
  62.4605942  80.2392864  36.1511588  75.8821869  62.7549458  38.7910819
  75.2716494  63.0680561  38.1236696  75.6674814  63.2666111  39.5710397
  87.4435806  63.4240627  54.9185467  87.9646873  63.5753918  54.1300154
  87.9133987  63.8911772  55.6094217  41.6067934  72.0465326  36.6883922
  41.3050318  72.5757504  37.4266982  41.2953615  72.5156355  35.9143233
  99.8305130  44.7009420  27.5066519  99.0417671  44.8697233  26.9912648
 100.4395103  45.3917885  27.2457218  73.1484413 101.0556126  26.8726420
  73.3013105 101.5431213  26.0631967  73.7808657 100.3377151  26.8429375
  53.8855982  71.9008303  85.5031586  53.3399391  71.5665913  86.2150288
  54.7290421  72.0877171  85.9153557  68.2034206  93.9045334  21.0435033
  69.0896511  93.6094379  20.8343530  68.0962801  94.7138596  20.5437565
  56.0439873  88.4165955  27.8393102  55.8399916  88.8483620  27.0097351
  56.2687826  87.5192547  27.5933599  73.6428404  74.2090178  22.7443337
  72.9114437  74.1728258  22.1279073  73.6636066  73.3388996  23.1427002
  78.6066914  78.8577986  63.3643723  78.9212370  79.7569656  63.4581232
  79.4021320  78.3254099  63.3562946  45.0435249  10.7102435  53.3352804
  45.2465908  11.6419833  53.4180641  45.7257740  10.2704280  53.8425636
  43.1261817  46.8842732  75.7278985  42.9212991  47.3070847  74.8939448
  43.8674537  46.3117729  75.5304330  74.6478748  83.0777740  38.7521553
  74.6991396  83.9803028  39.0668702  74.1671991  82.6123619  39.4366813
  87.0743664  14.1765159  47.8562212  87.6973494  13.5459464  47.4949646
  87.3329504  15.0148623  47.4734163 105.4052258  59.2237091  22.8111720
 105.8446503  59.7902250  23.4453607 105.4732513  59.6954918  21.9810963
  81.0777958  26.6628592   9.6655428  81.2721070  26.0445159   8.9611763
  80.1238497  26.7414611   9.6588618   6.9647113   1.7017405  30.1903963
   7.1861450   0.8449119  29.8256564   6.4010326   1.5051310  30.9386206
  50.4541632  10.1289218  58.5034037  51.1455139  10.4870742  59.0601730
  50.7469877   9.2407458  58.2993698  95.2493763  93.9142323  36.3358951
  95.2599049  93.8586998  37.2914267  96.1406898  94.1724968  36.1011600
   7.9970256  22.3548447  86.2412183   8.4755222  22.1900927  85.4287344
   7.1553604  21.9163023  86.1166359  49.0429592  96.2804127  19.8338509
  48.4967709  95.9652615  19.1137195  48.9132071  95.6381989  20.5316734
 104.2727280  74.8297739  34.7261524 103.6285877  75.5331564  34.8072433
 104.9733448  75.2067995  34.1939712  59.4836712  98.0447960  52.2579670
  60.1844120  98.5931396  51.9050932  58.7674904  98.1376362  51.6297102
  20.8096496  25.0267356  48.5329199  20.5752269  24.8899310  49.4508362
  20.1540367  25.6436770  48.2076740  12.6191703  14.8501819  13.7056172
  12.5190059  15.8002990  13.6466694  13.2672970  14.7201579  14.3979001
  85.3902531  88.8193130  17.9904664  85.6732559  87.9090405  18.0772913
  84.4791889  88.8159275  18.2840431  49.6310997  81.6540623  27.8168201
  49.2596531  82.5146961  28.0106735  50.4164028  81.6038609  28.3618093
  47.7698994  58.2585478  60.8965492  47.4547958  58.2352495  61.8000984
  47.0445681  57.9062653  60.3807783   3.7094005  91.1396122  64.6405172
   3.1037315  91.8804073  64.6652317   3.1538947  90.3820801  64.4567156
  81.9933414  81.8095016  27.2776961  82.3453903  81.6504192  28.1534719
  82.6132202  81.3794422  26.6886067  37.7275610  95.9832478  55.6404877
  37.5630236  95.1989269  55.1170444  36.9805741  96.0342598  56.2368488
  81.2933636  80.4986954  18.3543575  81.6044140  79.5945120  18.3105123
  81.8561268  80.9141636  19.0077484  85.9276772  89.6636868  24.6734190
  86.6906834  89.1195488  24.8682809  85.8716965  89.6643162  23.7178564
  70.2733421  58.7985420  33.9744067  70.4006147  59.2578602  33.1443119
  69.7452354  59.3981934  34.5014310   7.6462976  13.4367888  49.2793655
   8.2388488  13.0397361  48.6410379   6.7702858  13.2449382  48.9446640
  71.6439676  52.3698950   6.7887843  70.8268070  52.3566341   7.2870934
  71.6099691  53.1890392   6.2947482  57.2229624  89.4023418  30.1174545
  57.9584694  88.7898445  30.1072311  56.6964865  89.1571426  29.3565798
   1.5722934  16.7431777  20.4178691   2.4815456  16.7052024  20.7146001
   1.6258899  16.6397326  19.4677854  57.6099014  78.5184765  25.3426695
  57.7298546  77.6038170  25.0872469  57.7976751  78.5316706  26.2811804
  86.7235279  79.9363565   1.8078864  86.7890167  79.7847509   0.8650409
  85.8168983  79.7175646   2.0232525  83.0512619  91.9971657  11.3521993
  82.1479225  91.6826630  11.3880336  82.9822636  92.9408264  11.4970493
   5.8319847  15.4177230  46.3549995   5.0880424  14.9725192  45.9493160
   6.5249387  14.7576468  46.3737440  61.6722441  50.7083511  15.3178620
  61.7220116  49.9172163  15.8543861  61.8842983  51.4206076  15.9211504
  56.1280107  80.8428860  39.6261692  55.9095621  80.4886913  40.4881763
  56.7792034  81.5215111  39.8040724  88.1951245  31.2287372  23.3139539
  87.9165467  30.3506320  23.5738802  87.3796805  31.6914313  23.1210947
   1.9023124  23.8990539  27.3896146   2.3417608  23.1000846  27.0984983
   1.2953893  23.6047214  28.0687690  99.8597868   9.4666331  16.8404245
  99.6015557   8.8804763  17.5517404 100.3432091  10.1702350  17.2734141
 101.6596317  76.9466543  24.0206385 101.3775730  76.2573767  23.4193277
 102.5965500  76.7914343  24.1403413  74.5677805  61.7086077  32.4898720
  74.1306543  62.0861959  31.7266035  73.9953136  61.9259167  33.2255960
  82.1150979   4.7254699  33.9639783  82.3384770   4.1609137  34.7039866
  81.5835055   5.4232734  34.3469930  77.4158096  60.9137726  43.9417505
  77.5500011  61.0457325  43.0032349  78.1567907  60.3734303  44.2159986
  69.8650599  53.0702448  38.7770414  70.6311655  53.0350447  39.3498230
  70.1127195  53.6812544  38.0830908  76.8216848  58.2181406  13.2549846
  76.2159395  58.8896275  13.5686922  77.5415325  58.7104368  12.8603935
  61.5716743  93.5519218  24.1775441  62.2047424  93.2262325  23.5377145
  60.7219887  93.4435272  23.7503266  79.3747997  85.7387447  20.8345842
  79.0053511  85.2337742  20.1101923  80.0042057  85.1450253  21.2439442
  69.0394966  69.7939335  87.6567894  68.6162941  68.9356838  87.6336706
  68.8504306  70.1306950  88.5326177  92.6848412  59.7388697  55.0876522
  93.4908295  60.2355146  54.9463892  92.1234894  59.9785089  54.3502951
  34.8615623  82.0646477  69.2809486  35.7780337  81.8514633  69.1052628
  34.6403551  82.7278709  68.6271667  60.9566879  74.0839958   8.8269621
  61.6518259  73.6789274   8.3083719  61.1482525  73.8248158   9.7282726
  69.9118328  79.4637632  53.2787132  70.8136082  79.3816185  52.9684210
  69.8494530  78.8394022  54.0015650  22.0633308  10.5437034  55.3809071
  21.6665928  10.3393405  56.2277079  23.0012504  10.6006759  55.5633497
  92.3116112  68.5335875  20.7469106  93.0949211  68.3970642  20.2139735
  92.1389198  69.4728851  20.6826568  96.5271672   9.5657008  55.0325298
  96.5990885  10.5190986  54.9867773  96.3055905   9.3857902  55.9461880
 107.7312374  84.7712612  38.2745075 107.9035378  83.8333797  38.1912184
 107.1972084  84.8473740  39.0652370 104.6775635  19.3198150  36.8904829
 105.3141411  19.5872252  36.2275410 104.9430760  18.4328692  37.1335053
  73.9203072  89.1383839  23.7608695  74.6690035  88.5556221  23.6340404
  73.3852863  88.7003613  24.4227767  50.8525610  89.6406746  19.1504788
  50.9063196  89.7585392  18.2020867  50.4012060  88.8040543  19.2626512
  50.6574488  84.9212742  65.9074640  50.6537819  85.6852245  66.4841795
  49.7325087  84.7517586  65.7286119   0.8512918   3.5261577  43.6381960
   0.4574482   2.7722590  44.0772200   0.1354496   3.9087623  43.1308317
  63.9349508  72.0334911  28.0934048  63.9326954  72.1338844  27.1414852
  63.6529684  71.1305428  28.2396841  91.3458633  78.7546682  38.0442142
  91.0034370  78.3899021  37.2281766  92.2768211  78.5323095  38.0338955
  81.8687439  73.6349916  16.3262141  82.3542023  73.9040613  15.5463648
  82.5327396  73.2579947  16.9034576  86.7702103  83.9393044  22.6829433
  87.0877647  83.1226349  22.2976613  87.5297451  84.2993259  23.1408978
  71.5268898  67.4576092  21.7548084  71.4100266  66.5674448  22.0867467
  71.3368607  68.0200863  22.5056362  47.2918510  64.8257637  21.1028004
  47.4851513  64.8387575  20.1654100  48.1496811  64.7674513  21.5234590
  82.1237906  11.6216224  39.1206503  81.9674834  11.3152736  38.2273698
  83.0640849  11.7979186  39.1523027  42.1084348  51.7514168  84.0181663
  41.8761722  50.8806358  84.3407067  42.2759000  51.6241394  83.0843627
  87.3614979  66.2598181  48.4730625  86.6213799  66.7165565  48.8728666
  87.5642014  66.7717314  47.6900673  49.5875597  89.7881603  65.8056736
  48.7930155  89.7495556  65.2732849  49.5358276  89.0163517  66.3694715
  51.4811277  85.6462479  41.5981102  51.7908621  85.3494644  40.7424116
  51.4561033  86.6003990  41.5260410  73.3879948  87.7445030  37.3673105
  73.3038998  87.8217220  38.3176780  72.6148748  88.1904697  37.0214319
   3.4419910   4.8815768  27.1313262   4.2772428   4.9913829  27.5857735
   3.4907095   5.4865210  26.3911223  37.3467588  80.0869751  66.8445492
  36.8098140  80.8259106  66.5583944  38.1473327  80.4890156  67.1817112
 103.2987309  73.5856628   9.5453107 102.5157738  74.1343689   9.5914745
 103.3822918  73.2132292  10.4231167 104.0289219   5.2921718  33.8396263
 103.6274727   4.5075267  33.4662485 103.3170088   5.9309428  33.8767195
 104.2464828  95.0342846  26.4165878 104.2135048  94.2756844  25.8337808
 104.8283386  94.7651291  27.1273804  26.9987861  19.6029554  81.3013476
  26.9197074  20.2181278  80.5722785  26.8723861  20.1405798  82.0831495
  85.3921604  65.9936857  27.6534057  84.9024773  66.8138838  27.5924325
  85.6938744  65.8279037  26.7602587   9.1116993  33.2350867  50.6033087
   8.2016365  33.4371798  50.8204937   9.5751468  34.0647643  50.7176685
  88.0427265  89.7036934  27.5937557  87.2619629  89.4901752  28.1046915
  88.4657860  88.8591957  27.4386096  99.7138794  10.0255721  28.8435626
  99.1194399   9.4317096  28.3850932  99.1363820  10.6406825  29.2956257
  59.4921732  53.3605194  18.0908608  59.7273064  54.2457199  18.3690190
  58.5414505  53.3213711  18.1948996 106.1722048   2.6342051  20.8184457
 105.4817828   2.4117511  20.1938987 106.7288884   3.2553714  20.3488755
  35.0916958  99.8074436   3.0831835  34.3295646  99.3649292   3.4567672
  34.7653699 100.6694031   2.8247827  94.2494774  64.1214323  44.6500444
  93.4902763  64.6880388  44.7871876  94.1708279  63.8313913  43.7412405
  72.8900623  86.9612312  52.6618433  73.6221790  86.5310287  52.2200727
  72.8854704  87.8503609  52.3073578  60.0025749  80.1139355  57.4958086
  59.2365646  80.4791546  57.9386187  60.7367277  80.6383514  57.8155661
  87.0670700  65.5504227  39.2389917  86.6202354  66.2303162  38.7346959
  87.5918102  66.0322714  39.8782945  73.0285311  70.6941700  38.4808755
  72.4449062  70.0333357  38.1081676  72.9736042  71.4320755  37.8736567
  81.2985611  62.6748514  20.4727554  80.7491112  61.9002628  20.3529763
  81.3499832  63.0690002  19.6019900  57.7400589  93.1957245  43.7335396
  58.5654402  93.4996033  44.1112089  57.1986771  92.9712009  44.4903278
  39.0002195  53.4255825  87.6806554  38.5293952  52.6770340  87.3142737
  39.8489276  53.4146153  87.2381626  53.3888817  94.6770191  47.3293304
  53.1255007  94.5505905  46.4178085  53.5458517  93.7919140  47.6582527
  84.0990734  84.5831394  18.2929552  84.3828773  85.3880596  17.8596067
  83.6311531  84.0975571  17.6136172 106.5044244  20.9583698  77.6779216
 107.3644574  20.5494248  77.5812810 106.0220011  20.3677260  78.2563972
  78.4017754  75.8167028  30.6315470  78.5146046  74.8995972  30.3816962
  77.4550867  75.9256363  30.7217836  77.1730804  71.9501495  18.9268088
  76.2490940  71.9491053  19.1767752  77.4523306  72.8579664  19.0456569
  69.0491962  64.6394396  43.6546373  69.6270752  63.9583445  43.9987183
  68.2214642  64.1889715  43.4868145  15.7851307   4.6910232  25.8167744
  16.4172832   5.3049987  26.1904812  15.1362030   4.5644420  26.5089488
 103.2319450  36.1440825  51.2992859 103.7013340  36.8030906  50.7877922
 103.8202858  35.3892016  51.3148165  19.0856640   2.4608081  43.5024786
  19.9394027   2.0336860  43.4323406  18.5096065   1.7868846  43.8633299
  82.7485951   6.7141765  46.5053940  83.2919796   7.1490519  45.8482456
  82.2246703   7.4184649  46.8871164  84.8431500   4.8925059  12.5181806
  84.9020918   4.8869937  13.4735489  85.3742465   5.6422561  12.2497654
  83.1934738  71.2299919   3.4212121  83.3281422  72.0226479   3.9406291
  83.0310345  70.5440331   4.0687510  57.3355103  98.2904434  50.8473063
  56.7231464  99.0238953  50.7900190  57.4764538  98.0245686  49.9386406
  87.5449753  94.5050526   1.0185800  87.3877335  93.9144802   1.7552838
  88.4028530  94.2455959   0.6824890  85.3807163  51.6866350  34.9415255
  86.1651230  52.2285080  35.0270891  85.6826973  50.7972622  35.1260710
  84.0917110  83.8745213  21.0591125  83.8376617  84.3157291  20.2485394
  84.6396160  84.5118809  21.5171528  62.0065260  83.9607048  28.7985587
  61.7259407  83.7047386  29.6771860  61.4297390  83.4723186  28.2111597
  15.0506775  24.5253032  72.8647470  15.8437530  24.9211734  72.5034285
  15.0284855  24.8212378  73.7747812  86.5960272  25.1087707  40.5371094
  85.9158619  24.4377559  40.4793549  87.3512753  24.7231048  40.0931644
  45.9000969  81.2918377  30.1855016  46.6545868  81.3996506  30.7645988
  45.2134323  80.9372139  30.7502651  57.3213482  78.2924604  63.2452393
  57.2464848  78.6533594  62.3618507  57.2290659  79.0505648  63.8222980
  59.0943241  90.7992935  15.1563692  58.8427162  90.0501442  14.6162760
  59.8641777  90.4986382  15.6392348  30.6508819   8.7760108  18.3376324
  29.9912254   9.4122165  18.6138999  31.0695831   9.1798728  17.5774932
  17.4862281  74.1664730  80.8823895  18.1046049  74.3883263  80.1862401
  17.9832737  74.2866932  81.6915422  73.8337183  98.2599354  41.7216778
  73.9853477  97.7975082  42.5459337  73.4837437  97.5913525  41.1328220
   8.5689155   4.3418448  57.5022602   8.3026115   3.5802024  58.0172539
   9.2507354   4.7600024  58.0280924  47.2060013  90.4482269  12.8796053
  46.7136908  90.5688477  12.0676231  48.1020403  90.6999779  12.6560795
  69.0633488  53.5437965  23.1864309  69.6941280  52.8862286  22.8932428
  68.5719919  53.7728453  22.3975492  69.6471500  78.8234138  24.0828419
  70.6026506  78.8492680  24.1336322  69.4152498  77.9434109  24.3795896
  59.2296553  86.4249420  42.8523111  59.5920134  85.8328724  43.5113859
  58.5651159  86.9286442  43.3223104  41.3139049   0.9997981  24.3750596
  40.7487861   0.8259623  23.6222911  41.3959686   1.9531959  24.3978381
  63.4663582  99.3215561   5.7129318  64.0940523  98.7412262   6.1435723
  63.5911894  99.1579342   4.7781175  55.9675304  66.5557610  61.3372987
  55.3197090  65.8512436  61.3520449  55.4583065  67.3456036  61.1554354
  91.1112785  82.0278645  32.3256707  90.9587669  82.6098728  31.5811968
  90.3036880  82.0766354  32.8371930  78.2923412  76.2788677  12.5662637
  78.2882214  76.6681671  11.6918147  77.4835968  75.7683134  12.6049566
  74.7802162  88.7725735   7.9332948  75.6290007  88.3571243   8.0856073
  74.5650053  89.1904354   8.7671459  97.3327541  92.9883194  20.2893233
  97.6117897  93.8309765  19.9311244  97.3549843  93.1122398  21.2382078
 107.8215893  24.5620006  63.8847971 108.5575207  24.7081702  63.2904387
 107.2745331  25.3410762  63.7847710   5.1514800  94.7981548  36.0601258
   5.1059516  94.7979259  35.1040077   5.4636748  95.6746578  36.2848377
  84.5259571 101.0520744  59.1815901  84.0147209 100.2478790  59.2717838
  83.9307880 101.6675091  58.7535143 105.1208019  71.0145950  15.1276433
 105.9425545  71.0740042  14.6403813 105.1857185  71.7012596  15.7913506
  63.4304285  41.7682266  12.7891099  63.2834768  41.0455704  13.3993578
  64.1227531  41.4537382  12.2077203  66.6410780 100.0666332  49.1383982
  66.6173458  99.3142700  48.5471106  65.7419968 100.3950214  49.1443634
  80.1852322  79.6724272  27.8830695  80.2526474  80.5802345  27.5871444
  80.6552410  79.1684294  27.2187543  62.9798365  50.3116465   7.7159208
  62.8287077  51.1388397   7.2586018  62.2637606  50.2533531   8.3484334
 104.8569830   3.2167571  18.4388852 104.6810254   2.3844188  18.0001450
 104.6377238   3.8822883  17.7867901  35.1791994  10.3225695  78.7088477
  34.8660842   9.4315611  78.8647294  34.7660963  10.8452831  79.3961256
  26.3483755  72.6407181  83.3243212  27.0284215  72.5599514  82.6555556
  26.5894977  71.9966541  83.9901045  28.1752292   7.6020895  84.2740416
  27.6564638   6.8637930  84.5934534  29.0482322   7.4570023  84.6387970
 104.1047955  59.8128557  37.1542454 103.6791611  58.9620399  37.0485282
 104.7071075  59.6898317  37.8879476  66.3291255  44.2117630  82.0769429
  67.2725288  44.1559731  81.9249207  66.2014667  45.0718533  82.4771744
  54.3777084  77.1983767  40.9547997  54.0434647  78.0911016  40.8679056
  55.3247738  77.3048449  41.0440588  63.1060410  81.4635468  37.3247790
  63.0270481  80.7011127  37.8980947  63.6359262  82.0848751  37.8241849
  77.8096628  94.3422985  58.6434793  78.3014059  93.6305618  59.0531683
  78.4517002  95.0432968  58.5310793  41.9202367  38.9351879  73.9519936
  41.4744274  39.4295059  73.2641452  41.8389789  38.0208050  73.6808401
  78.6825705  64.1361380  42.6941824  79.4410801  63.5545683  42.7459526
  79.0426159  65.0122261  42.8322649   6.0763867  97.4061578  87.4222897
   6.6756471  97.5459378  88.1554876   5.9358676  98.2800382  87.0578530
 103.1852531  89.0593052   5.6229454 103.7840557  88.3195782   5.7252467
 103.2074547  89.2577362   4.6868026  30.4353324  73.7074791  79.0591699
  30.0053684  74.4825684  79.4205630  29.7155086  73.1511723  78.7615001
  58.2815790  98.9898014  57.4193382  58.3120346  98.1056976  57.7849388
  57.9370880  98.8712120  56.5341854 101.1365795  34.2547894  40.7318449
 101.4723015  34.4245553  39.8516750 100.6708717  33.4221411  40.6540871
  65.8279848  85.0519943  29.3690872  65.8023977  84.7406673  30.2738833
  65.2280426  84.4726181  28.8993859  69.8192215  69.7501564  32.0781350
  70.4092026  70.5011415  32.0134950  68.9600945  70.0994205  31.8411732
  15.5871383  21.8362754  20.6883764  15.0819961  22.2117179  21.4095616
  16.1723224  22.5419467  20.4130030  10.9990732  50.8537613  85.7100174
  10.2045242  50.6851421  85.2035656  11.5081874  50.0468861  85.6326043
   0.7004158   8.4664195  32.5160813   0.9367267   9.2864364  32.0825505
   1.3571397   7.8384536  32.2150731  68.0498886  86.0524178  68.9583111
  68.2993889  86.0203552  69.8818684  67.4549198  85.3111935  68.8450766
  85.8725166  64.2433500  35.0574851  85.1683712  64.8755693  35.2013612
  86.1177540  63.9538670  35.9362864 104.4612607   1.1407798  16.8461275
 103.5799702   1.1352485  16.4725852 105.0359925   1.3172954  16.1013091
   4.4574920   3.7875448  81.6537881   4.5819513   4.5229183  81.0538119
   5.0387279   3.9781128  82.3900473  56.8302917  53.1679916  18.3923566
  56.9094896  53.0312729  19.3364251  56.2238359  53.9036179  18.3069229
  54.1807652  93.9131927  12.4100208  53.7243366  94.1485214  13.2178116
  53.9529228  94.6099281  11.7944920  55.4738712  88.4449863  25.1596022
  54.5931721  88.5595608  24.8025632  55.8789921  87.7892971  24.5919895
  43.2074157   4.9567454  35.5712843  43.9084331   5.5136054  35.2325916
  43.4476749   4.7977870  36.4841056  25.0979892   9.4681781  64.3803787
  25.6946937  10.2163833  64.3614435  25.6731502   8.7040656  64.4197273
  29.0543318  98.8246250  41.0713196  28.2664728  98.3298302  40.8462000
  28.8305116  99.7341347  40.8739758  15.5296985  10.6409114  21.9732881
  14.9180786  10.5315059  22.7014256  15.4837887   9.8127978  21.4954400
  77.7667952  98.4742641  10.7854486  78.4789610  98.7883854  10.2283287
  78.2058287  98.1228065  11.5600193  98.3322152  24.5415061  34.2359900
  98.5049542  23.7893241  33.6697674  98.3185729  25.2911227  33.6409116
   2.4572833  85.3822327  34.3888307   2.5420745  86.2619877  34.0213084
   1.6722854  85.4253960  34.9348545  63.1948900  98.2604313  12.5960672
  63.3670187  97.3212719  12.5282848  63.5194111  98.5013962  13.4637380
  72.8821278  72.8997135   2.8303006  73.6383772  72.3210859   2.7327618
  72.8969717  73.1600761   3.7512901  76.8210983 101.0826969  46.9550467
  76.9587851 100.4156017  46.2825489  76.0035992 101.5119743  46.7027569
  15.7182113   6.5464251  75.4293251  14.9021522   6.1855643  75.0828218
  16.2236969   6.7848056  74.6522188  27.5529186   6.1784404  33.5459852
  28.3270351   5.8300155  33.9882326  26.8480865   5.5777400  33.7880540
  89.9068356  67.6216602  38.2764530  89.8743725  68.2470560  37.5525355
  89.6269703  68.1253147  39.0408063  18.4276287  34.1701644  78.6176682
  19.3414680  33.9179748  78.4852362  17.9415504  33.6567347  77.9724169
  12.0721618  30.4540198  54.5737743  12.5122539  30.7599395  55.3668451
  11.6020767  29.6669906  54.8491430  51.5171234   4.9345248  52.6520777
  51.2735740   5.5120223  53.3755541  51.4280502   4.0513270  53.0101967
   6.7967455  27.2688907  41.2492466   6.0647194  26.9998496  41.8042135
   7.2011558  27.9962295  41.7221785  91.7517853  79.3358803  32.3444223
  91.9170952  79.1225767  31.4260507  91.6350460  80.2859020  32.3523903
  16.3355533  24.0598910   2.8577450  15.9144775  23.8168567   3.6822873
  15.8078758  24.7854655   2.5240907  68.5603762  67.8966141  44.9618101
  69.2305088  68.5591412  44.7938490  69.0117741  67.2229147  45.4703379
  58.9714098  78.3256245   9.2696089  58.9319515  78.9802790   9.9668211
  58.1113911  77.9057217   9.2863846 102.1888073   0.8816188  14.2082310
 102.2054442   0.2416270  13.4966385 101.4959343   0.5727618  14.7919881
  23.2601539  31.9923633  39.5583153  24.0625660  31.5193217  39.7787881
  22.7265922  31.3523715  39.0871930  97.6157197   7.9463618  53.1111050
  97.1976050   8.5196727  53.7535477  98.5519560   8.0233615  53.2948542
  74.6140003  98.7915802  26.7482352  74.8520470  97.9469681  26.3658595
  75.2669764  99.4020367  26.4059043  90.4578781  80.2382469  48.8846493
  90.0274658  80.5403423  48.0848312  90.3923321  79.2840672  48.8461685
  19.2980663   3.6792033  41.2505150  19.1281025   3.7208980  42.1915817
  18.4661094   3.9246982  40.8457661  99.0959454  87.2846222  30.6465411
  99.2429733  88.2301903  30.6693840  98.2648468  87.1603203  31.1048579
  49.0499306  83.6025238  21.4733529  48.2196331  83.1433201  21.3469839
  49.1311455  83.6936760  22.4227357   3.8488666   0.8917563  40.0124502
   3.8240663   0.0455039  40.4590893   4.7431604   0.9599631  39.6780467
  77.6259470  70.4367638  63.1550550  78.0018616  71.1497927  63.6713028
  76.7277813  70.3563213  63.4760857  73.6515141  62.8742933  35.3708482
  74.1932678  62.1582747  35.7025814  72.8062153  62.7555895  35.8039927
  80.4126453  87.8373623  17.1564567  81.1577320  87.3106766  16.8671799
  80.5776978  87.9956341  18.0859423 107.7485466  83.7539101  33.2079053
 107.0096016  84.3382072  33.0382109 108.1906700  84.1402435  33.9638877
  62.9759208  14.8688351  69.2448956  62.4872867  14.5553528  68.4838479
  63.2380954  14.0720497  69.7060138  26.5157882   6.9132178  30.0691700
  26.4951126   7.4952071  29.3095064  27.0026485   6.1454814  29.7695351
  74.6991777  99.1060448  32.9197693  74.1308355  98.3636189  32.7147841
  74.5670176  99.2576313  33.8556027  68.7638942  43.9363800  81.2625700
  69.0991394  43.1766354  81.7386114  69.0728752  43.8121925  80.3651637
  53.2535696  80.2798271  32.4909854  53.8375187  80.0534344  31.7671180
  53.7826300  80.1438808  33.2770157  61.1705446  73.7451267  35.4972267
  61.4913940  74.0083885  36.3597703  60.2197695  73.8385820  35.5565739
  17.7453120 101.6411400  17.7495801  17.6887592 100.8273125  18.2502997
  18.0536159 102.2903919  18.3817661  94.8167515  92.9140472  18.5022879
  95.7229614  92.6217651  18.6002207  94.3067741  92.1048546  18.4652650
 101.7963314 101.6844177  38.4869599 102.7255917 101.9067287  38.5442686
 101.6312790 101.1439228  39.2595291  89.5339012  82.0346260   2.1173203
  89.2392921  82.2770119   1.2394306  88.7408066  81.7355251   2.5620404
 104.6598490   4.3103259  52.1041822 103.7486752   4.5508044  52.2720146
 104.9484452   3.8863986  52.9124069  71.2672567  72.9399490  34.2455363
  71.4327335  72.3283482  33.5280442  70.8902740  73.7106705  33.8211465
  85.0704249   0.5724853  26.9753623  84.7074851   0.4926436  26.0932469
  84.7460326  -0.1997716  27.4386287  14.4757835  24.8628467  47.9449940
  14.3518631  25.3508704  48.7590694  14.3305675  23.9487975  48.1892204
 105.0793131  11.0038035   3.9350274 104.8787745  10.1396316   3.5755566
 104.3377169  11.2035506   4.5063111  51.9279146  95.1785374  34.8913836
  51.0710573  94.9736881  34.5171356  51.9741488  96.1344814  34.8748612
  67.3057270  82.0612621  36.3702512  66.8466187  81.2359905  36.2141180
  68.0319548  82.0530128  35.7467484  98.8047409  64.2307520  22.1128273
  98.8023853  63.8570404  22.9940557  97.8804207  64.3788433  21.9130039
  38.2086746  27.8569262  14.5279872  38.0217258  28.7647098  14.7671700
  38.5966770  27.4766391  15.3160667  38.8487411  90.4377174  23.1971455
  38.7998796  89.7739601  22.5091982  37.9509425  90.5144882  23.5200953
  23.2028572  51.3523804  79.0284282  24.0633527  51.0066639  78.7912249
  22.5935451  50.8982788  78.4463888  40.8900777  50.0050961  72.9779941
  41.5111963  50.6872784  73.2330805  40.8834354  49.3982731  73.7182361
  69.6791267  87.6640511   9.8806518  70.0340128  86.8004036   9.6699274
  69.5693016  87.6523876  10.8314586  24.5127956  15.2597278  42.2758627
  25.2562515  15.2610057  41.6729546  24.6875660  15.9869807  42.8731823
  98.8518238  69.3453550  12.4743199  98.2955074  69.9861813  12.9171419
  99.7426701  69.5836735  12.7308869  22.1746333  95.9221077  61.7274094
  22.4876960  96.8028355  61.9336271  22.0768054  95.4970646  62.5794649
  71.7647982  56.3049173  12.0828533  71.0673952  55.7212210  12.3814547
  72.4199057  55.7201147  11.7019725  68.9879465  73.0131578  29.7660041
  68.6613798  72.3824930  30.4077554  68.5697365  73.8394642  30.0079846
  89.6850681  66.2970686  29.2917156  88.8390064  66.6943407  29.4980764
  89.5934772  65.9941816  28.3883333  50.1781273  85.9769249  34.6245670
  50.0826073  85.6683350  35.5256128  50.4625511  86.8867111  34.7118640
  57.0465183  88.3991241  50.6995153  57.7295160  88.9085579  51.1356544
  57.0161200  87.5745296  51.1846352  59.6972116   2.5656169  26.8398738
  60.3890689   2.1105044  26.3598347  60.0226387   2.6160758  27.7386427
  16.8433181   0.4217570  30.0176930  16.9607059   0.8320754  29.1609025
  16.3852588   1.0814708  30.5384564 105.9308529  94.8528767  28.8047624
 106.2060642  94.4305897  29.6184945 105.4797268  95.6480789  29.0882683
 104.9486160  88.7642860  34.0180397 104.6460342  88.2112217  33.2977629
 104.1468143  89.0348244  34.4654274  10.2999107  23.3424228  54.1951799
  10.5657093  24.1984504  53.8593197  10.1665775  22.8086799  53.4118748
   4.8803131   2.0482486  25.6750107   5.6038324   1.4763587  25.9313059
   4.4146578   2.2262233  26.4921570  38.4855445  84.5854759  22.0381641
  38.5799010  83.9835548  22.7764177  39.3104537  84.5078278  21.5588689
  76.1848164  88.5400009  37.9673767  75.4059839  88.7939167  38.4625316
  76.1565447  87.5833702  37.9504704   0.5485614  80.5714130  42.0400667
   0.9459384  81.4071560  42.2847319   0.3974326  80.6448269  41.0977268
   5.5631391  21.6702788  42.9653072   5.3569166  21.9836657  43.8459301
   5.4055540  20.7269233  43.0037832  68.2283831  95.4480362  46.4879513
  68.1329775  95.2563381  47.4208927  68.3371973  94.5903587  46.0771132
  50.6503288  22.9529422   4.7371441  49.9430172  23.5918754   4.6494183
  50.2154152  22.1031039   4.6674889  25.5144684   6.6838878  36.7621279
  26.2636558   6.3220065  37.2354007  24.8068992   6.0588401  36.9198561
   5.6861393  26.3116687  31.3207698   5.3555767  25.9752601  32.1537089
   6.3316433  25.6631320  31.0397696  87.3368931  81.8357754  13.7360787
  86.5448189  82.2900867  14.0232301  87.7474594  82.4386978  13.1162786
  15.1222308  82.7483368  47.7610207  14.9053367  83.0878639  46.8927431
  16.0717185  82.6286697  47.7410841   6.6984789  49.1644233  47.8019381
   6.0911647  49.8636859  48.0436802   6.1745874  48.3647864  47.8504181
  28.6071960  13.4300654  53.9569187  28.1675140  14.2190211  53.6399364
  29.0554802  13.7099593  54.7549963  90.9392071  67.2262812  13.7921119
  90.2592945  67.2435760  13.1185710  91.6129684  66.6461945  13.4374678
  31.0181705  30.2622359  59.9455595  31.7148678  30.2940124  60.6011820
  31.0980407  31.0896056  59.4708967  64.9905205  88.8331032  53.0772686
  64.6029234  89.6382427  52.7341127  64.6481991  88.1419563  52.5103855
  86.4296237   9.7942720  84.3898770  86.7285625   8.9541374  84.0419748
  86.8555728  10.4482256  83.8356727  40.5646793  22.0370334   6.9164604
  40.4412071  22.6693767   7.6243705  41.4168064  22.2602218   6.5418786
  73.8534641  77.6986265  31.2629938  74.2738342  78.4868908  31.6067386
  72.9272747  77.8076506  31.4786816  16.6010086   7.4112075   5.7206374
  15.6776325   7.3762649   5.9703904  16.9546310   8.1515449   6.2136751
  19.8350414  58.0801058  23.4233880  19.5764049  58.9560890  23.1370425
  20.4446204  57.7782297  22.7499485   1.1546604   0.9023517  39.4309449
   2.0930711   1.0195106  39.5788884   0.7552568   1.6965907  39.7857523
  82.9373169  74.8350763  14.0380251  82.3798275  74.9219465  13.2647872
  83.4609413  75.6362963  14.0470088  46.8804161  57.8130566  81.4605134
  47.4972526  58.3239304  80.9363436  46.1229412  58.3884369  81.5672952
  95.8184012  25.8673423  42.1739006  95.6517132  26.2335628  41.3053799
  95.6434878  26.5903609  42.7763033  70.6471109  76.1522102  24.9202919
  69.9752760  75.4707956  24.9435353  71.2263250  75.8931446  24.2036152
  58.5761976  98.7510872  42.4055672  57.6264381  98.6680412  42.4909687
  58.9121962  97.8781796  42.6089525  16.5614978  10.9758895  36.7702031
  17.1495048  10.2233069  36.7061663  16.9014541  11.4834350  37.5071287
  93.0570984  93.2690811  34.9523115  92.5787354  92.6806450  35.5363917
  93.8547707  93.4882355  35.4338884  20.2239124  19.8806231  59.0388727
  20.9236709  19.9865764  59.6833420  20.2859584  18.9651626  58.7662792
  97.0758438  67.5804520  18.6464620  97.1477127  67.1428680  19.4947469
  97.9385281  67.4707270  18.2465100  67.9705858  92.8880119  45.3491211
  67.6293755  92.0155048  45.5454683  67.6105213  93.0976582  44.4873571
  75.5219841  86.6010666  47.9473495  74.7477674  86.1480618  48.2814312
  75.1838064  87.1835041  47.2671747  78.3674622  79.4022751  40.7736635
  79.3217278  79.4650316  40.7328415  78.0600500  80.2823830  40.5565596
   4.4667991  93.8403893  44.6599960   4.6655353  93.5644054  45.5547428
   3.5156234  93.7591457  44.5899725   3.7137167  26.5865462  41.5490961
   2.7671711  26.6843074  41.4455080   3.8312189  25.6800120  41.8330288
  38.5757867  19.7026907  84.0051913  39.3882934  19.7720419  83.5039407
  38.8411752  19.8495089  84.9130702   1.2289317  72.3851776  37.4842262
   0.7467349  73.1567192  37.1868372   1.9056876  72.7344894  38.0640626
  52.5013447  32.2218370  31.8362689  53.2830143  31.9017172  31.3859868
  51.8732119  31.5029836  31.7660570  18.2633630  85.4100103  18.2415843
  17.9877082  86.0914189  17.6284540  17.5200216  84.8082394  18.2809150
  72.3747468  55.5315312  83.1551105  72.0735788  54.9403253  83.8450417
  71.5826106  55.9833007  82.8641563  46.7022276  38.2763839  26.2656593
  47.1720028  37.8768539  26.9977260  46.9829178  37.7761459  25.4993629
  40.7028818  46.0745907   3.5358253  39.7844863  45.8059597   3.5607558
  41.0033560  45.9846973   4.4401848  85.4101515  73.5075896  76.7111307
  84.7875738  73.1349223  76.0868305  84.9848080  73.4067982  77.5626915
   0.7895765   4.1914728  49.5447302  -0.1567046   4.3354332  49.5370150
   0.9479621   3.6006021  48.8085127  58.1022120  10.2901018  26.7499995
  58.7697268  10.0199437  27.3806095  57.9882812  11.2271881  26.9084978
  41.6084528   3.2072905  38.0557299  41.4655018   4.0557578  37.6363254
  42.5518799   3.0614340  37.9857349   3.2324892  21.5025735  50.4280806
   3.4325138  21.9357991  49.5982981   4.0839934  21.2211394  50.7626963
  88.3389091  23.6903143  11.7091537  87.7117729  23.9047575  12.3997676
  88.1231022  22.7915788  11.4602900  17.7081005  76.2328631  27.4279785
  17.3122207  76.1708934  28.2972741  17.9340354  75.3303773  27.2028017
   5.5097216  11.9230425  40.3294563   5.2546108  11.7623866  41.2379360
   5.0701231  12.7413213  40.0983620  74.9935460  70.0405841  64.3127435
  75.2521705  69.2667323  64.8132413  74.0610742  70.1469272  64.5009440
  73.7516951  54.6810611  80.2933442  73.7091923  54.7689330  81.2455541
  72.9089641  54.2976787  80.0503385  84.8606968   6.9445914  14.9510908
  85.0103378   7.3873591  15.7864332  85.4043770   7.4233854  14.3254685
  53.8220072  34.6030068  31.1733246  53.0885601  34.0521550  31.4469075
  54.5422220  34.3462396  31.7491627  28.2098818  58.4900427  29.3377686
  28.2996058  59.1209745  28.6235523  28.6387396  58.9098310  30.0834823
  38.8134599  60.7714701  53.3427477  38.5866594  59.8418760  53.3682680
  37.9976273  61.2230730  53.5588551   1.7721164  29.4842529  33.4432507
   2.4553744  29.6376634  32.7906752   2.1202390  28.7832284  33.9942575
  24.3245451  86.5922958  30.7759285  23.8517515  85.8979065  31.2347507
  24.4518796  87.2726376  31.4371037  20.2098934  92.6816601  49.3014717
  19.8877803  93.5409004  49.5738316  19.4847385  92.0846147  49.4856453
  62.7335739   1.0213370   1.9570410  62.3083353   1.8787649   1.9421160
  63.5477448   1.1661305   2.4391106  62.5848866   5.4587024  22.5007057
  63.0819130   5.5831122  23.3092380  62.2584867   6.3319087  22.2834373
  78.3852529  96.3232797  81.1831766  79.1111231  96.9013780  81.4179992
  77.6410913  96.9120830  81.0576135  77.6521921  26.4574146  44.9672747
  77.0768499  25.8292127  44.5307255  77.7416039  27.1757174  44.3409491
 100.7964762  92.1662290  25.4512525 101.1027273  92.6749492  24.7004890
 100.8200081  92.7821625  26.1835814  34.6876375  92.7350570  37.2704792
  33.8714305  93.0226059  37.6795721  34.4372980  91.9755299  36.7444730
  46.3996410  30.2870107   0.9614547  45.9355927  30.6875014   1.6966423
  45.7055330  29.9955654   0.3702639  31.7343307  66.7835760  35.7326293
  31.2596583  66.2853241  35.0673032  32.3234034  67.3492146  35.2333474
  43.1799889   9.1677827  27.9328704  42.4246836   9.3789095  27.3840785
  43.9361143   9.4519258  27.4192834  20.5497352 101.1156867   2.8302085
  21.3005964 101.7040026   2.7506799  20.8066694 100.4895789   3.5071173
  51.4889622   1.3991189  31.4674640  52.3719883   1.3407333  31.8322849
  50.9150314   1.4286526  32.2329450  38.6722627  41.5704637  71.8543547
  38.5666075  41.8783426  70.9541994  39.1030440  40.7200890  71.7676300
  20.0182796  34.2057204  33.2244039  20.8065796  34.7485471  33.2367277
  20.2667999  33.4117222  33.6977267  80.9386921  58.2840192  87.7037551
  80.3505802  57.5775658  87.4367746  81.4168548  58.5117965  86.9064411
  60.8429050  53.6465931   8.7387097  61.6963530  53.6176205   8.3062500
  60.5057716  54.5212460   8.5449153  38.0182219  14.0091133  46.1307430
  38.4928489  13.2830310  46.5354252  38.2263899  14.7661245  46.6783142
  53.2551003  36.9424295  16.0419798  54.0791607  36.5562344  16.3386321
  53.5038662  37.5014734  15.3058982  55.1476049  43.2768536  16.1651683
  54.5631075  43.1225395  16.9073117  54.8127270  42.7058363  15.4737735
  50.7782459  15.0697148  30.1813269  50.4666376  15.4952657  29.3825531
  51.5534496  15.5715251  30.4332709  84.3437290  62.3218959  68.5384458
  83.5037613  62.7112859  68.2954281  84.3790054  62.4039977  69.4914657
  67.8305459  39.0929156  79.8021346  67.9952144  39.7148400  80.5108839
  67.6060653  38.2760006  80.2476573  17.7419797  73.0653102  13.0429041
  18.0064432  72.1523673  12.9296327  16.8150226  73.0774910  12.8044963
  25.5229020  70.6266880   9.8681349  26.4472556  70.7683945   9.6638781
  25.0515962  71.1571074   9.2256725  21.3234464  94.8529578   1.9351964
  22.2040502  94.7555918   1.5728587  20.7463972  94.8292685   1.1718594
  69.0663576  37.9751825   4.2229107  69.1288185  37.6666856   3.3189413
  69.9508715  38.2724714   4.4361857   3.4144052  98.1173127  67.0430153
   3.8245233  97.9397195  67.8894752   4.0369304  97.7787631  66.3995212
  51.6497850   7.9725391  17.3090994  51.2543726   8.7272763  17.7452755
  51.6378975   7.2804600  17.9702473 101.8628979  97.6660340  82.8082162
 102.2211122  97.6345342  83.6953014 102.5453043  97.2781175  82.2604322
  41.4100552  35.8138180  20.8266330  41.6522741  35.1329231  21.4542842
  40.4565811  35.8696437  20.8898854  65.3269887  83.2233685  84.2721230
  65.3339982  83.2572001  83.3155468  65.7191849  82.3764818  84.4847136
  66.2519693  27.6190519  14.1431940  66.5450048  26.7078090  14.1423738
  65.3708124  27.5876164  13.7706292  67.4148178   4.3842271  12.4683046
  67.5650692   3.4442127  12.5684571  68.2549667   4.7859824  12.6896238
  62.0540667  18.3218288  25.2138376  62.1499062  17.7634549  25.9853721
  62.2578096  17.7474737  24.4757080  55.1251984  13.2363415  41.6823483
  54.6766853  12.4251175  41.9210625  55.6292200  13.4696865  42.4619246
  66.3554239  14.6086407   4.9602494  66.9520664  13.8890803   5.1663530
  66.6479826  15.3295541   5.5178559  31.8310809   1.9947730  42.6427746
  32.4285483   2.4259275  43.2538128  32.4006033   1.4665931  42.0833921
  43.3755064   6.3458979  16.2811565  42.6363230   6.9514436  16.3373530
  43.4221983   6.1102849  15.3545833  25.4536144  97.9244823  25.8318090
  26.2106267  98.0328945  25.2561259  24.7334520  97.7031709  25.2413750
  39.2509985  38.1031084  27.6541734  40.1702547  38.3651209  27.7046442
  38.8510346  38.7444830  27.0668888  32.5361085  17.8065801  45.8565426
  33.0650926  18.4206021  45.3472424  32.8617454  17.8955984  46.7522383
  18.5960436  34.1997838  30.8171535  18.6597526  33.2653022  31.0144258
  18.4768343  34.6170950  31.6703081  60.6685829  41.7386436  24.8128510
  61.1319733  41.4373398  25.5943346  60.7366419  41.0085154  24.1976213
  80.4719639  16.4954746   1.7797938  79.8948669  15.9263241   1.2706241
  79.8770905  17.0444632   2.2906411 100.9739590  90.9339851  45.4187029
 100.9216595  90.1063793  45.8967894 101.0768747  91.5981954  46.1002224
  24.2379737  15.8270681  27.6621628  23.6115623  16.0764527  26.9827175
  24.4105434  16.6391635  28.1385612  48.0477428  30.8281851  19.2634082
  47.4474907  30.3986907  18.6539316  47.4782896  31.2097764  19.9314976
  49.4381571  27.8305960  26.0924911  48.9704895  27.0336318  25.8427548
  48.9292622  28.1890178  26.8196750  51.3743401  34.3019795  46.2133121
  50.7049751  33.7310767  46.5904713  51.4999151  34.9888563  46.8680334
  31.4756465  15.8417261  26.6255713  31.5759587  15.8533251  25.6737113
  30.5289221  15.8335853  26.7665553  43.9704800   4.2936072  25.6393647
  43.1569004   4.7516620  25.4284024  44.6397686   4.7449750  25.1250196
  43.2717609  23.9330316  55.2908039  43.8185072  24.5502162  55.7769918
  43.7630320  23.1117296  55.3093767  28.0829215  39.1638756  26.1879253
  28.2880187  40.0118351  26.5817928  27.6624274  39.3816090  25.3560543
  44.8327637  15.8757150  21.1498260  45.1598120  16.2112248  20.3151393
  44.8505211  14.9240148  21.0489082  15.4435527  44.0052223  40.4851294
  15.2287400  43.4960413  39.7035766  15.3664565  44.9173784  40.2053833
  10.2122871   5.9916769  62.4530118  10.7659666   6.0578905  63.2310170
   9.8573867   6.8729054  62.3359078  39.5627856  29.3303180  31.0319710
  39.7281766  29.7995567  30.2142334  39.6948719  28.4085941  30.8101392
  18.9848844  98.9254008  15.1379120  18.9280645  99.3595216  15.9891129
  18.0807725  98.6921791  14.9271679  59.5363688  70.0488597  59.7920102
  60.2620578  69.8125785  60.3697461  59.9397087  70.5810314  59.1061967
  37.6909518  14.4243860  10.1480234  38.0889463  14.5623124   9.2884833
  36.8310714  14.8398912  10.0832713  82.6255798  63.1356292  73.9178592
  82.4826765  64.0813416  73.9557916  83.5724401  63.0404156  73.8148015
  23.8508359  79.0608723  36.7502332  24.4118158  78.3299810  37.0097160
  22.9827587  78.8242204  37.0768380  84.2056608  90.0780147  77.3979205
  84.0119648  90.9152454  76.9763094  83.4137630  89.5560115  77.2689277
  66.6590071  36.1092973  16.6993248  67.3125219  36.7427921  16.4029479
  66.1846399  35.8649755  15.9046471  32.0419431  38.2261944  30.7025075
  32.1160722  39.0153217  31.2391806  32.8965974  37.8022814  30.7805943
 102.8967094 100.8912366  85.6236836 103.4278011 101.6596549  85.4146218
 103.3229732 100.5066579  86.3896015   8.6612503   0.6064020  65.8579939
   8.3809368   1.5002285  65.6612032   7.8570978   0.1536881  66.1122006
  81.5732421 100.6776477   3.6481619  80.9273078 100.0958060   4.0487370
  81.5957721 100.4134551   2.7284193  16.8610557  73.9175957  85.6624989
  16.5733321  73.3042663  86.3387213  16.4776214  73.5791700  84.8533758
  69.4572520  69.3690329  57.5605601  70.1660871  68.7954944  57.8518361
  68.6740064  69.0144234  57.9812854  28.6343336  17.5212014  25.2307129
  28.9310908  18.3060253  25.6913853  29.3599939  17.2965467  24.6483231
  39.1376805   8.6639172  33.5268021  39.8220539   9.3287438  33.6034155
  38.5162115   9.0312487  32.8982544  67.3814281  67.1701313   1.1589510
  67.7036007  66.2877883   0.9748060  66.8936594  67.4159099   0.3728754
  15.4883289  57.9989100  38.0927634  15.0290990  58.7201309  38.5230923
  16.1869228  57.7619219  38.7027097 103.8752063 100.6231752   8.8639897
 103.2831033 100.1490807   9.4478393 103.3539399 100.7909186   8.0788934
  68.7010860  59.3602943  76.2759608  68.8825440  59.4781947  77.2083801
  69.3183327  59.9448573  75.8360463  54.9121332  27.0530319  47.7352715
  55.1554823  26.3010550  47.1953249  54.4702625  27.6491141  47.1305656
  42.0555830  12.5522470   4.9326232  42.3494053  11.7531395   5.3700310
  41.2078953  12.7463841   5.3325874  62.5618792   6.9580364  26.6494918
  61.9456291   6.2287772  26.5813112  63.3993626   6.5911984  26.3661456
  14.8747579  94.0001602  19.3905151  15.5667058  93.5010082  18.9565957
  14.1704313  94.0452153  18.7438881  53.2477951   7.1270114  37.9337430
  53.3508968   6.4329672  37.2826648  53.2731295   7.9377955  37.4255896
  42.0234585  28.7715888  15.8539259  41.2147999  28.3338833  16.1198592
  42.7077866  28.1176662  15.9964454  29.1631818   7.5561804   2.0895094
  29.6774888   7.4200994   1.2937686  28.4862471   8.1824350   1.8330035
  89.7414255  69.7169774  76.4507907  89.8461532  68.9531785  77.0181304
  88.8136673  69.9419170  76.5207785  79.7776159  89.1970534  41.3175249
  80.3240552  89.0042884  42.0794153  78.9077224  89.3606097  41.6819000
  60.9806871  -0.0355740  40.3758717  61.7840624   0.1554842  40.8599329
  60.7480097   0.7948916  39.9606347  49.5875406   7.1960390  28.2034254
  50.1839590   7.8631246  27.8635526  49.8786688   7.0507181  29.1036248
  48.6741781  32.8115439  35.8726645  48.9481688  33.0844855  36.7482591
  49.4400024  32.3663640  35.5099607  75.3872871  22.9168987  17.4065757
  76.1796713  23.0418253  16.8843222  75.6658268  22.3626542  18.1355906
  81.5676975  43.5189581  15.3540897  81.9752026  44.3709850  15.5097377
  82.2062111  43.0412102  14.8246646  26.2259364  68.9544392  50.8372641
  25.6259584  69.6291971  50.5195284  25.7045794  68.4421110  51.4552784
  39.1968226  11.2197459  58.1532717  38.5596633  11.5023756  57.4972391
  39.2675805  11.9618309  58.7537193  95.9351854   2.8378284  45.7852316
  95.5219726   2.5802857  46.6093445  95.6486551   2.1754947  45.1563883
  19.4556371  88.4345431   8.3073455  19.5768634  89.0457589   7.5807428
  18.5143463  88.2612199   8.3200240  50.0036573  15.5609190  17.8947914
  49.4528055  15.8805418  17.1802044  49.4690609  14.8974538  18.3309698
  55.7273293  10.8654702  34.7971725  55.4394627  11.7680871  34.6606255
  56.5070248  10.7772064  34.2489743  51.5336418  53.1020212  14.3689620
  51.4347458  54.0064049  14.6665180  50.6446505  52.8237629  14.1487372
  73.8056278  28.0559850  10.5158734  74.1155672  28.9347029  10.7350147
  73.3965206  28.1538081   9.6560520  72.5425386  22.3219562  15.6359351
  72.2761011  21.6313958  15.0290000  73.4608412  22.1313906  15.8273625
  58.4346008  47.5224447  20.7271218  58.1205273  47.6985598  19.8402333
  58.4310770  46.5678263  20.7973027  82.3950577  32.9183197   6.8047321
  81.5890884  33.1852531   7.2467637  82.8092480  32.3049188   7.4117047
  24.5476198  30.8479238  23.9107013  24.8234892  29.9780560  23.6218047
  24.7288799  30.8568311  24.8505402  63.8922644   5.9242213   8.3248734
  64.1971350   5.8346981   9.2277968  64.6892595   6.0757893   7.8168857
  46.0908985  18.9781690  21.9515347  46.9776201  19.2896247  22.1330476
  45.5624628  19.3286645  22.6685739  25.4490137  36.1562347  44.7833300
  24.5959067  36.4480877  45.1046801  25.7666540  36.8854833  44.2508507
  28.9530015  34.1897249   9.6193117  28.9782405  33.6383009  10.4013133
  28.8660502  35.0809932   9.9574172   0.2821178  33.8005424  18.2150793
  -0.4839922  33.7942433  18.7888968   0.4616129  34.7287655  18.0653751
  10.7124654   0.0372206  84.4775131  11.3662044   0.5827128  84.0401369
  10.5865757   0.4520641  85.3309124  42.5557995  28.6483169  37.1434927
  41.9056034  29.2301536  36.7498660  42.1338940  28.3199620  37.9374790
  42.3157922  21.4345108  83.0050564  42.4860899  21.7173086  82.1065813
  42.2232954  20.4837881  82.9434484  42.2672081  18.7368810  21.5649199
  41.9355536  18.3282506  22.3644567  41.8502378  18.2480669  20.8553910
   1.6298596  18.7192808  87.7995310   1.6859356  18.4377419  88.7126696
   2.5384943  18.7407290  87.4992756  71.5752792  31.8499708  17.5258040
  70.6754303  32.1200228  17.3425698  71.5873194  30.9119701  17.3354256
  25.1564527  35.5397320  20.6641626  24.2118931  35.4010630  20.5948043
  25.3931689  35.1578546  21.5093660  21.8754649  42.9085684  34.1273141
  22.5832605  43.3605671  34.5866156  21.6468430  42.1768713  34.7005391
  65.4090261  35.2859068  39.1546130  65.7785034  34.6305585  39.7464252
  65.1391363  36.0023808  39.7291183  44.9982023  39.1915464   2.9749435
  45.6171608  39.8992920   2.7954489  45.2993870  38.8137817   3.8012686
 105.4334736  61.1018711  57.7509469 104.7748041  60.6879770  58.3086937
 104.9551916  61.3513904  56.9602388  68.0772543  28.3462429  31.9553161
  67.2322893  28.7686419  31.8008924  68.6531353  28.7095094  31.2825346
  91.2158537  57.0915835  85.5429598  90.8681536  56.2441372  85.8207567
  91.4457750  56.9659870  84.6223116   1.5274079  94.9637120  65.9265536
   0.6440766  94.6058410  66.0153311   2.0576222  94.2228072  65.6330126
  55.0003338  46.7248011   6.1846358  54.0558910  46.8801069   6.1963630
  55.1000690  45.8896255   5.7277286  91.2930441  83.2547730  87.9329054
  91.4720154  82.3505085  88.1907908  90.3603887  83.3747333  88.1117895
  11.0139108  22.0666337  31.9951892  10.4852939  22.7521563  32.4036694
  11.1453319  22.3690057  31.0965610  68.2059336  53.6291838  29.6019077
  67.9514742  53.9769888  30.4566073  67.4633169  53.0886364  29.3325472
  70.7185221  36.5072131  21.1923647  70.7263756  36.1575913  20.3013349
  70.4760170  35.7608271  21.7403913  98.4347391  99.5199292  77.6209765
  98.1520033  99.8255818  78.4828740  99.0114689  98.7789624  77.8069383
  40.5217743  23.9510870  15.1264465  39.6909499  24.4022107  14.9766207
  40.3049660  23.2462978  15.7367730  34.7395563  43.6620808  33.8774490
  34.9853683  43.2131147  34.6862984  35.1157713  43.1239271  33.1809664
  54.7928476  50.9065008  18.7039292  54.3193150  50.4340458  18.0192494
  54.8033428  51.8155241  18.4042537  37.5681496   7.3647296  59.2856646
  36.9696808   6.8846649  58.7132978  37.2944427   7.1272194  60.1716137
  27.9509354  12.3858011  47.1569967  27.1231365  12.8331864  47.3325682
  27.6943779  11.5586329  46.7493200  86.7695045  96.5286391  54.9954790
  87.1717596  95.8147805  55.4902786  85.8292246  96.4172214  55.1358050
  49.1405106  20.7287478   4.1896179  49.4892073  19.8373806   4.1792458
  48.6342525  20.7784700   5.0004601  10.3274099  10.1927267  84.1226423
  10.0042955   9.3051611  84.2777282   9.5503608  10.6889473  83.8653525
  11.8233073  35.4217362  16.2796533  11.8940687  36.1821675  15.7026196
  12.3203349  35.6663489  17.0602679  26.0036182  20.9263682  17.4590361
  25.4669547  20.1373339  17.3838615  26.8185830  20.7055879  17.0081246
   2.3880036  80.4603212  77.2940165   2.6732429  79.7498363  76.7194885
   2.6785548  81.2576812  76.8512624  49.9803591  20.7393289  49.5667505
  50.7453060  20.9015870  50.1188040  49.2321110  20.9345651  50.1308775
  27.4919963  42.2873545   0.0205231  27.4694061  43.0731821   0.5665965
  27.7349019  41.5841103   0.6227458  45.4658937  11.4325881  30.9963584
  46.1917639  11.9669306  30.6741476  45.7926655  10.5339050  30.9536886
  23.4778428  22.0253491   5.0085270  22.6488972  21.5694404   4.8628268
  23.8440204  22.1425629   4.1319388  49.8963165  49.4997692  17.1868920
  50.4389477  49.4354534  16.4009869  50.0189638  48.6612320  17.6319146
  60.5995893  30.5111170  43.2196808  59.7416210  30.4949141  43.6437798
  60.7725811  29.5970941  42.9941463  24.4471208 101.3663466   2.7480265
  25.1229850 101.7452914   2.1860275  23.6472074 101.8351159   2.5100663
  34.1859746  40.6691456  40.2035904  34.0821123  39.7283006  40.3459120
  35.1070690  40.7751608  39.9657297  46.5395164  32.2760463  20.8251762
  45.6115913  32.1417665  21.0179520  46.7760706  33.0600953  21.3206959
  49.1710520  33.1016159  17.4653721  49.9829197  32.6169395  17.6143372
  49.3245792  33.9558601  17.8690159  14.1462767  28.2339692  18.9786088
  14.4802713  27.5914598  18.3526206  14.7014427  28.1268740  19.7509778
  79.5352268  65.1104694  69.8468548  78.6789179  65.5361002  69.8044044
  79.5079231  64.5974546  70.6545073  33.4268045  38.6244488  23.1555748
  33.0132079  39.3532228  23.6182427  33.2331181  38.7861371  22.2322249
  76.0101318  13.7818956  50.1873636  75.8377600  14.4264269  49.5009995
  75.5152273  13.0078340  49.9187946  65.2257299  83.1704617  27.3801374
  65.5038500  83.4166145  26.4979315  65.8006954  82.4431992  27.6183462
  54.1178226  27.6513267   7.1749002  54.9668837  27.2416067   7.3406148
  53.5769224  26.9461727   6.8193448  24.8880816  50.3922462  52.9168034
  24.6555448  51.2562275  52.5766611  24.3964720  49.7793436  52.3700857
   8.9645767  44.7346163  33.5700440   9.9181253  44.7479153  33.6525083
   8.7585104  45.5098152  33.0477047 103.6768325  71.9170315  52.4205112
 103.6434992  71.2048871  51.7817831 103.7742956  72.7088244  51.8915510
  14.0538255  22.4602972  85.1337221  14.0519516  23.4169851  85.1649368
  14.4216005  22.2493778  84.2755329  24.6892333  38.4053779  34.6267247
  24.1685867  39.1089988  35.0141215  25.5353451  38.8104486  34.4363427
  55.8986616  91.1292267  40.1467609  56.4742184  90.7795048  40.8269548
  55.4855633  90.3563023  39.7618484  62.1561766  58.9197016  10.5566907
  61.8854856  58.5572004   9.7131568  62.0168400  59.8625422  10.4680121
  76.2823677  55.1557827   8.4031981  75.8326435  54.5091391   7.8592968
  75.7831955  55.1706362   9.2197973  61.2795401  33.5800982  21.0686493
  60.5588102  33.3141041  20.4976583  61.8923426  32.8453732  21.0389280
  46.0960960  32.6751018   8.2092786  45.8928108  33.5554886   8.5252333
  47.0524788  32.6445484   8.1841403  26.3237214  21.5325642   8.6548823
  25.8512115  22.3502111   8.4986162  26.7378759  21.3311362   7.8157544
  23.9474392  52.0278406  39.2048860  24.2751408  51.4135122  38.5480428
  23.3310938  51.5141439  39.7268701  43.2280397  27.1130896  23.8891816
  42.7206993  27.2400355  23.0874801  44.1056395  26.8837762  23.5834646
  77.5833988  81.4988511  86.0478201  78.1875515  80.9922784  86.5906055
  76.9843006  80.8470123  85.6839242  80.6672573  22.9870987  16.3254106
  80.7277107  23.2062268  15.3955925  80.3594017  22.0808506  16.3383877
  45.6574345  34.2839575  18.6274838  44.9997425  34.9768353  18.5675645
  46.1281681  34.4701552  19.4398725  55.5495930  37.6667047  20.2094626
  55.2964544  36.7728806  20.4401803  55.3280210  38.1855488  20.9827280
  26.2136555   8.5825557  32.8375840  26.4229894   7.8295702  33.3902359
  26.0468125   8.2063526  31.9733691  53.7676525  18.2062292   3.4293067
  54.4350338  17.8023100   3.9839947  53.0583191  18.4294724   4.0320033
  59.3186116  88.2246464  69.9066001  58.4096765  88.2613962  69.6087497
  59.3165302  88.6943620  70.7406240  13.9600833  98.7452596  86.8768048
  13.7496455  98.7014096  87.8095560  13.2402022  99.2452758  86.4921090
  38.4852449   5.3234039  32.2499341  38.6391489   5.9990870  31.5896338
  38.9728061   5.6229149  33.0172747  78.2903385  66.3243389  30.0035763
  77.3591661  66.5344429  30.0743365  78.7100983  67.1609592  29.8033357
  44.3260288   2.6003605  16.2834120  44.1955566   3.0100697  17.1386003
  45.0969934   2.0449522  16.3990414  48.7680817  28.0021286  19.4487882
  48.0038595  27.4957275  19.1735506  48.4797430  28.9138150  19.4049549
  70.2931690  71.1247349  16.1388302  70.5523968  70.2740860  16.4929867
  70.8022451  71.7593479  16.6431510  18.7095213  10.4231513  56.8430471
  18.1028891  10.4972911  57.5797462  19.0053940  11.3196969  56.6852570
  30.3503990  30.1255417  21.0859656  30.6349254  30.6928921  21.8024755
  29.3944716  30.1421714  21.1324286  70.7117796  45.3262806  10.1842642
  70.9163761  46.1040211  10.7033885  69.7780895  45.4071093   9.9895310
  78.8440514  32.4563766  18.0335557  77.9695606  32.6921272  18.3432531
  78.8745642  32.7798629  17.1331906  26.5936518   7.7440625  14.4376659
  26.0072327   7.5724936  13.7008417  26.0673022   7.5492966  15.2130723
  42.5214148  22.8138757  23.4119201  41.8786526  23.3718157  23.8498616
  42.0209646  22.3571801  22.7357483  40.6282330   9.9660271  26.9799185
  40.6127930   9.9483919  26.0230064  39.8413110  10.4536676  27.2232127
  97.5456285 101.0938352  79.6355623  97.2890901 101.8656676  80.1402384
  98.3602094 100.8005851  80.0438493  62.4934101  59.9000692  18.7375414
  61.7834711  59.4625807  18.2676268  63.2780027  59.6987009  18.2275403
  53.6106253  52.7092791  31.9328904  54.4216299  53.1367588  31.6576457
  53.5160542  52.9463816  32.8554249  47.3924685   9.5191860  20.1908636
  46.7838621  10.1044810  20.6417084  47.3410892   8.6976904  20.6794715
  51.7680502  13.0291808   8.9175850  52.3436975  13.7156308   8.5804665
  52.1966124  12.2115421   8.6645347   1.8882258  71.4884632  82.7925682
   2.8170569  71.6015785  82.9943347   1.5915854  70.8118587  83.4012097
  41.4732218  47.3464251  27.7041340  40.8904457  47.8495741  27.1354127
  41.4421749  47.8042936  28.5441470  45.6060982   1.7612562  45.8629370
  46.1894560   2.4091262  45.4677296  46.1719513   1.0123859  46.0506487
  44.5739222  38.7814260   0.1580165  43.9650345  39.5128274   0.0553358
  44.6458721  38.6607981   1.1048553  21.8657541  22.1940708   2.2010684
  21.5837002  22.9831696   2.6636729  21.4058542  21.4801979   2.6427791
  39.1852832  11.3083708  24.5256424  38.2404256  11.1920857  24.6254015
  39.4019032  12.0281863  25.1182389   8.7617582  38.6022902  52.1914482
   9.5020527  39.2079258  52.2288942   8.0499727  39.0665555  52.6319599
  91.2676811  90.8997720  83.2567340  90.3225708  90.7641881  83.3246928
  91.4996147  90.5439942  82.3989093  33.8030410  11.7293394  33.0986428
  34.3895507  12.2502673  33.6471605  32.9318762  11.8867588  33.4626818
  23.4010196  36.5561152  53.3399296  23.9234924  35.8595228  53.7374353
  24.0429020  37.2135448  53.0715895  49.0567970  57.9450941  28.3655977
  49.5366764  58.5905981  27.8466797  49.4907808  57.1136236  28.1744337
  38.3636848   5.8911406  80.2409702  37.7542678   5.2528368  79.8702794
  38.1013052   5.9680973  81.1582845  84.2927074  18.8954020  23.9227891
  84.6774673  19.7588420  23.7722468  84.4039631  18.7439466  24.8613596
  98.7421711  96.3466544  24.4759011  99.4710072  96.9240756  24.7030878
  99.1605600  95.5438215  24.1650295  67.5668454  70.6598776  82.9387539
  68.3270931  70.7722228  83.5093978  67.5251055  71.4713805  82.4328381
  61.2758017  41.3091755  29.8318434  61.7211866  42.1555185  29.8714352
  61.9590282  40.6693840  30.0320935  37.9795837  19.9880087  32.6593804
  38.8734722  20.1062870  32.3381186  37.5507283  19.4605148  31.9855356
  62.7692604  13.8047242  43.1958342  62.2056055  13.5861385  43.9379549
  62.1631384  14.0759623  42.5064325  28.8418174  41.7247295  27.4068379
  29.0501785  41.2467289  28.2095432  29.3408322  42.5386000  27.4763489
  82.9250622  56.8312454   4.3859068  83.6194897  56.7453861   3.7327376
  83.0281258  56.0629606   4.9474669  62.7067471  23.8069248   9.8282987
  62.8365755  23.7234378   8.8836259  62.2394753  23.0094814  10.0772429
  28.2868218  34.6486378  45.0337982  27.5564837  35.0109172  44.5322084
  28.1455421  34.9659395  45.9257555  32.3515058  52.2295237  29.7589827
  32.6624346  51.5133333  30.3127193  33.1424499  52.5695658  29.3406367
  29.6756832  27.1922670  81.3010823  29.5972530  26.2383448  81.2901801
  29.7525112  27.4156843  82.2286671  30.7575774  35.5718398  43.9107227
  30.6217957  34.9302053  43.2135153  29.9647808  36.1081195  43.9004135
  93.7881756  92.5006145  85.7912212  94.2183065  91.7719072  85.3437820
  92.9274368  92.1587031  86.0330029  36.7234349  23.9670324  43.0455923
  36.3472843  24.8160911  42.8135586  36.8787742  24.0234900  43.9884138
  25.3355733  89.6276302   7.6910925  24.5159999  89.8384959   7.2437996
  25.7695476  89.0003831   7.1127701  23.3796048  32.7188325  57.5367260
  23.0231214  33.4618473  57.0498180  23.4403753  33.0310559  58.4395313
  29.6269941   3.4945336  38.8498116  29.9721098   3.2885680  37.9810762
  29.7706246   2.6973289  39.3597794  46.4228725  40.3063774  14.2432392
  45.7081556  40.1320696  14.8556352  45.9993219  40.3457212  13.3857501
  87.5469645   1.0277258  61.2279170  88.3521446   0.8611761  61.7179984
  87.7929779   0.8983599  60.3119629   2.3056261  87.9409904  30.6344867
   2.5988285  88.1904442  29.7581100   1.4039675  87.6447255  30.5100965
  45.9295797  44.5570850  18.1441474  46.7789602  44.1163540  18.1209767
  45.5583572  44.4075632  17.2746253  57.4084759  18.4729874  11.7058754
  57.1009779  17.5754941  11.5786600  58.1227303  18.3940864  12.3382092
  35.8803821   2.2367001  46.9564581  35.2569532   2.4264266  47.6575804
  36.0792637   3.0917519  46.5749311  64.9814367  15.1887524  23.0549502
  64.7888613  14.2649853  22.8943300  65.7725668  15.3607929  22.5443172
  33.2921329  28.8845747  83.7101647  34.2182821  29.0330618  83.9010346
  33.1277919  29.3894284  82.9137045   8.4937435  58.4465694  24.1182494
   7.5469893  58.5656452  24.1938090   8.7844855  59.1782808  23.5739160
  20.1633644  49.2819977  43.0791712  20.8137918  48.7983608  42.5699806
  19.4012022  49.3378639  42.5027847   2.4314006  16.0678637  11.3478661
   2.0393832  15.2261472  11.5803921   2.9736312  16.2962735  12.1028781
  57.6692915  16.2575614  37.6130581  57.9119873  15.4320252  38.0323672
  58.2449675  16.3172650  36.8506479  18.9772407 101.6431590  38.9285111
  19.0490762 102.5198013  39.3060946  19.1706125 101.0523051  39.6563363
  32.3714662  55.2070141  22.6473665  33.0146360  55.2504396  21.9397807
  31.5905976  54.8335934  22.2386694  78.9397144  95.4257005  73.2852310
  78.5979223  94.6402877  73.7124771  79.0224552  96.0660070  73.9919072
  68.8782215  74.4668191  77.9280120  68.3982062  75.0170820  78.5469061
  68.3391666  73.6809509  77.8382069  44.0678596  11.3232398  37.3909426
  43.2002115  11.3965690  37.7884865  44.6115351  10.9297073  38.0734229
  84.2361259  38.1845140  22.6769519  84.2862129  38.5693598  21.8019557
  84.4176579  38.9135861  23.2700205  70.4663658  23.6925125  63.5489130
  69.9634171  23.4664297  62.7665043  69.8717451  24.2343998  64.0675831
  62.8684235  44.8878288  24.2524457  63.2213354  45.6647396  23.8187504
  61.9957256  44.7783279  23.8747668  48.4471464  25.4910231  25.1544785
  48.2580948  24.7741580  25.7599497  49.0845871  25.1249123  24.5413995
  63.3949375  63.0288267  17.9213166  63.9386082  62.7252674  18.6483049
  62.9326534  62.2450161  17.6243901  59.1243505  57.8362179  25.7344484
  59.4605350  58.1214285  26.5840769  59.0084076  56.8906736  25.8278966
  36.9012117  30.0667620  32.2923446  37.2039533  30.3696370  33.1484079
  37.6993775  29.7983766  31.8372250  41.1455774  30.2726102  24.0053844
  41.0838413  29.5124984  23.4268928  42.0844650  30.3846645  24.1542649
  32.0739484  20.3075624  20.3195143  32.2348952  19.3686759  20.4134178
  31.3927388  20.4994321  20.9640074 105.2476120  68.3519714  72.4342912
 104.3017959  68.2796353  72.5624758 105.3430748  68.9248603  71.6734260
  25.9361672  41.4297390  21.4216518  26.2067246  40.5614710  21.7202115
  25.7175136  41.3079643  20.4977512  42.9607916  10.3052497  31.4303255
  43.8508415  10.5620909  31.1893320  43.0508995   9.9169314  32.3005676
  98.1939443 100.6545606   5.4673326  98.1265386 100.7063109   4.5139122
  98.5012730  99.7642001   5.6377387  59.4136858  15.6111956  32.9278994
  58.6603594  15.2815437  32.4379396  60.1728153  15.2392411  32.4788928
  55.8348608  34.0925479  39.5624614  55.7168770  33.8366508  40.4772472
  56.0548639  35.0233436  39.6005964  96.7148264  15.5779873  32.6358384
  96.5243467  14.9855505  31.9085377  97.2060784  16.2963425  32.2372550
 103.3212884   3.1555639  87.2706161 103.1788596   2.5549112  88.0021654
 102.5215872   3.6801945  87.2322871  25.0836039  25.6996512  10.8055925
  25.7704878  26.1710477  10.3342056  24.2720151  25.9606767  10.3703642
  67.0188093  33.9591432   7.6664788  67.6135015  34.4956636   7.1423393
  67.0093489  34.3814516   8.5254300  69.3615675  18.5278285   9.6791369
  69.1110134  18.9022768   8.8345993  69.1478920  19.2095053  10.3162324
  69.3991875  96.0600036  83.9225358  70.0631642  96.1892694  84.5997774
  69.1115665  96.9447082  83.6971393  36.6554022  32.0363760  56.3008642
  36.1463118  32.7421784  55.9022379  37.0189095  32.4235249  57.0972395
  78.5045004  68.7545317  88.1251162  79.0950918  68.5205823  87.4090836
  78.7883043  68.2080370  88.8579395  65.2477789  26.1938953  31.0041046
  65.4162121  26.9436765  31.5747952  65.8918667  26.2785244  30.3010964
  73.6931658  28.1761050  13.5186243  74.2148638  27.3771143  13.5939550
  73.5140657  28.2577801  12.5818837  22.0028281  33.4909964   3.0254769
  21.0640836  33.6630678   3.0988428  22.3134875  34.1278410   2.3819324
  86.0895634  27.9120898  13.6853981  85.5884552  27.2318268  14.1352403
  85.6330872  28.7260795  13.8981807  28.3483958  68.3064079   9.7814226
  29.0988135  68.4155798  10.3655350  28.1193566  69.1972923   9.5166695
  31.2144589  35.6944704  30.2177024  31.3179684  36.6097188  30.4781604
  31.4299726  35.6849933  29.2851281  23.8582698  22.5921236  72.4320930
  24.2882434  22.7042137  71.5842789  23.0724231  23.1357323  72.3758298
  72.9904747  16.3529444  60.0341034  72.2678041  16.0781169  60.5984163
  73.0472422  17.2999012  60.1617098  79.3008375 100.7857459  85.5810886
  79.0778303 101.6167634  85.1616725  78.4579277 100.3542989  85.7210308
  41.3143730  47.4563932  24.2988253  42.2043419  47.1083736  24.2434621
  41.1854315  47.9172850  23.4698606  70.2792645   7.5273520  31.1331987
  70.3985405   6.8518180  31.8007755  70.2538586   7.0453715  30.3065920
  37.9493213  41.3875723  27.7959704  38.2844138  40.7624435  28.4387469
  37.6467204  40.8440638  27.0684648  80.3837681  32.9984927  20.6973553
  79.7153425  33.0554914  20.0145745  80.0317097  33.5167146  21.4210486
  43.9043808  31.7916942  23.6339784  43.8550043  31.8303704  22.6788354
  44.5677233  31.1251712  23.8127255  82.9625034  50.5774975   3.6033306
  82.9699326  50.8825684   4.5105839  82.6111698  51.3155937   3.1053218
  28.3794395  97.1267808  18.2406080  28.9539043  96.9084717  18.9744759
  27.8056470  96.3658816  18.1510162  72.2616958  73.4161037  70.3851336
  72.2580314  74.0781754  71.0764235  71.4464736  72.9311889  70.5135864
  89.5746565  83.2637065  78.8307118  89.6063709  82.7534550  78.0214721
  90.4927969  83.3930009  79.0684759  37.3512403  93.7638892  53.9613199
  37.2203723  92.9122276  54.3781853  36.5018884  94.1992397  54.0341425
  64.7374105  61.7749453  20.1430130  64.6701908  60.8264971  20.2532840
  65.6207180  61.9889784  20.4433250  19.2438308   6.0321222  73.2993358
  19.2147867   5.1644121  72.8962689  19.8934118   6.5128790  72.7863568
  91.3508558  64.5270734  82.5046634  90.6005573  63.9638310  82.6945179
  92.0494890  63.9206343  82.2589630   2.0468028  88.9013498  87.4863895
   1.2680705  88.3778971  87.6756200   2.1084197  88.9023464  86.5311753
  90.4752064  76.3912218  69.2087823  91.2214422  75.9771531  68.7753015
  90.2685022  77.1473997  68.6595088  40.0702572  11.8219399  32.5568986
  40.2046776  11.2298524  31.8168998  40.9321642  12.2070467  32.7151394
  47.7417183  31.4751077   4.9465686  47.0372343  31.3033843   5.5714220
  47.2935963  31.6106343   4.1116750  89.3953848  62.9595082  83.3066717
  88.6862326  63.5755926  83.1228810  89.5613813  63.0581396  84.2441940
  42.6828480  40.0013065   8.2887405  42.3129463  39.9882936   9.1714841
  42.6432753  39.0898681   7.9990071  48.4891176  35.9308052  32.1044278
  48.1435871  35.2104712  32.6316476  48.9940023  36.4592791  32.7225184
  67.9630232  43.8185644  12.2417510  68.5023785  44.5627832  12.5090849
  67.2044992  43.8508320  12.8246999  45.7950354  22.0045829  19.8397017
  46.6155958  22.3581028  20.1831245  46.0265160  21.6545081  18.9794123
  58.1065655   2.3753387  21.2570071  58.1297588   1.5218575  20.8242679
  59.0152502   2.6758724  21.2427592  39.5928192   2.8185862  20.7114792
  39.8740363   3.5759488  20.1981068  38.8976026   2.4194583  20.1884103
  59.7827339  39.4564915  18.8382030  58.9713001  38.9505601  18.8810873
  60.1576138  39.2361116  17.9854834  22.7755976  23.1309319  24.9289846
  23.1936216  22.5608587  25.5743575  21.9267130  22.7214217  24.7618651
  69.3999767   6.6263467  13.7110102  69.8938322   6.9764012  12.9695249
  70.0328636   6.0899901  14.1885126  97.2515066   3.3676325  80.8692443
  97.6108726   2.8498827  81.5896773  97.4112209   4.2762791  81.1243611
  62.3171568  21.0807037  58.5994244  62.5517845  21.9695139  58.3325958
  61.5689230  20.8544374  58.0469894  39.7067380  48.2054853   9.9359047
  39.3349099  47.3328733   9.8073435  39.3026137  48.5213470  10.7440794
  45.3616428  48.9210129  20.1067257  45.7344770  48.7178659  19.2488468
  45.8089972  48.3266830  20.7091236  69.0309334  82.2867268  64.5649808
  69.4730878  82.8090709  65.2342242  68.4698725  81.6892546  65.0594204
  44.0366459  48.3873606   8.8964170  43.8820887  47.4853468   8.6158592
  44.6426582  48.7403202   8.2449543  80.2699661  53.1242752  15.4670417
  80.9306812  53.5693169  14.9363613  80.7701588  52.6918364  16.1591625
  87.6406193  18.0172193  40.5258036  88.5952377  18.0864596  40.5377007
  87.3991680  18.1913662  39.6160769  72.6401615  71.5010231  73.7440175
  72.0982051  70.7252067  73.6003989  72.2706580  71.9097560  74.5267278
 104.2313004  47.6655102  25.3714967 103.4032631  47.6403952  24.8919606
 104.9030495  47.6664782  24.6895981  77.2260523   3.3964062  12.3372304
  77.2700167   3.6023274  11.4034772  76.5827417   2.6901138  12.3967063
  84.2036438  70.4695659  83.5719010  84.5216179  71.2684863  83.9924389
  83.9850330  69.8868161  84.2991176  36.0745502  48.0803299  45.0443935
  36.9665003  48.4040737  44.9185181  35.6029677  48.8202095  45.4270411
  24.5039932   4.9688946  73.2883447  25.4190103   4.8939882  73.5592025
  24.4392911   4.4181000  72.5081712  69.0071106  25.9177184  27.2415876
  69.1521454  26.6126943  26.5995550  68.3772087  26.2896299  27.8589535
  43.3600187  35.6065631  12.3905194  44.0591764  36.2546825  12.3047793
  43.4589624  35.2635884  13.2786703  84.1020298  22.5699115   6.2852079
  83.5597134  23.3268452   6.0634446  84.9569130  22.7674198   5.9025800
   9.8636905   0.7358824  73.4503156  10.7618371   1.0434710  73.3280462
   9.6762172   0.9049784  74.3736213  15.3347341  89.2287714  12.1771049
  16.1506883  89.2456753  11.6769409  15.5760757  88.8358671  13.0159199
  64.5694685  27.1233296   4.4431037  63.9534998  26.7382050   3.8198084
  65.3723192  27.2519827   3.9380199  37.6701299 100.5357141   0.4829469
  38.4650079 100.8814348   0.8889990  37.1344272 101.3094861   0.3082075
  52.2310400  30.7774782   6.1038727  51.7732620  30.9401155   5.2791160
  51.6618681  30.1714802   6.5782595  33.9894485  52.7485943  16.2224448
  33.6983132  52.3392487  15.4076385  33.2757044  53.3397675  16.4618421
  79.6063471  22.2696018  20.0034189  79.7425795  21.6795182  20.7446837
  79.9779987  23.1038713  20.2899504  67.1773767  62.4812317  29.0477967
  66.4604521  62.1421003  29.5837474  67.0576572  62.0629263  28.1952000
 100.0898361  56.7604589  29.1914129  99.8474598  57.6288748  28.8699532
 100.3985119  56.9132042  30.0845075  81.3761711  98.6550182  78.5881585
  81.6273928  99.0319150  77.7449101  81.1332655  99.4094461  79.1248715
  38.9541578  80.6794834  13.5544300  39.4730091  79.8804617  13.4617436
  38.5100245  80.7757282  12.7119851  12.7966197  60.5514311  70.1535302
  11.9824203  60.9962648  70.3889721  12.6441749  60.2267235  69.2660862
  85.3918934  74.4903183  35.9155202  85.0570583  75.3862572  35.9531093
  86.3428974  74.5915079  35.8757901  74.2256689  38.7103105  13.2404423
  73.5112524  39.2571521  12.9136348  74.4800377  38.1744266  12.4892068
  62.4625206  43.7699938  26.5248656  61.5551805  44.0084887  26.7148328
  62.6170492  44.1012526  25.6402063  43.9145509   4.0459381  83.6790129
  43.6381809   4.5115171  82.8896522  44.8221199   3.7966381  83.5046565
  53.8291359   5.5876791   6.4516294  53.4953165   4.6929041   6.5162528
  53.2073402   6.0343832   5.8771217  17.7796062  96.2336963  70.4127055
  18.6838515  96.0866731  70.1353186  17.4094184  95.3551190  70.4981094
  48.7961245  28.1783938  11.5014863  48.5744953  28.5649109  10.6543052
  48.3226061  28.7121820  12.1395147  51.6659594  80.3198719  20.2253652
  51.5896702  79.5198679  20.7453680  50.8247280  80.3937244  19.7746885
  82.1617317  38.3514667   3.3833686  82.1430683  37.6495433   2.7328405
  82.9534531  38.8482857   3.1770155  61.8242550  26.8213177  14.5725322
  61.2979984  26.4389515  13.8703346  61.6661358  26.2534904  15.3267217
  68.0884266  46.7913818   1.1563879  67.3126316  46.4348888   0.7236186
  67.8565216  46.8120384   2.0848410  68.7626219  58.0114698  17.2628343
  68.5406351  57.9959011  18.1938076  69.4120216  57.3158455  17.1597886
  29.4724131  43.8994884  38.8103056  29.8221993  44.2447329  37.9889131
  30.1162195  44.1549826  39.4709659 102.4617465   1.9887291  74.7592181
 103.3196410   2.0499121  74.3390912 102.0739396   1.1920868  74.3970066
  93.6879444  37.2204065  23.1524444  94.6258354  37.1020412  23.3027339
  93.4322643  36.4629507  22.6260233  59.6367931  80.7751751   6.4995521
  59.6709681  80.5615044   7.4319738  58.7023783  80.7983303   6.2932324
  49.4340801 100.8715248  33.9082956  49.7281599 101.6557026  33.4448195
  48.6576748 101.1554909  34.3907762 100.3885746  42.0977020  49.5763636
 100.9403801  42.1270895  50.3579521 100.3846931  41.1753511  49.3204594
   7.5579397  83.3217341   8.6935204   7.0112983  82.7138145   9.1913640
   8.4189598  83.2637949   9.1076767  66.8703651  13.2185352   0.6956881
  67.6282454  13.0827391   0.1269976  66.4290619  13.9841747   0.3278852
  84.3715286  61.3487387  11.2446606  83.7680721  60.7727432  10.7752943
  84.1528130  61.2234402  12.1680748  26.8317866  16.7735791  19.9241579
  27.5230575  16.2000573  19.5933270  27.2948074  17.5502574  20.2381897
  75.2616207   2.8963171  83.5223302  74.5133106   3.3537756  83.9057314
  75.8384696   3.5958706  83.2155570  84.3782330  27.6006603  32.4395490
  84.5367718  28.5418820  32.5116682  83.5122299  27.4732733  32.8269076
  40.6431341  30.2599311   0.9582660  40.4105568  29.4079113   0.5892093
  41.4952564  30.1178432   1.3704969  96.6913414  55.8880424  35.0059724
  96.4821720  56.3153696  34.1753888  95.8400822  55.6549549  35.3764558
  50.9097672  61.4760733   4.9682695  51.2429667  60.7386684   5.4795879
  51.2237644  62.2514439   5.4334939 105.4812527  57.6321459  10.6320965
 105.8289909  58.2394171   9.9790049 104.9467087  58.1794310  11.2074006
  41.1607361  88.5755253  45.3483343  40.3855753  88.0168724  45.4054070
  40.9103775  89.3797493  45.8030558  48.6282778  57.4114037  21.1335135
  48.6161280  58.0532885  21.8434906  49.5461512  57.3681307  20.8654284
  56.1157608  52.3098087  28.7192321  55.1797533  52.4826384  28.6179852
  56.1592817  51.4123535  29.0492558  60.1322365  60.9182453  26.5726805
  59.6368313  61.4494514  27.1960855  60.0863075  60.0296640  26.9255877
  87.4313450  71.3487577  28.7309480  86.7303658  70.7001019  28.6668491
  87.1020508  71.9964886  29.3540335  29.4061780  28.1391501  33.3568978
  29.0677476  28.4322214  34.2029524  30.0362921  28.8139439  33.1042290
  52.7325622  21.7781960  73.8694256  51.8135635  21.5856062  74.0553969
  53.2210056  21.2360560  74.4888943  57.6427269  51.8878365  25.2240992
  56.7144203  52.1021557  25.3165793  57.9287672  52.3871613  24.4591880
  97.4579525  44.7714615  26.0519361  96.6928482  44.3727827  25.6373262
  97.0925140  45.3812647  26.6928935  71.6894102  17.6705647   6.3718253
  72.0610905  17.6270294   5.4908091  72.4502945  17.6822627   6.9524705
  34.3226004  68.7037611  34.4497585  34.3517756  68.2583284  33.6030173
  35.1011062  68.3920813  34.9112988  55.3710365  58.7012911  21.4874625
  56.0304832  59.2753792  21.0978723  54.8526764  58.3929682  20.7441783
  65.3894138  11.7740607  40.3259420  64.5959139  11.6522539  39.8046398
  65.8349085  10.9278238  40.2853441  51.6929960  45.4447460  26.4617682
  51.0526037  46.0183239  26.8826461  52.5274849  45.9026241  26.5627718
  30.9489441  30.8324456  39.5927548  30.7670045  29.8962450  39.5111394
  30.5204058  31.0894370  40.4091740  74.2089844  48.6363220  11.4232934
  74.7407055  47.8403950  11.4233112  74.3423033  49.0134478  12.2929108
  63.6754370  53.6951208  25.5302238  64.1908121  52.8894901  25.5700397
  62.8166103  53.4472084  25.8725548  88.0673504  23.8343430   0.4597186
  88.9371490  23.7204170   0.0767037  87.5169468  24.1094971  -0.2734802
  49.9689341  51.5885305  31.9801497  50.0224972  50.9742117  31.2480450
  49.0309143  51.7362213  32.1007371  49.9394608  50.6311417  24.7386169
  50.7287407  50.6987381  24.2013097  50.0886822  49.8613930  25.2876592
  63.2504892  56.5087032  34.1153240  62.9119921  57.3974800  34.2236209
  64.1088772  56.6272211  33.7086821  90.8175373  98.7784618  78.8334739
  90.9052849  97.8419583  78.6560070  90.4176569  99.1360276  78.0407113
  72.0918274  85.1765060  38.0121517  72.5679970  85.9014606  37.6072598
  71.2893581  85.0991440  37.4961209  98.4652146   5.4840742  86.6803841
  98.4229406   5.6988417  85.7485473  99.3380483   5.1099859  86.8005991
  11.7069570   5.3950010  76.2006229  11.4094678   4.5273243  75.9269875
  11.2327758   5.5651222  77.0145303  52.2002745  69.6142101  17.5778735
  52.1893835  68.9935541  18.3065021  52.4397182  70.4498577  17.9786193
  78.4749651  38.8684416  14.5425022  77.7936316  39.3806171  14.9780393
  78.8617039  39.4734955  13.9095926  75.8412433  73.7610739  86.3565349
  76.7865038  73.7728518  86.2063007  75.6758427  72.9165595  86.7756636
  70.9678698  33.5527182  21.3928461  71.1119938  33.8666725  22.2855353
  71.7566633  33.8129926  20.9171414  71.4929843  60.9554427  73.6765784
  70.6884503  61.2097793  74.1285413  72.0535946  60.6009834  74.3667263
  82.7125168  55.8490896  29.9648118  81.9288349  55.5789089  30.4434347
  83.4398651  55.4980183  30.4785681  25.4610014  27.7271533   6.8812090
  24.6341896  27.2496748   6.8131781  26.0902810  27.1854901   6.4049315
  76.3022661  33.4032249  17.9932165  76.1377573  34.3035030  18.2736933
  75.4307079  33.0322599  17.8553522  28.6847679   6.8196856  60.2936595
  29.5975868   6.5340172  60.2563351  28.3578197   6.4692532  61.1222309
   4.5480855  83.7378042  81.3065058   3.7408622  83.3866971  80.9305471
   4.4251235  83.6603921  82.2526139  51.5777159  31.7802715  17.9239094
  52.3087311  31.3262057  17.5047731  51.2398958  31.1520743  18.5622501
  47.2506094  68.8613605   1.1194231  46.7519283  69.6321201   0.8483499
  47.6828480  68.5622263   0.3194717  18.1103651  50.5626999  84.6270624
  18.8656751  50.4999958  85.2117079  17.3557273  50.3967033  85.1920432
  86.8346596  67.9826689  15.5734599  87.6457882  68.4768820  15.4548919
  87.0684338  67.2808313  16.1809170  93.4999323  86.9404023  79.4552535
  93.0117988  86.1270230  79.5832193  93.9168835  87.1050923  80.3009826
  38.8802139   8.1468998  78.6079085  38.5300819   8.8971029  79.0883583
  38.5849515   7.3845993  79.1058540 102.3575640  78.7079375  85.3000745
 102.7579164  79.4976252  84.9362874 102.2107363  78.1426876  84.5416778
   9.5476413  63.1378269  26.1234474   9.6939814  62.2009706  26.2543106
   8.7214172  63.3162212  26.5726256  28.9708471  51.5826654  25.0006008
  28.0469298  51.6442585  24.7580886  29.2275381  52.4836826  25.1968551
  81.5874004  77.6635885  26.3843274  82.2815037  77.4954796  27.0216632
  81.8179798  77.1208477  25.6303382  74.4347429  44.0695906   1.6987494
  73.4958696  44.0250635   1.5177552  74.6777821  44.9699831   1.4832084
  76.5945721  28.2889795  34.8035073  76.4161015  28.0353618  35.7090783
  77.4851465  28.6392474  34.8239541  70.9778261  62.0730257  28.2264233
  70.5370426  62.3841953  27.4357796  70.6937408  62.6770496  28.9124870
  74.8578834  99.4040340  68.7975698  74.5809173  98.8700431  69.5421344
  75.8032918  99.2650788  68.7416774  56.9765854  61.8356609  25.5186248
  56.4039803  62.5838995  25.3498173  57.7431059  62.2131968  25.9500670
  71.0445261  65.4177332  23.8432789  71.7093801  65.9107018  24.3240952
  70.2115870  65.7418633  24.1859007  27.1905923  44.1671991   1.9942145
  27.6481819  44.9891663   2.1708831  26.5318131  44.1063404   2.6859784
  73.8501549  50.4034042  17.6500642  74.3359995  50.9168959  18.2954419
  73.3051825  51.0450745  17.1945441  52.1178198  53.8070726  11.5459239
  51.7583561  53.5839319  12.4045420  51.4938593  54.4343901  11.1807179
  38.9910007  44.9090958  39.4848347  38.5955572  45.2029037  40.3055286
  39.7994781  44.4716024  39.7516632   0.3406207  80.6637437  34.4983697
   0.5273024  81.5245611  34.8730373   1.1986009  80.3191669  34.2506480
  91.3285542  68.6309433  29.5346498  90.9439850  69.2437363  28.9078879
  91.0335827  67.7695704  29.2392468  51.2648296  63.8327932  13.4045470
  50.3890085  63.9921618  13.0527282  51.7019129  64.6828222  13.3531630
  75.2527380  83.8957405  68.1990576  75.4314852  83.2534313  68.8858843
  76.0547209  83.9175797  67.6769638  99.3104649  16.2976336  16.0910845
 100.2587223  16.3819945  16.1906934  99.0511131  15.6838298  16.7782629
   5.8828537   4.6353756  73.4403497   5.3532974   5.0511538  72.7599591
   5.5263273   3.7500940  73.5138124  62.6370803 100.7327956  53.9064837
  62.0111171 100.3232368  53.3092737  63.1628505 100.0050292  54.2383718
  81.6434193  37.9424453  14.6384442  81.1004543  38.0251598  13.8544941
  81.7760277  36.9998884  14.7395921  71.7534447  45.5580711   2.2282459
  72.2959948  46.3056040   1.9771108  71.1130857  45.9216022   2.8398177
  20.9566537   1.9625794  70.9735542  21.7696945   1.5353619  70.7039541
  20.7916919   1.6287886  71.8553716  89.0701103  76.5451193  45.7252836
  89.5404148  77.0861340  46.3595867  88.3280182  76.1915016  46.2156820
  20.9919381  82.4280548  51.3918400  20.6942534  82.7412319  50.5377102
  21.8533659  82.0475197  51.2204981  63.4215021  41.2353897  16.5644252
  63.5914373  40.3827524  16.1639714  63.8544559  41.1901808  17.4169147
  96.9218445  50.3711510   3.4976682  96.6202068  51.2631083   3.6698839
  96.7437363  50.2335167   2.5673106  68.1888533  75.6947994   6.4025289
  67.8850603  75.9670067   5.5365926  67.6537514  76.2007093   7.0140445
  54.3493986  68.2354259  16.2529504  53.6740160  68.8926649  16.4206505
  54.4150209  67.7449656  17.0723248  90.7411480  56.6333914  31.3200665
  90.7142353  56.9150114  32.2345042  91.3148499  55.8671761  31.3222122
  72.1341038  60.6062841  86.9230384  72.9888606  60.8086246  87.3034085
  71.5989494  61.3768428  87.1129880  87.7269936  33.8376594  24.2374015
  87.3682976  33.4286070  25.0249577  88.6365128  33.5409379  24.2064238
  29.1221372  19.2720972  85.3270998  29.3123762  19.8255240  86.0845712
  29.7885934  19.5106445  84.6827677  74.6351862  53.7277603  21.5719485
  74.9767637  53.3067608  22.3608208  75.2748060  54.4102240  21.3685894
  42.7188778  25.8669281  11.6785955  43.4941769  26.4124131  11.8112230
  42.9392576  25.3160357  10.9274781  69.5968620  18.2039152  85.3622675
  70.1977149  18.9081369  85.1188087  69.6890728  17.5576578  84.6622088
  62.9918003  61.9916630  32.5627685  62.1688080  61.6308784  32.2329998
  62.7322102  62.7729702  33.0510402   2.0230659  85.9232729  83.3227208
   1.4121278  85.7145374  82.6160294   1.4848359  86.3584536  83.9839005
  85.0925446  25.1177955  26.8636012  85.3501606  25.0533056  25.9439778
  84.4045830  25.7832599  26.8735123  88.9217949  68.3160591  33.0552077
  88.8294506  67.3821640  32.8666735  88.0777740  68.6946630  32.8091979
  63.9920139  24.4419003  15.2000427  63.7827301  24.4703007  14.2664337
  63.1415462  24.3754888  15.6342351 101.1675358  97.2637177  25.6804776
 101.3454533  96.6590309  26.4008474 102.0335960  97.5309849  25.3726721
 103.4360409  20.5475330   4.9024737 103.7532616  20.0449753   5.6528342
 102.9565144  19.9104333   4.3729609  29.8273794   5.3109728  76.5233296
  30.5686656   5.0671421  75.9690088  29.4585172   6.0873543  76.1021298
  27.2413039  66.8850613  16.2924922  26.5027285  66.6124439  16.8369341
  27.8908372  66.1910295  16.4050174  67.1456099  54.7795391  42.1765184
  67.2739458  53.8480425  42.3556328  66.2884188  54.8261452  41.7531013
  12.0958606   9.9631773  87.4705910  12.3198740  10.6534134  88.0947887
  12.3390190   9.1507183  87.9144547  55.1854229  45.3452396   9.0516180
  54.7510529  45.4662704   8.2072812  55.7539606  44.5861864   8.9218533
  42.0979261  55.2351379  17.6517797  41.7845249  54.6650314  16.9496453
  41.9602060  54.7278023  18.4517038  10.5128280  16.0043179  69.4750839
  10.3088418  16.6668163  68.8149947  11.1697427  16.4182650  70.0348562
  61.3592720  62.2439384  20.1743293  61.8171644  61.4694881  19.8475361
  61.9666862  62.6338100  20.8030391  61.0913229  29.4599628   9.8433262
  60.8796406  28.5976362   9.4858164  61.3369799  29.2886090  10.7524586
  25.6867210  33.7708698  84.1378119  26.1191169  33.9761292  83.3088749
  26.1544792  33.0040012  84.4684946  78.3557320  44.9206161  12.5342643
  77.7665138  44.2878008  12.1236575  78.5411024  44.5503426  13.3972621
  11.2151424  16.9111763  60.5401629  10.3975669  17.3894630  60.6781596
  11.8791238  17.4387680  60.9840125  75.4218578  80.2135199  84.8945167
  74.6288681  80.7482379  84.8561400  75.1016831  79.3118375  84.9208036
  26.0737983   8.5613857  77.7365416  26.1071769   7.9523264  76.9988662
  26.9906084   8.7007462  77.9737538  86.8481970  75.1492947  85.7308563
  86.1359310  75.5492252  86.2298186  87.5908661  75.7395476  85.8584408
 104.9738359  80.9207266  74.8283249 105.8977461  80.7190626  74.9764937
 104.5377254  80.6542128  75.6376534  19.2297061  57.0706248  87.1026043
  19.2137988  56.1572992  87.3886386  19.6360381  57.0432788  86.2363638
   0.9552177  36.8288970  31.0426688   1.5214332  36.0854411  31.2498164
   0.7222923  37.1973228  31.8948674  84.9854279  50.5565405   6.4964449
  85.7180882  50.0654221   6.8682581  84.2606068  50.4003811   7.1018273
  24.6483691  70.3906160  81.3904923  25.2860911  70.7087296  82.0295131
  24.2599757  71.1849635  81.0238898  51.2208176  49.4181967  14.6005630
  51.4205027  49.5543623  13.6743796  50.5924845  48.6961174  14.6064663
  73.0769110  73.1554317  36.3736129  72.9136038  74.0005827  36.7922783
  72.2711182  72.9667139  35.8926630  11.9922812  89.4612973  67.6052755
  11.2712176  90.0688713  67.4405259  12.7680858  89.9155753  67.2766536
  49.7449064  49.9832964  20.1406956  49.3562412  49.7788191  19.2901909
  50.3101540  49.2348528  20.3318906 107.5524330  35.4098868  35.0534391
 107.1065998  35.3912616  34.2066097 107.7974796  34.4988322  35.2151990
  91.4111996  55.3417301  46.0554886  91.6438103  54.6504021  45.4356575
  92.2245789  55.5257320  46.5253735  96.5853405  61.2980223  16.0879457
  96.5866661  61.6953850  15.2171206  97.4925137  61.3689852  16.3849735
  38.3634591  40.9508896   8.4494138  38.3870363  40.5269766   7.5915241
  37.5794482  40.5974865   8.8697320  49.1683674  40.2938461   8.1131554
  49.7689056  39.8262548   7.5326848  48.7148428  39.6026754   8.5956788
  94.4515467  86.9971603  76.7077416  94.0375900  87.2959703  77.5174242
  95.3510904  87.3191875  76.7656463  34.9844122  44.1080523  15.8053672
  34.4338369  43.5216665  15.2864766  35.2393222  43.5863256  16.5663207
  25.7556764  26.9769751  55.0817221  25.6024877  27.4820124  55.8802861
  25.0425617  26.3387810  55.0614494  49.2901182  30.9378314  50.9712362
  49.4625616  31.8326545  51.2641287  48.3379412  30.8937383  50.8837938
  27.8876670  24.2205930  18.7146854  27.1113856  23.8013291  18.3434284
  28.5301002  24.2061162  18.0052507  44.9274158  42.5157309   8.9200783
  44.5856905  41.6282511   8.8113129  44.1490746  43.0581713   9.0472656
  95.3560448  46.5918875  17.7958655  94.4368553  46.7517424  17.5819635
  95.5995655  45.8383894  17.2581160  40.5507278  53.0376911  22.8290844
  39.6291161  52.9346371  22.5919223  40.7048416  53.9814568  22.7867961
  71.2635231  50.0148106  11.9253004  72.2126055  49.9538946  11.8168497
  71.0567999  49.3637800  12.5958645  90.9291887  87.7245658  84.3760076
  90.1595163  87.7420252  84.9448088  90.7102918  87.0871227  83.6963159
  72.4600506  59.1307354  23.2795763  72.8407478  59.9878979  23.4708118
  73.1656218  58.5096121  23.4601712  70.2141571  77.5612736  55.2781057
  69.4145775  77.3799849  55.7721090  70.9172153  77.2049093  55.8211946
  20.5885585  85.2266162  85.1907861  19.6943458  85.2081578  85.5317852
  20.8161147  86.1560314  85.1654988  42.7946798  21.4892660  87.0405866
  43.1753818  20.8493935  87.6421348  43.5073320  21.7066322  86.4396642
  81.8450737  19.0894544  39.2659020  82.4472332  18.4302282  38.9208579
  81.2374592  19.2590213  38.5459852  70.3302479   2.7892601  53.3687592
  69.9874115   3.3316791  52.6584959  70.5513048   1.9575532  52.9496813
 106.5571117  61.4357090  10.4358292 106.7315674  62.3066473  10.0790989
 107.2239304  61.3158560  11.1120045 108.2262897  50.3526497  55.8845806
 107.6756191  49.6147108  55.6229877 107.6949310  51.1263800  55.6968832
  82.3910236  73.6451435  21.5986395  81.9265747  74.0395594  20.8604264
  81.6969013  73.3378077  22.1817088  68.3474970  78.7400007  32.1743798
  67.9168844  78.1164932  32.7592206  68.0802202  79.5989943  32.5013709
  71.7773628  20.9406233  26.9699788  71.6700125  21.5443778  27.7049541
  70.8833885  20.7147288  26.7130423  43.0096292  73.2357264   6.3698238
  43.1510305  72.9638386   7.2766387  42.1206236  73.5904741   6.3619912
  70.2500391  82.4432462  85.3456104  70.3037834  83.3708709  85.1157051
  69.6114516  82.4096244  86.0578653  67.0054102  62.6635742  11.0596251
  67.5279713  63.0806541  10.3746414  66.5040827  63.3803844  11.4483213
  64.4124508  20.2064276  25.1296067  64.0539408  19.4282210  24.7028780
  63.8611841  20.9249473  24.8196602  76.5789604  41.2931585   8.1645143
  77.2280455  40.5993891   8.2811487  76.9979668  41.9157362   7.5703233
 100.9115076  58.8513076  76.5665835 100.6360054  58.0251318  76.1693889
 100.1605129  59.4338399  76.4530068  64.3549490  48.7988329   5.6933600
  63.8990355  48.8290453   6.5344656  65.2828598  48.7602234   5.9251446
  72.7390480  60.0946140  37.7203465  73.6158323  60.0921631  38.1043696
  72.8803349  59.8753405  36.7993736  87.5729179  41.2459183  10.3326952
  88.4355068  41.1410999  10.7341778  87.0457458  41.6753578  11.0064149
  71.1350584  38.5656786  10.4084289  71.6370392  37.7699924  10.5848765
  70.9099913  38.5059285   9.4799864  28.6184303  12.3045956  86.0438660
  29.3392364  11.7041336  85.8538188  29.0202419  13.1732594  86.0296026
  59.8294973  32.5723171  17.9589593  59.8829603  31.8284321  18.5589659
  60.7359028  32.8619814  17.8552234  15.4473726  99.6192645  54.6546030
  14.5565216  99.9579790  54.5658207  15.6877605  99.8121879  55.5608177
  85.6765747  54.1924334  42.1909809  86.3750935  54.6746445  42.6334476
  86.1102772  53.4184599  41.8316650  34.8244834  38.5001373   8.5573250
  33.9315629  38.6902118   8.8450694  34.7822642  37.6050234   8.2208389
  14.8442928  14.9340521  75.7879525  13.9345829  14.8667370  75.4978913
  15.0438587  15.8687483  75.7355350  81.8764114 100.6596988  80.3708803
  81.1740494 101.0386747  80.8993703  82.5755501 101.3129323  80.3977990
  38.6357927  36.1250520  21.2278080  38.5932398  36.3010669  22.1677232
  37.7299833  36.2028241  20.9283185  72.0183992  46.6085958  12.0945954
  72.7720547  46.1415863  11.7338562  72.2159433  46.6981506  13.0268979
  65.4596853  71.4131880   2.6839688  64.9719143  70.6152582   2.8879777
  66.3733292  71.1309862   2.6408947  86.0408640  56.8080925  76.1253029
  85.7775450  56.2571757  76.8624490  85.7491159  56.3272917  75.3507405
  45.8396959  45.2082777  10.6883001  45.1975965  45.4505205  11.3555825
  45.3808451  44.5792055  10.1315641  77.7179146  18.9809585  25.7060456
  78.6295319  19.0456355  25.4214382  77.3497105  18.2769251  25.1721978
  75.3202009  65.2677298   1.9227898  75.8198690  65.8729553   2.4707526
  74.5145893  65.7414246   1.7158233  99.6599483  72.1651220  11.3541257
 100.0801849  71.9464159  10.5223799  98.8315392  72.5740814  11.1036777
  40.3540754  40.2855873  23.8845468  40.6363964  41.0077381  23.3232737
  40.7978725  39.5166063  23.5268521  46.9512224   5.1031828  25.2449822
  46.9170904   4.3214035  25.7962418  47.7041340   5.5948693  25.5730081
  92.9854202  20.3578305   7.9326051  92.0486164  20.2801847   7.7520472
  93.1434917  21.3008595   7.9767132  68.2155418  55.3561783   8.1467724
  68.2707453  55.6240320   7.2294730  67.2841311  55.4178762   8.3586681
 104.6056270  69.2649954  75.3320831 104.7868490  68.8701754  74.4791418
 104.9283838  70.1627415  75.2538854  67.4314547  34.6432066  30.0291252
  68.3654928  34.4549370  30.1205969  67.2681713  35.3527451  30.6505156
  61.3469315  95.0037003   9.1379821  60.8309078  94.7729015   8.3655262
  62.0117617  95.6091022   8.8097721  67.2989750  47.5906658  12.9257452
  67.9077196  46.8521738  12.9085088  66.7261744  47.4115419  13.6714280
   1.8825801  27.5251389  24.4631076   1.7746146  27.6904655  23.5264969
   2.7945026  27.2487640  24.5539761  94.6004486  91.0628414  42.8357172
  95.0359726  91.0499001  41.9834328  95.3002453  91.2567234  43.4593630
  52.2908497  25.6962061   5.9981310  52.9789543  25.0395036   5.8909589
  51.5081501  25.2850580   5.6312883  34.6651927  14.8627506  70.3008872
  35.1256076  14.9376427  69.4650393  34.1675035  15.6771122  70.3739959
  36.4796392   9.1569601  70.8756631  36.3352863  10.1029430  70.8531075
  37.1812812   9.0065704  70.2421707  18.1870071  95.9137435  55.6720543
  18.5641567  96.5885384  56.2365389  18.9348403  95.3790713  55.4054165
  64.3380785  70.0626516  45.0939941  64.6961164  70.2374458  44.2236519
  63.6846924  70.7494926  45.2265596  42.5450420  62.0320463   6.9924134
  42.9396725  62.8618956   7.2604567  43.2755089  61.4136744   6.9761086
  81.6614819  55.9293509  27.3237085  82.5156116  55.8371782  26.9015622
  81.8448925  55.8351755  28.2584405  83.2613659  48.5590219  33.6285329
  82.8083706  47.8060770  33.2489252  84.0442753  48.1875277  34.0350604
  90.6392288  60.5265856  16.1801910  90.7508087  59.6615887  15.7857752
  90.3886127  60.3461742  17.0862138  19.2380428  25.2280617   2.3782057
  18.3731830  25.0855970   2.7628517  19.8300231  24.7062206   2.9199374
  88.2292175  26.8028545  15.8963370  88.9092159  27.0811057  15.2828181
  87.4705887  27.3425388  15.6739450  94.0144730  73.3581734  25.2798772
  94.2695236  72.5909615  25.7922959  94.5764923  73.3267450  24.5056820
  22.7976171  27.7808319  77.1212178  22.8379337  26.9891010  77.6576620
  21.9186059  27.7690350  76.7424983  67.4809265  74.2835712  40.9136868
  67.2851944  73.8813925  41.7599583  66.8203402  74.9693537  40.8159018
  56.5462875  76.1189651  30.0251341  57.0225096  75.6353998  29.3501449
  55.9256172  75.4836559  30.3820324  64.3369102  89.8142529   8.3476233
  64.3804550  88.8622093   8.4367931  64.9702644  90.1437473   8.9852208
  53.2287645  80.3266907   7.7086246  52.3235559  80.1032543   7.9252070
  53.1549406  80.9586525   6.9934988  72.4652004  69.8314190  43.4440565
  73.2041740  70.0977802  43.9910507  72.8292704  69.7749043  42.5606012
  71.6579628  42.8955841  13.6135805  71.0865641  42.2641420  14.0506375
  71.6610432  43.6571884  14.1933906  75.9056044  53.8186216  24.8058200
  76.4664888  53.4430456  24.1271567  76.5053320  54.3094444  25.3676534
  34.8544113   5.2484213  81.0808712  34.1092817   4.9850021  80.5408495
  35.2912227   4.4263588  81.3036841  79.6107856  35.9389149  71.0612601
  79.3489257  35.5552612  70.2243143  80.1729290  35.2764546  71.4629692
  14.8189823  58.5156666  85.3566742  14.8198930  59.0818630  86.1284575
  15.7412187  58.3017002  85.2155053  64.2025566  35.7026625   8.1019533
  64.4095182  35.7849789   7.1710271  64.0408230  34.7679019   8.2296127
  42.2498894  79.5472193   4.6995503  42.7445507  78.8686323   4.2401353
  41.8764496  80.0853825   4.0015852  75.7255220  62.9705906  20.4327559
  74.9322414  62.5114679  20.7086897  76.2526941  63.0375624  21.2288952
  70.9165287  33.0418229   4.4557860  70.3915071  33.0695987   3.6559033
  71.0861731  33.9608073   4.6629673  92.9851627  44.8748446  62.5111055
  93.8045025  45.3667259  62.4566841  93.1909752  44.0232611  62.1255207
  23.0429411  83.4750462  20.6693840  22.8521299  83.3395481  21.5975356
  22.4351025  84.1628075  20.3978157  64.0857410  59.0922880  33.4589672
  64.7067308  59.3728828  34.1311812  63.4475183  59.8040056  33.4104204
   3.5456832  38.8718390  21.8875694   2.8925021  39.5468926  22.0716739
   3.0804237  38.2275343  21.3540602  75.0341606  84.9383163  24.4713593
  75.3450346  85.8436012  24.4641280  75.8109570  84.4167042  24.2695379
  36.1638586  24.1360413  71.9633168  36.1732189  24.1264044  72.9204219
  36.2998334  25.0547920  71.7317015  71.6823721  62.6903677  37.1014309
  71.0807991  63.1223726  37.7078271  72.1627474  62.0657635  37.6448870
  69.8998547  61.5889835  53.0236101  70.4981089  62.1961927  52.5881577
  69.0983820  62.0954800  53.1552553  52.4210787  27.9074764  20.0533509
  53.2571888  28.3641148  19.9604452  52.0162964  27.9705715  19.1882479
  26.8905441  60.5351006  71.6903347  27.5338308  59.8267208  71.7150444
  26.0451404  60.0892101  71.6383856  75.8944798  56.6291285  11.4380348
  75.4667807  57.2410822  10.8390200  76.3446474  57.1886301  12.0709217
  47.0781183  66.4589548  15.7664645  46.7745590  66.7035389  14.8922431
  48.0282211  66.5693045  15.7296789  87.2473431  45.0757504  13.2878518
  87.4624825  44.4843864  14.0091276  86.8708992  44.5071697  12.6161122
  96.4181479   0.3838294  36.0324192  96.8447598   0.0224822  36.8093777
  95.5984028  -0.1050622  35.9600806  61.0637458  78.1571763  66.2732666
  60.3889926  78.4327691  66.8937462  60.6885036  78.3440035  65.4127329
  70.2333832  45.1183987  20.2107239  70.1827431  44.1784430  20.3843737
  71.1134291  45.3671074  20.4933786  47.7025843  61.6324949  12.2555125
  47.1316195  60.9591770  12.6254821  47.4312544  62.4414492  12.6893365
  71.9276285  85.3383446  10.7559323  71.6481733  84.9847984   9.9114543
  72.5732756  86.0089207  10.5330157  99.8474026  58.5894012  44.1618013
 100.3503227  57.8754139  44.5536280  99.7393703  59.2234421  44.8707151
  72.5944233  87.5105476  13.2303822  71.7566776  87.2941113  12.8210235
  72.6988125  86.8572712  13.9221740  87.5955200  52.9870367  57.7047825
  86.6756916  53.2156467  57.5709963  88.0693913  53.8059521  57.5596905
  51.4567232  85.7649326  59.2543745  50.7946396  86.4138794  59.4925928
  51.0331726  85.2242661  58.5876513  73.3197355  59.5204592  30.6224561
  73.5966110  60.4354000  30.5729532  73.3190298  59.2209101  29.7133350
  40.7524300  66.8796444  25.8916306  40.5150318  65.9855127  26.1373901
  41.6489410  66.9855022  26.2098980  87.7757263  16.7941952  35.1308441
  88.2112408  15.9811091  35.3866839  88.3890915  17.2151613  34.5285082
  74.7724247  71.1686945   0.6592131  75.3831816  71.9055605   0.6745528
  73.9122057  71.5729237   0.5458457  99.1915321  54.3597746  34.9065590
  99.9206161  54.8556185  35.2791262  98.4262657  54.9174595  35.0465512
  41.5898561  78.3307123  15.5218363  40.9199047  78.2255125  16.1973596
  41.2336397  77.8762722  14.7584057  66.7191267  94.4353867  42.7954292
  65.8701229  94.6136761  42.3909092  66.7879438  95.0784016  43.5011435
  82.3158455  39.6098447   9.1406876  82.2859764  38.7029672   8.8358694
  82.8708363  40.0587320   8.5029435  78.7871226  12.0093291  12.1172702
  78.5941323  12.9467910  12.1051586  78.2156046  11.6559260  12.7989662
  83.3757114  73.3440971  47.2811890  83.9759064  73.2455015  46.5420818
  83.3101463  74.2900515  47.4119473  34.6370554  86.5930939  58.2869005
  34.4531822  86.9459438  57.4163151  35.4172301  87.0657253  58.5770226
  99.5330906  58.0445051  20.8069611  98.6985874  57.6149940  20.9950066
 100.1116657  57.3334932  20.5313873  85.8252144  53.6171722  38.1747794
  86.7276573  53.9243937  38.2610464  85.2919483  54.3527603  38.4760642
  49.1883651  10.2616583  86.1366962  48.9843360   9.6662890  85.4154917
  49.8101131  10.8862244  85.7630962  97.3834991  63.8402796  16.7982244
  98.2661819  63.5099745  16.9655859  96.8722248  63.0597925  16.5845287
  98.4137535  55.0119305  38.2136512  98.7036514  55.1264906  39.1186762
  98.5148430  55.8778095  37.8183436  10.7035621  65.1999760  28.0536866
  11.1433395  64.4398642  27.6728249  10.0320895  64.8269224  28.6248207
  61.8564312   6.7538820  79.1158843  61.1055652   6.4820086  79.6436369
  61.4714996   7.0854794  78.3046454  93.8002062  78.8747638  87.4845732
  94.4861603  79.2088287  86.9065559  94.2677307  78.3430498  88.1287274
  68.6109781  55.6026840  26.5837622  69.2101622  54.8619795  26.4912009
  67.7602148  55.2017450  26.7617559  84.1587830  40.2242136  20.2228999
  84.0781689  40.6035805  19.3477893  85.0639629  40.4018307  20.4784942
   0.5888541  88.7890595  82.6419651   0.0024207  88.7816136  81.8854797
   1.3140567  88.2180493  82.3884624  78.6405277  77.0094013   6.6304004
  79.1598368  77.6397276   6.1311638  77.8563070  77.4947405   6.8866581
   1.0700122  37.8968369  72.6911026   1.8659393  37.3933064  72.8619510
   0.5026833  37.2928177  72.2120124  81.2599087  58.9217997  49.8101091
  80.8476448  59.7771454  49.6890783  81.6133690  58.9499378  50.6992149
  99.8357868  76.3551044  28.8571453  99.9703217  76.3035727  27.9108477
 100.6720066  76.6690922  29.2012024  87.5882816  67.9860544   4.4098642
  88.3255386  67.6941633   4.9460417  87.4308014  68.8877821   4.6897230
  31.9461528   0.2240406  73.8998693  32.5050060  -0.2259697  74.5334345
  31.6895906   1.0344444  74.3399316  15.0626548  94.7245401  62.2789472
  14.8657878  95.3796189  61.6093629  14.4053252  94.0414851  62.1463531
 103.4308624  18.9240766  12.3914647 103.0957222  19.5984471  11.8005848
 103.0637264  18.1066942  12.0548201  57.3286152  82.6743126  14.0936017
  57.0445347  83.2583809  14.7967315  56.5964317  82.0694256  13.9741862
  52.6860610  33.7232815  85.9716637  51.8183128  33.7533890  85.5687561
  53.2941143  33.7445198  85.2327043  33.8711357  60.3142595  58.8839149
  33.9652705  60.7469845  59.7325134  34.6620297  59.7820568  58.7974024
  72.9725266  52.9183340  13.7326920  73.6921787  53.3866501  13.3095968
  72.1828032  53.2747793  13.3258462  56.7452145  85.6389809  27.4736905
  56.3475466  84.9872398  26.8963480  57.4652481  86.0058594  26.9606781
  19.7140829   9.0241896  79.4446498  19.5981971   8.0744253  79.4719791
  19.5841924   9.3074690  80.3496986  56.2046146  88.7332726  55.2919579
  56.0910702  89.6547604  55.5247831  57.1386909  88.5674000  55.4192972
  92.4606514  98.8939517  85.7715225  92.1569013  99.1112893  86.6528442
  92.0075321  99.5156043  85.2019119   1.1696418  40.2748585  31.5780687
   1.7520602  39.7952437  30.9890079   0.5451377  39.6175694  31.8849778
   0.3802951  83.6455250  10.0594532  -0.4289357  84.1498280   9.9755162
   0.6589397  83.4879017   9.1573751  58.2220078  67.7829742  13.9114106
  58.6989689  67.9268980  13.0940831  57.5220490  68.4357548  13.8983905
  72.3416328  97.7307034  18.2593966  72.8651237  98.2704067  18.8517785
  71.8989515  98.3601475  17.6901269  82.4694252  68.8953733  33.3165121
  82.6996803  69.2422819  32.4546123  82.6012993  67.9506016  33.2374668
  33.3521636  84.0465158  57.9963034  33.7437614  83.5278195  57.2935694
  33.9088424  84.8225897  58.0599278  88.7275028  48.9982080  32.3161125
  88.8366508  48.8790941  33.2595801  89.0293026  48.1740475  31.9341445
   3.8886626  44.8497200  31.0990763   4.4281753  45.2084208  31.8037033
   3.7814792  43.9260054  31.3260078  46.8965721  63.7747145  16.8550718
  47.1825171  64.5268726  16.3366842  45.9988642  63.6117077  16.5656316
  70.7290832  24.2898117  78.4453970  70.0400917  24.5818983  77.8485733
  71.4335910  24.9271046  78.3281094   3.3758680  19.6353470  70.3516453
   4.2855636  19.7026239  70.6417519   3.1255142  20.5341850  70.1379889
  17.7752725   7.7160441  86.3286952  16.9581596   8.2093893  86.4005847
  17.6456586   6.9543301  86.8936990  43.5426521  45.7732534  11.9859588
  42.8743029  46.3732576  12.3169148  43.3973026  44.9613428  12.4716604
  29.5129871  69.6153498  15.8568597  30.3038073  70.1486588  15.9369648
  28.9545798  70.1042938  15.2524185  63.5923004  58.9392471  42.8312874
  63.5233307  59.8730564  43.0299616  62.7776146  58.5627556  43.1641197
  63.9851809  75.6850624  24.9946785  63.3767891  76.3990021  24.8039341
  64.5429230  75.6318808  24.2185807 100.6983376  83.0031681   0.8059523
 100.2718925  83.2070541   1.6383001 100.4012203  82.1180153   0.5951044
  58.4427261  63.1718111  27.5976133  58.5470963  63.3022356  28.5401249
  58.8976145  63.9148712  27.2011709 106.1371994  75.3091335  22.9336810
 106.6782665  75.3269911  23.7230873 106.7647362  75.3521395  22.2121668
  71.4093304  73.8253641  20.9826398  70.6196833  74.3482876  20.8439183
  71.0835218  72.9654169  21.2482882  70.6854844  77.9735225  86.8532578
  71.2814689  78.4683889  87.4155199  70.7075977  78.4356778  86.0153109
  92.3727886  30.3156410  84.1805973  91.7141429  31.0082756  84.1287923
  93.1683628  30.7148300  83.8285470  82.4647999  49.2331791  29.5302105
  82.4279404  49.1374302  30.4818964  82.6929283  50.1522541  29.3906140
  61.3848106  22.6687037  86.8285136  61.8090335  22.1179854  87.4865214
  60.8738319  22.0574509  86.2979439  86.4842129  53.1671047  13.5280645
  85.5466270  53.3593607  13.5133445  86.9046593  54.0132952  13.3750415
  61.4508716   1.3693033  83.9452708  61.4596931   0.5584322  84.4538381
  62.1692459   1.8874537  84.3081641  94.2472172  42.9959249   2.3859966
  93.9354515  43.3588839   1.5569642  94.2661476  42.0499229   2.2412461
   2.6185497  78.1732368   3.3806285   3.4713348  78.5066986   3.6595374
   2.7916225  77.7437973   2.5428587  19.4431249  31.3739334  81.2863278
  18.5272590  31.1562382  81.1130535  19.6973220  30.7893215  82.0003605
  51.1878061  22.0512772  25.9124184  51.8649483  22.7217412  25.8219266
  50.6119299  22.3838687  26.6008806  57.9784767   9.8246418  82.9130542
  58.9062301   9.9199902  83.1284630  57.7825538   8.9063536  83.0990547
  36.5418124  69.6137285   7.6618880  36.2363100  70.1601934   8.3859551
  36.0772181  69.9499273   6.8954974  79.7758770  60.4667521  31.7960763
  79.3002081  61.2512732  32.0690179  79.4243193  59.7689867  32.3490310
  86.6835022  55.6817007  23.0746269  86.6595650  55.1613092  22.2715998
  87.3739243  56.3267612  22.9215169  81.6970158  55.4499006  49.9073839
  80.8497524  55.3186131  49.4817638  81.7182255  54.7955418  50.6056643
  62.2993565  77.8848362  41.0122204  62.7909565  78.5800934  41.4494514
  61.3931799  78.0222321  41.2882519  63.7744856  67.6166344  15.3986096
  64.3749905  67.0186186  14.9536324  63.0338287  67.0665121  15.6536150
  93.4283257  27.0391512  21.9661474  93.3257866  27.7740169  21.3614273
  94.2435074  27.2245574  22.4323440 106.4747190  89.5126742  86.4961447
 106.0236549  90.1501244  87.0497077 107.2416067  89.9814885  86.1670181
  33.1218902  17.3308216  78.9977723  33.4142009  16.5441071  79.4580686
  33.5412590  18.0523430  79.4665652  77.0736170  83.0654621  23.8279629
  76.8385601  82.3269176  24.3896890  77.9103613  82.8127956  23.4377670
  89.4381809  67.3467159  11.4652407  88.5382080  67.4644518  11.1612189
  89.9266720  68.0563736  11.0481155  64.5486355  48.6921072  11.7454684
  64.7768927  49.5008707  12.2037530  64.9977636  48.0038261  12.2361648
  75.9815884  68.7241793   0.2880901  76.8778563  68.9929199   0.4898492
  75.4491329  69.4926357   0.4935027  70.3754377  24.5486069  15.6643748
  70.8730745  23.7323046  15.6170499  69.6142244  24.3341446  16.2036240
  32.0419971  28.8255201  88.2980343  31.8307916  29.6542488  87.8681033
  32.5191204  28.3265148  87.6350277  66.5280533  73.0019760  24.3695998
  66.1352730  73.6933136  24.9025226  65.9024668  72.8630352  23.6585665
  97.8394985  28.2587290  22.4459887  98.3376980  28.9828944  22.8249502
  98.4269905  27.8802705  21.7918825  84.8923111  76.2416220  12.5669920
  85.5615234  76.9126177  12.7017200  85.3686523  75.4133511  12.6243663
  77.4707270  10.7945991  22.9547334  77.3504925  11.7373049  23.0691171
  77.2307682  10.4180670  23.8014197  39.8290038  52.9076099  18.5778677
  39.3236947  52.4192667  17.9279315  39.3786645  53.7493134  18.6483073
  63.7021112  72.4814701  25.5470800  63.4957838  73.3048534  25.1047015
  62.9311466  71.9326496  25.4034090  71.1056614   3.5171860  40.4711533
  71.4393997   2.7097660  40.0800943  70.1669979   3.3621252  40.5764961
  62.3214149  71.7559052  21.8339539  62.1109533  72.3565483  22.5489140
  62.0739031  72.2314215  21.0409498  32.8161359  43.9253378  13.2912087
  33.5873342  44.1072416  12.7541828  32.1941733  43.5193443  12.6874220
  93.4561825  54.5492601  35.2242589  93.0080509  53.9383364  35.8092284
  94.2292595  54.0707779  34.9248719  88.9196873  64.2447948  46.6183662
  88.2137775  63.9007950  46.0710287  88.5477734  65.0274563  47.0250034
  87.8549290  58.9773035  24.9493432  87.1773243  59.6481848  24.8656321
  87.8959560  58.5691071  24.0845156  23.9686243  44.4558083  53.9599484
  23.7422172  43.6572395  54.4366687  23.1253282  44.8596512  53.7550252
  77.3104811  15.1521575  52.4318409  76.8451262  15.8926249  52.0427561
  77.0870399  14.4082129  51.8725061  80.9288216  90.2577782  22.3593783
  80.8150005  89.3962479  21.9580936  80.0379658  90.5564785  22.5421047
  23.0877296  34.3028580  79.1601312  23.1315223  35.2507721  79.0345406
  23.6245624  33.9426743  78.4542238  62.2541380  59.6999359  29.5455503
  62.1598530  60.4945230  30.0708818  62.4837542  59.0199327  30.1788831
   3.2476314  75.1075411   5.2701849   2.9806598  75.2179909   4.3576294
   2.4287208  75.1388407   5.7647836 103.1806143  14.6410404  83.6248854
 102.4633797  14.9679552  84.1679626 103.6558684  15.4275404  83.3569529
  80.0268269  63.5304737  30.8422422  79.2988348  62.9413366  30.6442881
  80.8102608  63.0216694  30.6335020  74.6338797  63.4983301   5.5919343
  74.6748400  62.8190660   4.9187663  75.5393744  63.7925243   5.6907427
  64.4334880  40.5437981  87.2203839  64.4279186  40.7887302  88.1457012
  65.3550331  40.5904804  86.9658060  65.5356359  32.8655171   5.8633429
  65.9741116  32.0305395   5.6996918  65.8576965  33.1410003   6.7216063
  65.3764772  28.8002825  18.1133246  65.8428049  29.1109681  17.3372793
  64.9394417  27.9988670  17.8252876  54.7354213  29.8297154  80.7170474
  55.3173343  30.3844582  80.1975643  54.3149749  29.2568909  80.0756943
  53.6191893  60.7002163  16.9972742  54.5744228  60.7536364  17.0274699
  53.3591700  61.3980484  16.3959038  71.0607767  90.2506828   9.4568962
  70.8368587  89.3418598   9.6572530  71.0517502  90.6923676  10.3060496
   5.2661212  58.4280252   9.5880216   4.6813663  59.1836691   9.6453726
   6.0685809  58.7751865   9.1984373  48.8027755  12.5034128  79.1073090
  49.3847171  11.7851387  79.3556314  48.0608551  12.0741974  78.6812281
  53.7186357  17.8000205   0.5764480  53.6389585  17.9098170   1.5239862
  54.6590968  17.7071326   0.4243390  98.4892654  42.2091150  42.0358181
  99.1124916  42.8523111  42.3736382  97.9404449  42.7039957  41.4274406
 105.2312239   3.4338420  23.9682317 105.3432282   3.2162135  23.0428553
 104.3695029   3.8480323  24.0142703  69.7308016  81.9278145  23.9645100
  70.0188208  82.7782440  23.6327744  69.9988937  81.3041878  23.2896447
  69.6717596  62.6094961  22.0478368  69.1609383  63.4092474  22.1730685
  70.3263617  62.8439522  21.3899946  91.7913818  39.2286825  31.0229635
  91.7197132  39.8727775  30.3185248  92.4631500  39.5840049  31.6049528
  87.7230453  62.3639202   9.0062881  87.7474689  61.8882513   8.1760007
  87.8705311  61.6918802   9.6717548  11.3788493  89.4134426  21.9231725
  10.8943542  90.2385426  21.9495630  12.2992500  89.6762276  21.9173336
  78.5278702  53.0529022  42.4384308  78.3068371  52.1980429  42.0688486
  78.7562466  53.5900354  41.6797686  64.5007324  80.3834915  32.1126771
  65.3515196  80.5906773  32.4992919  64.5553589  80.7209778  31.2186146
  67.8612518  64.6398163  22.3280454  66.9595909  64.9544239  22.2627163
  68.3450413  65.3755617  22.7033615  99.0149689  85.0717354  39.2353845
  99.7835064  84.7197914  38.7862492  98.3771896  84.3583107  39.2135572
  48.7423126  21.2575518  80.1893586  49.1898529  21.0600935  81.0121309
  48.3001701  22.0909439  80.3512180   2.6268275  83.5635036  61.1950272
   3.0176147  83.2947128  62.0264500   3.3556779  83.5569065  60.5745715
  85.3831005  58.1803894  33.8218284  85.1877117  58.2541037  32.8876853
  84.8103428  58.8246536  34.2378879  90.3443050  63.3614588  25.8293557
  91.1833668  62.9699326  26.0720825  90.4205608  63.5279799  24.8898411
  75.3021240  78.4243822  10.8015466  75.3240967  78.8196707  11.6730380
  74.5501423  77.8326321  10.8258462  69.6796942  17.0801115  28.2459807
  70.6183386  17.2002685  28.1019616  69.5286369  16.1500609  28.0773997
  10.4060920  86.1167424  81.5408754   9.7600062  86.7581313  81.2451964
  11.2360652  86.4293759  81.1808347   4.7278730  24.3473755  87.4470024
   4.2958442  23.9522825  88.2042890   5.6483547  24.4099079  87.7020230
  96.3398838  99.3344212  12.4850988  96.3635540 100.2540302  12.2205222
  96.7444611  99.3242741  13.3525372  77.9029608  89.9569702  18.2666957
  78.6603165  89.8259544  17.6961911  78.2575655  90.3999710  19.0375602
  16.8262521   5.6343161  69.1685647  17.4160711   5.4594456  68.4352416
  15.9779636   5.8033501  68.7586015 106.1192513  61.1041403  16.2408447
 105.3439617  60.8394194  16.7359090 106.7470074  60.3954363  16.3818789
  43.0614233  65.5089188   3.4780625  43.0644512  66.4220238   3.7652305
  43.5585642  65.5134392   2.6600987 106.7968845  63.9023685  21.9407892
 106.6927910  63.7644386  20.9993172 107.6421642  63.5044622  22.1491408
  98.7528992  84.6909142  43.5147429  98.8626862  84.9569130  44.4276619
  99.2962933  85.3039646  43.0196428  44.0067283   7.8723990  78.0983811
  43.0772964   7.6989065  78.2476723  44.3849842   7.0118891  77.9176014
  93.2083130  37.0189691  37.1444368  93.3266735  36.8751168  38.0833340
  93.1264019  36.1393976  36.7758179  80.4691879  38.9798294  81.1925345
  80.0856487  38.1719242  81.5337109  80.7422630  39.4632469  81.9722664
  73.5324049   7.6863331  15.9868670  74.1906881   7.2252566  16.5067768
  72.7487469   7.6845086  16.5365100  96.8329430  48.3142757  24.6592236
  97.7857590  48.3783865  24.7245884  96.5079308  48.7882662  25.4246807
  90.6121731  23.0726385  38.0462742  90.1301861  23.1608868  37.2239995
  91.5243149  23.2386875  37.8082466  42.6035786  49.2931604   0.2354606
  42.2079897  49.2185068   1.1038890  42.4266052  48.4499788  -0.1816308
  62.0369816  48.6861610  25.1279545  61.8477011  49.5409870  24.7410679
  62.7755833  48.3513546  24.6194243 102.4475193  53.7793016  22.0223522
 102.2509861  54.3302345  22.7800274 102.9370689  53.0405092  22.3839569
  82.9413319  13.1366205  24.7757626  82.3353004  13.2359636  24.0415335
  83.1469822  12.2019100  24.7917986  34.3153516   0.4065310  71.5813094
  33.7266675  -0.2781404  71.8989676  35.1914636   0.0907217  71.8025022
   4.4449695  80.5790997   0.5002346   4.1471561  81.2683296   1.0939416
   3.6387523  80.1850510   0.1671121  87.9811382  39.2102361  17.5241005
  88.6068153  39.0031743  16.8299222  87.4706936  39.9414229  17.1761870
  29.4664431  41.5489912  50.3215885  29.3557954  42.1927118  49.6218634
  30.2712941  41.0836172  50.0938368  43.7226629  40.7261419  11.6239238
  42.9132509  40.3637075  11.2637532  44.4177485  40.2025080  11.2253118
   3.7031309  32.5051342  70.3344160   2.7490131  32.4873386  70.2597445
   3.9957849  32.9747902  69.5533854  43.8385002  16.8832480  83.2756832
  43.6366979  17.2438179  82.4122619  43.3274166  17.4173914  83.8837242
  11.3116248  67.8250807  78.6009836  11.1122401  67.8741735  77.6660675
  12.2632010  67.7284020  78.6381912  63.6597538  53.2863235  28.9845848
  63.5013485  54.2186785  29.1324043  64.5471811  53.1393147  29.3118453
  77.0075464  29.9722958   9.2995250  76.9350147  30.8353662   8.8919920
  76.2344217  29.9063563   9.8600298  71.0859013  55.7857466  16.8432629
  71.7961121  55.7170343  16.2052083  71.3780117  55.2556372  17.5848055
  63.1507683  82.8485394  48.6811829  63.1634569  82.3641777  49.5066929
  63.3585215  82.1928024  48.0155325  97.2515011  83.7494087  31.1579347
  96.4613247  84.2896461  31.1580539  97.7147961  84.0025139  31.9563842
  37.4218893  76.2490320   5.9277940  37.9008412  75.8478880   6.6529989
  38.0841279  76.7494774   5.4511130  77.1965114   4.8337875  80.4010719
  78.0542175   4.4767605  80.6315088  76.6029350   4.0847956  80.4550487
  75.0045395  83.4194565  21.3820481  75.5591726  83.6326790  22.1324825
  75.6118488  83.0822086  20.7235146  44.5990364  15.7026516  70.2279442
  45.2578441  16.3643204  70.0172442  44.5761577  15.1338898  69.4583887
  63.3193588  63.7696362  15.2167797  63.4566784  63.6785841  16.1596930
  63.1536007  62.8776455  14.9116457  79.4040203  73.3466673  14.9867725
  80.1440239  73.7896013  15.4020226  79.3814564  73.7003613  14.0976012
   7.4411662  79.8921871  78.8654566   7.5797351  80.3122139  79.7143412
   6.7832454  79.2182398  79.0362501  78.5901642  61.8828011  28.4153891
  78.7950325  60.9884501  28.1426287  77.6393509  61.8877077  28.5256743
  93.4999752  44.7291517  48.1542015  93.0583477  45.0870466  47.3840714
  94.4231319  44.6898460  47.9042482  72.8590918  66.8342352  40.2945423
  73.1498384  67.7405596  40.3959417  72.1214247  66.7503214  40.8987188
  59.1184187  72.7832651  30.9747338  59.7854280  73.4697485  30.9827399
  59.0242290  72.5515938  30.0507808  83.0943108  32.4749923  14.2601466
  82.2181892  32.5683880  13.8860965  83.0480194  32.9374146  15.0969589
  13.1608574   3.9413779  32.3742342  12.5305168   4.2461532  31.7215395
  13.3533279   4.7166484  32.9016209  89.8486328  37.3526645  30.0257516
  90.6463623  36.8877578  30.2781749  90.1610088  38.1350017  29.5712113
  63.7916088  69.2239189  34.4434404  63.5177994  68.5175896  33.8583255
  62.9875803  69.4913101  34.8887229 106.7886313  11.5585559  25.2173901
 107.6045664  11.9062655  24.8574257 106.7302474  10.6707519  24.8643613
  98.5180855  85.0646877  15.0233257  98.6328506  85.9943199  15.2203929
  98.3754539  84.6548271  15.8764958   5.3282015   5.6321853  10.0750792
   6.2477152   5.6795829   9.8133826   5.3509132   5.6380027  11.0319924
   4.4029029  53.2876253  26.2211299   3.9328941  53.2091856  27.0512962
   3.7363322  53.5682726  25.5941057  91.7472553  54.3345833  64.0973902
  91.2799168  54.0859652  63.2998848  92.2663307  53.5622025  64.3214750
  66.2337637  51.8437910  29.5333958  65.9138489  51.3021612  28.8119221
  66.2121677  51.2648582  30.2953649  94.2629202   2.3140853  13.0562353
  94.2640122   3.2711451  13.0399144  93.7967452   2.0887988  13.8613188
  88.8399601  29.8087931  19.0762377  88.3600235  29.1162729  19.5304561
  88.3598518  29.9358654  18.2579565  81.3873768  78.5373211  31.7638254
  81.1043930  77.8679848  31.1408138  80.6464100  78.6367178  32.3615837
  77.4047995  61.3334084  41.2281847  76.7552137  61.9750738  40.9408998
  77.9766464  61.2154341  40.4696989  82.2169209  95.2136326  70.3606796
  82.3227215  96.1227226  70.6410265  83.0231571  95.0143814  69.8847485
  10.3703674  65.5771399  66.4616489  10.8878883  65.4706192  65.6634903
   9.8339065  64.7856760  66.5066814  14.4049342  92.4383640  24.0928388
  14.5960506  91.6600418  24.6162248  15.1905902  92.5687408  23.5618162
  63.1891624  38.8705860  85.4328429  63.7534610  39.5329224  85.8317277
  63.6669437  38.0489765  85.5464360  70.9350729  69.2278910  11.9734120
  70.8463812  70.0719881  12.4159801  70.0346136  68.9339161  11.8356276
  57.8901768  96.9065094  33.3728552  58.5122776  97.3011875  32.7617502
  57.9603672  95.9655762  33.2117677  90.3564835  98.3912659  47.7772522
  91.0479355  99.0311909  47.9464197  90.5233097  98.0887318  46.8845749
  86.7359352  90.5978584  14.0891111  85.8290100  90.3095436  13.9861763
  87.1915150  90.2303505  13.3317423  63.7681246  76.9123459  31.3594317
  63.0305099  76.9365931  30.7498741  64.4001102  77.5323057  30.9954500
 102.5862980  78.7711382  27.1729660 103.4542561  79.1678381  27.0987701
 102.1116352  79.0880394  26.4045238   2.9670127  50.2458763  35.4542494
   3.2725986  50.7331944  34.6891546   2.0152934  50.2177429  35.3558493
  69.9930716  74.3971729   7.7724314  69.6058226  73.9756632   8.5396326
  69.2557764  74.8238087   7.3358440  14.3439372  46.6816378  42.4627113
  14.5368655  46.3172960  43.3265829  13.6755164  46.0996485  42.1011448
  43.0900661  32.0858131  86.4333898  42.5233165  32.1532856  85.6649673
  42.6722852  31.4215790  86.9815513  89.3211555  63.6705780  15.5619907
  90.0015736  63.1365633  15.1520050  88.5950470  63.6533737  14.9385273
  85.3036022  61.4200258  31.7225933  85.4291248  60.5258703  31.4048481
  85.0785351  61.3162756  32.6471543  11.3394539  12.9903739  17.6342332
  10.7995693  12.2621196  17.9414749  12.2197239  12.6216357  17.5608385
  66.6521215  96.7285156  44.6335840  67.2646856  96.2716198  45.2099895
  67.2100401  97.1736336  43.9957523  85.5635929  66.3996267  59.7611332
  85.8007622  65.6533241  59.2106628  84.9589920  66.9111967  59.2235613
  19.8658736  68.8348103  24.9136662  18.9341338  68.7540770  24.7097254
  20.3069862  68.7039804  24.0743041  89.0833092  85.5976677  10.3788316
  88.9739037  84.9687862   9.6655464  89.1319275  86.4483738   9.9427521
  84.0706158  51.6441870  17.5805676  83.8496590  51.1186075  16.8116856
  84.4916153  51.0273981  18.1793666  43.5249416  37.4748074  63.3402294
  42.9443161  36.7280041  63.4864658  43.4256355  38.0128037  64.1256779
 101.0034370  80.3741455  21.8822408 101.8892479  80.7312584  21.8185997
 100.4932690  80.8857441  21.2543654  71.3768339  58.7718725   1.4857370
  71.3835573  59.6527243   1.8602839  70.7141352  58.8099051   0.7960898
  81.9431305  67.3680210   2.2060221  82.4201965  67.7779675   1.4845073
  82.0661163  67.9648495   2.9441965  61.5817499  58.4863043   7.8747231
  60.7838964  58.8901424   7.5332898  62.2507000  58.6867523   7.2200817
  80.6729889  82.7790833  11.0535491  81.2066936  83.5502529  10.8620179
  81.2685490  82.0395565  10.9324944   2.2265132  80.0471973  22.7172875
   2.9171928  80.0917149  22.0560694   2.2182639  79.1308117  22.9936981
  94.0645409  75.6160450   4.2063490  93.9214802  75.8125687   3.2805288
  94.4917583  76.3988400   4.5541266   7.9281409  53.8841105  36.3599968
   7.7524074  53.7519264  37.2915959   7.9866584  54.8342466  36.2597561
  55.4710189  18.3708368  75.6983274  56.3796894  18.2080446  75.4452544
  55.0080291  17.5682293  75.4581398  96.2054634  71.8238831  33.7456799
  96.5551472  72.0893431  32.8951025  96.0481453  72.6473856  34.2075515
 102.3658085  72.5887632  24.7347879 102.7874279  72.7637196  23.8934398
 102.5117683  71.6549587  24.8862386 102.1682453  66.1841249  42.4261141
 101.7322445  67.0361710  42.4136209 102.9231358  66.3097715  43.0010748
  93.6262798  66.4961958   6.7014432  94.1990471  66.1678886   7.3945403
  93.7051392  65.8502102   5.9995079  61.9740772  52.0807219  27.2165799
  62.5806904  52.5896978  27.7543473  61.4636374  51.5725565  27.8470111
  76.9995260  74.5526743   7.4034429  77.3251486  75.1894236   6.7672408
  76.7754269  73.7836456   6.8794137  30.3612415  18.6925071  43.8954258
  31.0827152  18.9155906  44.4835949  30.7894890  18.4149497  43.0856085
  66.6918230  93.1371212   0.3937884  66.6994047  93.9283657  -0.1448239
  65.7632494  92.9501724   0.5317322  81.8144989  88.2895088   4.5169729
  82.3336029  88.3451462   3.7146845  81.6197014  87.3571777   4.6120420
  96.6965294  56.3850164  27.3754501  96.0801983  56.4253855  26.6441941
  97.1257114  57.2406101  27.3744726  18.8580497  52.4913645  21.8657470
  19.3700393  53.2992363  21.8278599  18.1942352  52.5963068  21.1841512
  75.4874992  69.3824434  46.5947962  76.2346649  69.9805355  46.5785265
  74.8748684  69.7812653  47.2127438   2.2918590  67.6831341  35.2904606
   2.0538028  68.4588575  35.7982135   1.5714915  67.5727224  34.6698856
  40.1700346  19.0354429  60.7572883  39.9330417  18.9942537  59.8308056
  40.3600112  18.1282888  60.9964770  71.2230206  56.9904137  26.9113421
  71.5311003  56.7596769  26.0349417  70.3180218  56.6796494  26.9366193
  96.9612750  10.4889052  36.2623286  97.0771655   9.6018832  35.9217477
  97.7787980  10.9372848  36.0458970  95.9804916  82.8002739  17.1954894
  95.8437157  82.5706577  16.2763572  95.6432629  83.6928177  17.2721291
 100.0409126  98.1671238  36.7914677 100.4247570  97.8699589  35.9664893
  99.2608929  97.6235008  36.9022584  78.0228138  59.8692656  38.7940645
  78.3335257  60.5834627  38.2376361  78.6675310  59.1724205  38.6716723
  18.5011713  43.7693726  85.5984884  19.4222061  43.9606224  85.4214221
  18.0684988  44.6225201  85.5641111   7.2182218   5.1277720  81.8299663
   6.7201892   5.8006750  81.3658607   6.8085472   5.0795971  82.6937240
  84.1248512  68.6571455  58.4993458  84.4285297  69.4988918  58.1595278
  83.2077789  68.6068058  58.2297564 107.1767139  88.3444500  20.8342648
 107.8063393  88.3874226  21.5539598 106.6793728  89.1594791  20.9021521
   4.1723140  30.8385658   5.4914200   3.2651694  30.5485392   5.3954679
   4.4046386  31.1871481   4.6307510  60.7260847  87.3891449  16.6174674
  60.3811789  87.4523830  17.5081265  61.5749073  86.9586086  16.7193294
  61.9916487  59.1729259  47.3453093  62.1642637  59.0605927  46.4105272
  61.2847471  58.5557985  47.5341892  80.1342392  45.6688404  60.2709103
  80.8240891  46.2763929  60.5377817  80.5807686  45.0270176  59.7187281
  57.6667595  64.2433262   1.7756012  57.6224709  63.3287954   2.0547153
  57.5788355  64.2075729   0.8231188  34.4882194  16.6565936  52.5115728
  33.7926284  16.5916007  53.1659174  35.2972881  16.6722625  53.0228376
  88.5705662  92.7623081   6.5610015  89.0269184  92.0201778   6.1645019
  87.6420116  92.5469112   6.4736426 107.4284132  12.3662125  74.2064458
 106.9953020  11.6943251  74.7329586 107.2776445  12.0950304  73.3009296
  86.5124226  86.1932850  17.3708403  86.4447212  86.5250683  16.4755356
  87.4020004  85.8450031  17.4305820  49.9779749  83.9069366  45.4469538
  50.5760384  83.1596375  45.4370356  49.6759319  83.9840126  44.5419359
  73.6457396  91.7497444  24.9825644  73.0892181  92.1201801  24.2975187
  73.9131784  90.8972931  24.6389961  76.5119076  83.2061481  31.9613028
  75.9270525  83.9482975  31.8083453  77.0319080  83.1419277  31.1602354
  55.7155315  33.8316380  74.7260695  55.3080551  33.9686047  73.8708287
  56.5198032  34.3496548  74.6939069  62.4549294  87.4372768  25.8877587
  63.1443262  88.0838871  25.7365847  62.9171991  86.6002846  25.9323287
  58.5078192  89.8621082  46.9696331  58.7702084  89.9766159  47.8830194
  57.5546265  89.9487686  46.9815922  87.0030212  83.2668972  18.9224684
  86.0746956  83.5001278  18.9151621  87.4606705  84.1026115  18.8309801
  79.9203348  70.4103804  41.0502243  80.8418941  70.6686211  41.0669756
  79.4440317  71.2306833  40.9218884 101.1231613  60.2806282  71.0431004
 101.1386967  61.2316227  71.1507893 101.6721916  60.1174355  70.2761745
  58.3197355  65.8749676  34.1123366  58.2689047  64.9793768  33.7783241
  59.0571499  66.2643623  33.6424184   5.8194621  59.1351604  24.0670395
   5.4597934  60.0047970  24.2419958   5.8582767  58.7147570  24.9260998
  57.6337385  49.7785139  26.8485045  57.8043270  50.6470251  26.4840722
  58.2544088  49.2043543  26.3997984  43.5353748   6.3228839  13.5321426
  43.6668007   5.3908484  13.7061381  44.0447895   6.4927714  12.7397609
  94.5249939  70.7036209  60.4154634  94.9975204  70.3795433  59.6486950
  95.1366615  71.3080120  60.8359528  92.9505253  45.5231571  11.4483917
  93.7235928  46.0253096  11.1906326  92.3534966  45.6039286  10.7045782
  84.3995667  56.0518217  26.6912007  85.0527477  56.7208624  26.8960929
  84.4806767  55.4130650  27.3994660  73.9210176  53.2924557  26.5203261
  74.5198488  53.0061197  25.8306551  73.3643723  53.9465809  26.0978365
  72.0368147  79.8196459  17.8308773  72.7943230  79.9733210  17.2662544
  72.3221779  80.1073456  18.6980724  71.4205448  15.0757967  75.9330016
  71.1488620  14.5419441  76.6796070  72.3056118  15.3650700  76.1548394
 100.1430035  40.8543396   6.8056130 100.9745979  41.1646938   7.1638954
 100.1906776  39.9012780   6.8806469   9.9272529   2.3894160  16.7292452
  10.0417797   1.6564887  17.3341775  10.8094875   2.7407020  16.6088367
  73.3532381  70.8834648   5.7816005  73.5029268  69.9480581   5.6443363
  72.4155140  70.9521627   5.9610057  74.3787479  70.9929562  20.1260257
  74.3572998  70.2173567  19.5654726  74.2969656  70.6481552  21.0152173
  89.0207767  53.1231165  60.2468348  88.5626316  53.3049917  59.4263124
  88.7746048  53.8460112  60.8239365  75.1535988  32.2186232   0.7421575
  74.4835711  32.0736027   1.4101861  74.7087955  32.0389938  -0.0861632
  93.8965321  77.7895689  38.0785251  94.0438175  77.4510431  37.1953869
  94.7572231  78.0958033  38.3642864  58.1247091  82.0485306  30.1846838
  57.6012707  82.7694035  29.8345447  59.0214396  82.2527695  29.9193668
  85.8216572  22.7939081   1.8989676  84.9314690  23.1291747   1.7922580
  86.3796902  23.4687400   1.5124084  88.9077282  76.4277124  19.0332234
  88.8728905  75.6092358  19.5283186  89.4170284  77.0204687  19.5859289
   7.5192062   3.1947940  28.2425475   7.1682588   2.7893584  29.0354466
   8.2275478   2.6120322  27.9689336   9.7695048  96.4262384  85.1876372
   9.3367274  97.2563403  85.3873148   9.1233047  95.9352391  84.6801224
  34.2031948   2.1621173  48.9599800  33.8205902   1.2933677  49.0829325
  33.9787666   2.6380198  49.7595882  81.0937023  85.1558590  34.0814924
  80.4901505  85.7219696  33.6003733  80.6247044  84.3261528  34.1700959
  79.7338247  81.0136032  30.8976984  80.3584003  80.2884483  30.8809972
  79.7047997  81.3255882  29.9932361  71.6330290  88.6234474  30.6206346
  70.6807423  88.5340405  30.5834055  71.7982006  89.0864182  31.4419842
  62.4086658   0.5247675  74.8808902  61.8515007   0.2832638  74.1409701
  63.0800621  -0.1569475  74.9076789  82.1442413  73.5426664  26.1579967
  81.6234112  74.1710997  25.6579566  81.8456078  72.6864576  25.8514667
 106.2292767  84.1933727  29.3697619 105.4568768  84.3311310  29.9180722
 106.6303444  83.3965492  29.7168136  70.5688182  30.0245510  83.7884968
  69.8790828  29.6529804  84.3384355  70.2799217  29.8516689  82.8924614
  92.3238945  90.8252048  14.0430915  92.5470829  91.7353916  13.8481820
  93.1691933  90.3884602  14.1477561 103.6748791  88.6715698  42.9577351
 103.6143589  88.9500713  42.0439482 103.9437866  87.7540970  42.9111958
 100.6749344  54.7054577  24.9981380 101.1129856  53.8668585  25.1433682
  99.7570324  54.4746304  24.8552608  83.5910130  85.2151585  26.0288668
  83.3660126  85.8353043  26.7224240  83.0490398  85.4800129  25.2856636
  29.2247001   7.6594394  22.3530078  28.7024585   7.4594443  21.5761590
  29.0883819   8.5956138  22.4987507  40.0240509  90.8674461   0.1233718
  39.2571394  90.7353658   0.6807208  39.7662775  90.5115563  -0.7269983
  81.4417028  56.3948631  77.2650808  82.3444700  56.7047101  77.1927088
  81.5046406  55.5926579  77.7834803  57.7772427   9.7684652  19.0367591
  56.8328762   9.6931356  18.8999259  58.0687571  10.3821373  18.3624780
   8.8126643  58.9438027  77.1072119   8.3961661  58.2204329  76.6387075
   8.5455115  58.8243001  78.0185729  89.5175791  59.1639870  86.3100464
  89.3682051  59.5904469  85.4662150  90.1414776  58.4640365  86.1175513
  73.8727045  89.6216124  74.1561526  72.9962706  89.2415279  74.2164021
  73.7295794  90.5656045  74.2241817  76.1265516  61.2894934  82.3550826
  76.0309505  60.6527864  81.6467762  75.3109741  61.7902904  82.3386591
  98.6166429  79.3930953  80.3309047  98.2762813  79.7836202  79.5259958
  99.4140005  79.8882192  80.5187899  38.5779325  91.2833483  31.7808318
  39.2327205  91.2378068  31.0841203  38.8827507  90.6569738  32.4373174
  21.4723380  73.3147138  59.1293710  21.1065562  72.4955052  58.7956995
  20.7075198  73.8523906  59.3347901   6.2431844  99.3565410  83.0496484
   6.9657977  99.0694993  82.4913758   6.2410577 100.3101819  82.9672342
  71.4546585  39.3164134  17.4776149  72.0744276  38.7738132  16.9900680
  70.6988049  38.7468553  17.6208866  32.7138543  58.1692314   9.0917754
  33.5995388  58.2583809   8.7398565  32.4783325  57.2575855   8.9195472
  73.2284975   5.1845002  39.9162841  73.6388874   4.9856982  39.0746856
  72.4789333   4.5910645  39.9633646  80.2486706   0.8204528   2.0127040
  79.8380232   1.6231263   2.3341382  81.1203384   0.8223928   2.4082032
  60.8532047  30.8954883   4.1056231  60.9774256  31.4533329   4.8734853
  61.6917419  30.4467392   3.9974093  62.3946953  37.9679227   0.4375428
  61.7785501  38.2854462  -0.2225901  62.8033400  37.2017026   0.0348686
  39.4451714  30.3651333  28.3984494  38.6713052  30.0441217  27.9355073
  39.5462298  31.2684441  28.0983710  43.1471682  17.0150387   8.9736897
  43.6370230  17.7565598   9.3292433  42.6167679  17.3926795   8.2720530
   2.2443898  42.6683694  63.7707156   2.0178111  41.7659973  63.5457271
   2.8515323  42.5866097  64.5061868  72.3332310  19.8520684   9.5532143
  72.5066090  18.9275074   9.3761307  72.1915770  19.8923182  10.4990184
  79.9692535  25.8920193  30.0333953  79.3563557  25.2964258  30.4645038
  79.5669842  26.0765719  29.1846633  20.6321509  53.2118195  82.5484448
  21.1228641  54.0202605  82.4005943  21.1789020  52.7063789  83.1499672
  63.3084393  29.3264151  27.0068359  63.2680988  28.5541677  26.4427066
  64.0015650  29.8654699  26.6257501 101.2957191  52.2991419   6.6137040
 100.7644463  52.0608711   5.8539581 102.1558857  51.9201517   6.4328367
  61.0583965 100.7833611  14.6124196  61.7415515 101.4528725  14.5766234
  60.5717842 100.9802590  15.4128385  81.5154743  11.3111997  16.6068149
  81.4145660  11.9399738  15.8921874  80.9052563  10.6054533  16.3928258
   7.7538101  14.1293989  72.9607469   6.8813745  14.5153700  72.8825932
   7.6729242  13.2691752  72.5487953  93.4630728  93.4689611  75.6189209
  93.5652780  94.2683690  76.1353856  92.6175308  93.1134599  75.8926123
  21.6351684  61.1333483  80.1616776  22.2216781  61.8350881  80.4441744
  21.9724639  60.8693444  79.3056595  38.2701516  22.5371408  10.3433895
  38.8732338  22.0952678  10.9411120  37.3996687  22.2884870  10.6542993
  74.2294001  86.4038890  80.2852636  75.0121331  85.8875173  80.4774081
  74.5525741  87.2987717  80.1805079  85.5510044   5.8275777   7.8920364
  85.1548004   6.6983116   7.8592300  86.4437008   5.9821188   8.2009858
  27.8806774  97.0516262  10.6032372  28.6094133  97.6614181  10.4878008
  28.1872360  96.4351995  11.2682724  83.9625168   4.8238280  29.9175215
  84.5422268   4.6638674  29.1728234  83.1719685   4.3225145  29.7176552
  77.3014164  27.8064203   4.4387272  77.9268360  28.2846379   3.8943079
  76.5625000  28.4066916   4.5382619   4.9459974   9.6072136  79.1141909
   4.3700544   9.8620783  79.8349994   4.8415796  10.3040491  78.4663123
  83.6739445  25.2483225   5.1437229  84.5725536  25.5728865   5.0854212
  83.1354904  25.9774923   4.8361388  56.1202955  30.4232764  28.1793833
  55.5507898  31.1920261  28.1491041  56.0887051  30.0666833  27.2916460
  94.3295479   9.7908849   5.6834626  94.4106483  10.4000723   6.4173186
  93.6373997  10.1641381   5.1377064  83.2490826  30.2942133   5.0564533
  82.8245163  30.8218384   5.7329059  82.9416656  30.6699634   4.2315078
   2.8818734  34.8976570  85.8594289   2.3024638  34.2026704  85.5471617
   3.5283740  34.4451349  86.4011782  93.5791921  55.5687326  80.7600605
  94.4834423  55.3729843  81.0055011  93.6215114  56.4392834  80.3643566
  66.8443672  83.7876935  16.6747260  67.3210899  84.5194442  17.0665324
  65.9367458  83.9188046  16.9490504  17.1423228  89.0990632  86.7308692
  16.1950858  89.1232174  86.8664647  17.5051578  89.5470684  87.4949848
  66.7105436   6.1635852   7.0898789  67.0532322   5.6012851   6.3951743
  66.6379118   7.0277190   6.6846257  78.9720774  57.3187523  77.7850598
  78.9654827  57.5873082  78.7037903  79.8190069  56.8885290  77.6673609
  85.8698368  30.8931231  29.9144650  85.3560352  31.7001510  29.8837352
  85.8184338  30.5424595  29.0252948  65.6753206  43.8994074  16.4433372
  65.1545048  44.3314314  17.1203446  66.1074972  43.1766462  16.8983889
  17.0020564  91.2502330  59.8592108  16.0525306  91.2452977  59.7383493
  17.1478255  91.8556779  60.5861395  94.1822767  87.7464002  82.1924120
  93.6962271  87.6457136  83.0108547  95.1019049  87.7423542  82.4579370
  88.5914230  42.0500183  27.6382065  88.9697933  41.5289021  26.9300365
  88.4687519  41.4272356  28.3546758   9.1266330  95.1519626  87.9822920
  10.0690158  95.3177922  87.9568749   8.7518962  95.9546369  88.3449468
  46.4470569 100.7077277  36.3104248  45.9478656 100.6813058  35.4941249
  46.5499584 101.6406806  36.4981508  90.8769226  76.1846536  74.0582555
  91.2210893  75.2979487  74.1656488  90.4525661  76.1745875  73.2003194
 106.3842114   8.6770044  87.2805159 105.8343585   8.1848274  86.6708789
 107.1082385   8.9990364  86.7435679  13.3893378  79.8394673  71.4361626
  12.7372630  80.5381578  71.4897746  13.4196933  79.6109598  70.5071336
  97.2112655  67.2492045  68.5278648  96.3718557  67.6635235  68.7277871
  97.2173118  66.4522808  69.0580624 100.9577131  74.1582578  56.0297030
 101.8520403  73.8300150  55.9366268 100.4036236  73.4045356  55.8269328
  87.1712494  37.4602025  73.7195939  86.8533850  38.3436125  73.5331064
  88.0061245  37.5956982  74.1677719  66.5433693  27.8505969   2.5254163
  66.9314384  28.4875441   1.9254726  65.9601498  27.3277545   1.9752124
  55.9380722   4.9439451  38.5095882  56.4612150   5.4481131  39.1327834
  55.0319862   5.1708806  38.7187314  24.3819022  19.8199964  38.4718776
  25.2765036  20.0751853  38.2464957  24.4799781  19.2540622  39.2376018
   6.4259227  72.0412033  80.7446182   5.6648524  72.6191657  80.7990586
   7.1783717  72.6311725  80.7892227  68.7471151   4.7871339  23.1169939
  68.1083012   4.1044420  23.3221292  69.5939255   4.3427035  23.1573677
   8.3609279  79.5581382  83.2370603   8.6407264  80.0783437  82.4838489
   7.4623950  79.3011110  83.0301362  51.6407959   8.5186134  67.6151389
  50.9175293   9.1454969  67.6266879  51.8347923   8.3938395  66.6861456
  16.9430486   1.1657225  77.0208305  16.8879549   1.8794142  76.3853448
  17.5342886   0.5304848  76.6169244  83.6266231  78.9357703  62.7018374
  84.1124534  78.9170139  61.8773073  84.2741489  78.7016028  63.3667487
  56.2485170   2.1328729  45.9296083  56.4565992   1.5569358  46.6652918
  56.0764027   1.5372270  45.2003527  89.6351147  15.0672996  25.2809787
  89.5409298  14.1154408  25.2445507  89.7506332  15.3316545  24.3682885
  73.4286356  40.9442377  25.2755785  74.1040325  40.4696369  24.7909904
  73.7573814  41.8416882  25.3279161  70.9983055  87.1967954   3.0560318
  70.9914962  87.7004058   3.8700110  70.5292980  87.7478964   2.4294892
  80.3565693  65.4864400  59.2534774  80.0156402  65.5533879  58.3615583
  80.9245443  66.2507468  59.3507856  88.7564277  52.7293191  77.5314778
  88.8763475  51.9631350  78.0925601  88.6034775  53.4511396  78.1412428
  81.5809774  42.0051520  88.3360819  81.3471699  41.4992213  87.5578791
  82.5372171  42.0440745  88.3180811  83.8659954   6.5484697  63.3330774
  84.0783310   6.3416541  62.4229288  84.5614529   7.1441668  63.6118603
  29.6325493   3.5306728  18.7178910  30.0755715   2.7073810  18.9232063
  28.7162495   3.3727705  18.9452505  61.5578079  23.8081121   5.0003695
  60.6323576  23.9020753   5.2260810  61.5965891  23.0076909   4.4768703
  86.8401909  45.2470112   3.4257731  86.0376358  44.7890186   3.1760213
  86.5808773  45.8001280   4.1626927  77.9526996  63.9805358  85.5998993
  78.7990570  63.5339766  85.6222191  77.5957060  63.7741488  84.7360763
  51.7166376  35.9696722   0.7227866  51.4316845  36.1654091  -0.1698062
  52.6681089  36.0712957   0.6981719  90.9302997  65.7575350  57.9720491
  91.7981911  65.3538340  57.9669040  91.0599661  66.5986066  58.4102481
  96.4944363  20.9070635  26.8999982  96.6373539  19.9667931  27.0081496
  97.1323681  21.3151860  27.4854112  55.8533049  12.7398932  14.5520651
  56.7611265  12.7774262  14.2509317  55.5070591  13.6152649  14.3786645
  26.8959896  81.0623128  19.1046798  26.6847030  81.0135085  20.0369930
  26.0451118  81.1018855  18.6680150  80.3154039  44.1300916  86.9472897
  80.6366348  43.2364177  87.0672503  79.9765682  44.3802183  87.8068588
  85.0485182  64.0033203  53.6345356  85.0153494  64.8782366  54.0213865
  85.7906771  63.5790294  54.0651315  16.6545184  87.0491546  76.1763459
  16.0768493  86.7106383  75.4922801  17.0760901  86.2708324  76.5406459
  45.5674727  86.1931604  87.5862880  46.3309558  86.0337322  88.1411761
  45.6862720  85.6048530  86.8406252   6.7657884  63.7583118  75.0803786
   6.5645822  64.1429120  75.9335094   7.6382716  63.3796304  75.1881319
  35.1775622   4.1137144  17.6160848  34.2257905   4.0457869  17.6919055
  35.4151201   4.8246592  18.2113624  63.7313175  49.6773195  17.8577280
  63.4333849  49.3749952  18.7156713  63.2922173  49.0988588  17.2341835
  63.5874653  78.4328168  77.3579186  63.7867069  77.5667565  77.7135509
  62.7283287  78.6487787  77.7205139 107.2262668  39.0339308  83.0470949
 106.3982630  38.5827952  83.2117858 107.4392462  38.8196486  82.1388244
  93.0783939  82.1176737  78.6086362  93.4821749  81.2590449  78.4823411
  93.5314751  82.4861997  79.3670130  61.0809374  55.9122324  23.5503054
  61.9391012  56.3291502  23.6275911  60.4566050  56.6116714  23.7432528
   4.5792945  18.3762002  24.7047639   4.9383434  18.9304245  24.0118337
   3.7053760  18.1399524  24.3938351  65.4427767  11.6205418  32.7394247
  64.5221472  11.3620603  32.7825785  65.4388237  12.5556815  32.9437041
  23.2702295  98.3288500  23.9143014  22.6394979  97.6284517  24.0811992
  22.7529184  99.1329230  23.9600062  65.4658747  36.5631127  28.6125135
  65.9406614  35.9944057  29.2186356  65.6009579  37.4459696  28.9568210
  37.0269863  15.8914314  73.7902099  37.3909704  15.0569950  73.4944635
  36.4713565  15.6600224  74.5344919  70.2394247  10.1449716  21.8938375
  70.4026318   9.7126120  22.7320862  71.1098099  10.3792799  21.5717244
  32.3107036  67.2243350  83.8756656  31.4088901  67.3943048  83.6035055
  32.8154166  67.2518116  83.0628061   5.4096063  86.4697855  84.3218481
   6.2970956  86.1369269  84.4552588   4.8620017  85.9251040  84.8872536
  92.4439096  91.4268249  65.9938663  91.6496038  91.6669553  66.4709896
  92.6947164  92.2251552  65.5291122  75.8667469  11.5943444   9.0967542
  76.6980314  11.3703954   9.5151395  76.0922146  12.2795987   8.4676093
  89.8687839  43.1122654  77.5257963  89.2686891  43.0984938  78.2714027
  89.9799871  42.1910476  77.2908002  47.3744726  13.0082083  25.1923990
  47.9585171  13.7098110  24.9045181  47.9519176  12.3768401  25.6215453
  79.5897532  27.8379679  14.9113274  79.8614025  28.5071468  15.5395281
  80.3444862  27.7327824  14.3320608  79.9106646  19.7266161  36.6608334
  80.1373672  20.2089381  35.8657193  79.0548563  20.0720930  36.9147372
  80.9237862  23.1850457  13.4905624  80.8100986  22.2645020  13.2541180
  80.3881931  23.6629009  12.8572929  57.5109434  24.4771314  34.3759918
  56.9523811  24.7097349  35.1177025  57.3276901  23.5507798  34.2194009
  49.6196496  68.2980221  68.5878056  49.9100482  68.4348148  69.4895738
  49.4795203  67.3534244  68.5219866  63.0919456  31.5231133   5.5716217
  63.9574814  31.9318318   5.5658537  62.8113985  31.5691972   6.4856243
  80.5283451  84.8951166  74.7068947  80.3503465  84.5195406  73.8446349
  81.0850954  85.6528633  74.5277947  52.0676891   2.1722780  67.5733918
  51.7950908   1.6521011  68.3292597  52.5712005   2.8946243  67.9487818
  72.8210258  63.3741426  25.5185819  72.5862312  64.2855263  25.6931710
  71.9819307  62.9166412  25.4652190  20.1461967  84.8145812  82.6374978
  19.2419131  84.5473784  82.4728918  20.1949389  84.9224823  83.5873466
  50.6369555  86.6921800  79.2092776  50.0360250  86.2912648  78.5812801
  50.0841522  87.2719877  79.7331714  80.6210804  49.8250675  26.5536237
  80.5952930  49.5496559  25.6372619  81.0749340  49.1133404  27.0049453
  74.0617370  82.4560803  81.8218422  73.8528156  82.7171009  82.7187544
  73.2729745  82.6654165  81.3215792  79.8172426  44.1381884  24.0245509
  80.0369167  44.2660522  24.9473882  78.9673042  43.6981773  24.0394068
  47.5523806  10.2738822  12.4470794  47.7427769   9.3482995  12.5996482
  47.2793913  10.6063676  13.3021593  62.8947687  26.5870786  34.2831326
  62.6957607  25.9067559  33.6398697  62.8459454  27.4054766  33.7890935
  63.0212021  39.5320630  10.5662954  62.7674246  40.0896215   9.8307955
  63.7548161  39.9924231  10.9738588  11.8700870  74.7870653  74.8312503
  12.3660071  74.3028205  75.4913968  12.0960029  74.3631714  74.0032977
  57.7224684  27.4070072  28.5583925  57.3719025  27.2074771  27.6903367
  56.9506979  27.6063108  29.0883732  55.9841243  21.2901150  87.2880172
  55.7537738  21.3761412  88.2130945  56.3946430  20.4278933  87.2225936
  20.8059255   6.2078892  51.3863319  21.6282598   6.4542805  50.9629076
  20.8641569   6.5888201  52.2625345  23.3650867   1.9820391  75.0890308
  22.6118223   1.9811426  74.4984168  23.2341186   2.7515303  75.6430715
  69.9701834  36.3311958  29.9259377  70.1415777  35.4304242  29.6512246
  69.8465490  36.8118119  29.1074300  41.3026603  79.0508359  88.1970503
  41.5231879  78.5501545  87.4116100  41.2795527  79.9611824  87.9021474
  52.9754591  19.1836011  23.3350348  53.1050491  18.3250022  22.9322386
  52.4112797  19.0117717  24.0889621  29.3835147  66.3079029  65.5339426
  28.6194690  66.2321835  66.1055439  29.2574676  67.1380358  65.0743502
 105.6186295  19.5021272  19.9941671 106.2325287  19.7115934  19.2902541
 105.6232452  20.2779794  20.5547595  73.0653048  12.4890041  29.9311018
  73.8707972  12.1767008  30.3432631  73.3241367  13.2905281  29.4763517
 107.2984505  73.2174533  84.3459883 107.5885010  72.9188960  83.4840339
 107.3905039  72.4489349  84.9091375  58.5963774  56.6816759   0.5311254
  59.2527533  56.2194204   0.0098554  58.6648226  56.2919617   1.4027165
  70.2325344  51.8569803  18.3050382  71.0589075  52.3022604  18.1177902
  70.4861641  50.9563923  18.5071290  15.0698264  37.2436929  33.5072970
  15.3221210  37.8165770  32.7831554  14.9674972  37.8330994  34.2545342
  64.9643517  43.3684158  29.9800920  65.8067131  43.2337475  30.4142857
  65.1432133  43.2043219  29.0541792  67.3468542   5.1206917  47.0934677
  67.0992708   5.1300216  48.0180502  66.7070341   4.5411015  46.6800261
  27.9119388   9.7205101  86.3438701  28.1758729   9.1969477  85.5872616
  27.9385416  10.6245886  86.0305533  89.7572136  27.3436206  72.0913988
  89.5226621  26.7257469  71.3989752  90.6639671  27.5839251  71.9009143
  76.7932367  14.6443784   5.6371266  76.4881325  15.5088151   5.9126145
  76.0915756  14.0481532   5.8987057  64.2761755  34.2722654  27.9851604
  64.5933390  35.1518154  28.1901741  63.4840202  34.4178200  27.4679279
  57.4376774  46.7386866   7.8208631  57.1209192  46.9231367   6.9366264
  56.7004061  46.3091660   8.2546514  91.2926579  24.9705100  26.6255689
  91.4524364  25.4699135  25.8247590  91.8916607  24.2261839  26.5671897
  31.8321593  76.0780781  86.7230032  31.6002448  76.9568914  86.4227794
  32.6970466  76.1810511  87.1199753  81.2206268   3.4396458  21.4208841
  80.8179569   3.2441837  20.5747843  80.4808617   3.5976541  22.0074081
  82.4363613  26.4799523  54.6824646  81.6746712  26.9993329  54.9399424
  82.4900436  25.7896185  55.3433657  98.9097452  83.9577144  76.6743546
  99.3477106  84.7047918  76.2665599  99.5241594  83.2317155  76.5663939
  75.8106089  35.0667691  12.9160142  75.5254984  35.7650375  12.3266411
  75.6885958  35.4292488  13.7934840   9.4262393  96.4198726  70.3186601
   9.7669490  95.8903974  71.0396331  10.2069743  96.7560189  69.8785728
   5.8396419  75.6785393   5.9416699   5.8616431  75.6266308   6.8972081
   4.9854453  75.3192329   5.7018900  81.4920712  37.1314096   7.8561372
  81.7668629  36.7802191   7.0091486  81.7792034  36.4758587   8.4917808
  65.3265476  41.3588905   1.6697602  64.4027042  41.5360260   1.8468791
  65.4180431  40.4146051   1.7969978  99.9650383  92.4896806  68.0316752
 100.0259256  92.4439138  68.9858407 100.3767156  91.6812652  67.7263564
  53.4961748  32.4348021  43.3074760  52.6456738  32.8470564  43.4588766
  53.2843447  31.5433073  43.0307150  63.0688882  86.4831894  84.9649426
  62.3174143  86.5309995  84.3739834  63.3263612  87.3952716  85.0992730
  59.5521259  52.1571922   5.8561474  59.4751644  53.0939913   5.6752604
  58.9449596  52.0023012   6.5797389  13.9899810  87.7629440  83.5958066
  13.6883433  87.1407025  82.9339426  14.6049960  88.3291739  83.1295746
  30.1370994   2.0898615  83.2885310  29.7138778   1.6348921  82.5604403
  30.5115930   2.8773056  82.8936654  85.3474951  67.7667575  65.3091448
  84.5452213  67.4635642  64.8840993  85.8991289  68.0725937  64.5891493
 103.4257984  72.5625222  82.7491271 103.6076450  72.5401037  83.6886269
 103.4916496  73.4881681  82.5144440  89.8317432  29.4120765   5.4380071
  90.4089737  28.9901638   6.0744298  89.6403313  28.7271595   4.7973204
  17.4696962   0.6465088  58.6185091  16.5632812   0.4161583  58.4145921
  17.5939838   1.5070664  58.2182282  86.5700722  12.0045972  22.8811884
  86.5037346  11.8631804  21.9368196  86.2776470  12.9069769  23.0093670
  74.0026665  32.5318956  12.2224712  73.4591246  32.7266669  12.9859209
  74.5587730  33.3043504  12.1210301  52.3719112   9.9718033  87.4498772
  53.1865589  10.4314886  87.6530164  51.8141834  10.6385647  87.0491257
  57.2520399  33.3312488  17.7465928  57.2498798  32.4844503  17.3003185
  58.1566334  33.4463000  18.0376339 107.5293255  79.4920200  59.0291804
 107.1561432  80.1428264  59.6236700 108.2641649  79.1174310  59.5149010
  84.5434189  41.2671804   8.3838362  84.9779892  41.5304375   7.5726175
  85.1371193  40.6274557   8.7768972  74.2449570  30.0688195  22.2805953
  73.6606550  30.2908564  21.5556669  74.8189974  29.3897724  21.9261837
  73.1847477  42.6609700  83.8164004  73.4577441  41.9390731  83.2502115
  73.6444211  42.5052952  84.6414444  70.1138258  35.1463151  12.2346330
  70.0117207  36.0541940  12.5202250  69.6983528  34.6298361  12.9251885
  74.6205235  25.5308509  32.9858541  75.2559900  24.9979806  33.4638309
  75.1380301  26.2456417  32.6150608  73.7830257  92.8263753  88.2969695
  73.6469173  92.2588103  87.5383039  72.9005766  93.0787938  88.5686384
  22.2462455  88.1089181  53.4732103  22.7622739  88.4015758  52.7220154
  21.8547575  87.2833652  53.1878471  65.6601667   0.7565515   3.9626351
  65.7820511  -0.1839021   4.0927246  65.4206657   1.0889533   4.8277247
  28.7020667  50.8427610  70.8617085  29.2415698  50.0786312  71.0648864
  28.3272822  51.1020024  71.7034703  50.1269627  20.7667065  10.7011712
  50.2288914  21.7175651  10.6598461  49.3966913  20.5782628  10.1117396
  56.9105148  53.3888578   3.0984256  57.1848774  52.7086115   2.4834263
  56.8253088  52.9339886   3.9363199  35.6392074  17.1714461  18.3998907
  36.5757465  17.0069432  18.2900572  35.4963779  17.1209288  19.3450260
  55.6350708  32.0190001   4.4873330  56.3574839  32.2961903   3.9238444
  54.9206781  31.8220758   3.8814479  25.8778659   7.6641975  41.0478943
  26.2860958   7.1592365  41.7511672  26.5960018   7.8611265  40.4464501
  63.2791758  31.5527272  13.1348729  63.2835770  31.8572402  12.2274125
  62.6861763  30.8013439  13.1325006  91.2402725  22.1098804  29.0974808
  91.3874149  21.5339613  29.8477459  90.4152107  22.5534916  29.2942405
  71.5935612   0.4333446   0.9495709  70.7461643  -0.0080398   0.8918776
  71.4182472   1.3276184   0.6567033  93.1668711  74.4480270  76.8159824
  93.5311651  73.5651916  76.8801826  92.4558973  74.4609349  77.4567514
 102.8022957  67.2715002  84.6109631 103.3333540  67.1696907  83.8211256
 101.9347858  67.5134640  84.2867541  60.4400539   3.6907497  20.7566428
  60.0021601   4.4785446  20.4343700  60.7795334   3.9400584  21.6161966
  24.4229499  16.6853319  72.5356406  24.0529195  16.2337433  73.2941788
  23.6801235  16.8092524  71.9448083 104.3211746  37.1400636  65.8779305
 104.3031120  36.1856073  65.9480756 105.2151155  37.3811906  66.1207431
  81.2227678  74.1647642  74.2018515  80.5539322  74.8404496  74.3129295
  81.0948706  73.8457244  73.3084947  53.8422680  10.7749009   8.8660103
  53.6787510  10.8550286   9.8057312  53.9552927   9.8353988   8.7218195
  57.6299191  42.4217272   5.8015192  57.7421236  43.2709789   6.2286210
  57.1654081  42.6218414   4.9888617  52.4339056  32.6113439   0.1807717
  51.8040705  32.7835274  -0.5191482  52.0250511  32.9756355   0.9658588
  95.2842331  46.2825584  24.0080023  94.7272110  46.2863874  24.7864270
  96.0200977  46.8501711  24.2372561  69.4365788  31.9303083  10.5382192
  69.2704535  32.8621173  10.6809270  70.3901911  31.8612933  10.4924488
  61.0627127  30.9075379  19.7776580  61.9981670  30.7052565  19.7620070
  60.7867050  30.6955218  20.6693411  88.7892532  43.0375195  23.4249568
  87.9658127  42.5511837  23.3842039  88.5816383  43.8173151  23.9397836
  17.9315455  97.7309697  74.4087666  18.5357745  97.5919288  75.1380139
  18.4722026  98.1180041  73.7202030 102.0198441  28.8845634  22.4697828
 102.0083141  28.1293774  23.0578232 102.7756023  29.3983436  22.7545381
 105.7865524  98.3696311  73.1315142 105.5013704  98.9998096  72.4698668
 104.9853420  98.1347221  73.5996133  63.1097221  19.2993045  31.0036135
  62.2565317  19.7205651  31.1076999  63.1662655  19.1005230  30.0689912
  69.8097968  94.6898263  72.8596693  70.7512760  94.8329824  72.9563838
  69.5857954  95.1192897  72.0340687  12.2562392  75.4749697  84.8202058
  11.4085658  75.0445812  84.9317720  12.3235019  75.6309932  83.8782054
  80.5980492  15.7325411  16.1448872  80.5175686  15.9415364  15.2142549
  80.4004860  16.5549660  16.5930164  25.1866229  82.7574199  48.9317316
  26.0265620  82.3121040  48.8203257  24.7556479  82.6721209  48.0813044
  89.3200826  65.6583732  80.6344533  88.5501289  65.9961062  80.1769161
  89.0077066  65.4647737  81.5182936  49.8880053  31.9331574  21.5497541
  49.4400740  31.2277126  22.0165896  49.5645046  31.8689132  20.6511712
  79.8238230  11.2967622   0.9882800  78.9492512  11.3307369   1.3758436
  80.0798798  12.2142589   0.8941155  98.2075548  74.2678683  87.7643675
  97.6180172  74.2427104  87.0106788  98.9122104  74.8582571  87.4976627
  42.0383883  53.6794710  27.8727365  42.3500109  52.7744246  27.8771687
  42.0798206  53.9425468  26.9533300  61.5552855  48.9862919  31.3447571
  61.9423294  49.0379286  32.2186923  62.2681999  49.2256165  30.7525539
  73.3891582  55.8756399   7.6680440  72.8826475  55.6829596   6.8790227
  73.1371737  55.1908731   8.2875872  80.8074617  99.7094005  83.5567483
  80.3735351 100.2195161  84.2406514  81.6771602 100.1018947  83.4805825
  94.9826145  38.3745551  25.3137279  95.1510048  38.5852718  24.3953204
  94.1212177  37.9571581  25.3096485  65.1881886  12.9409099  37.1794677
  65.8675146  13.0820227  36.5200448  65.6542969  12.9758441  38.0147862
  75.3666639   9.7492075  33.3935356  75.0413847   9.4644332  34.2475438
  74.5771170   9.8857963  32.8699040  26.1539459   6.1707413   2.7601260
  26.3143563   6.9922924   3.2244042  26.9357324   5.6444216   2.9275507
   3.0247672  93.0363267  85.7303346   2.3751195  93.4651797  85.1733124
   3.5202868  93.7571853  86.1189881 107.6888466  38.9113426   3.7184051
 107.2480297  39.5033169   4.3278885 108.1601238  39.4910717   3.1200325
  97.9139280  63.9251249  63.4532183  97.1433401  63.8691693  62.8881567
  97.5574732  63.9735823  64.3402499   7.1058925  90.4408043  80.9932470
   7.6040776  91.0371917  81.5521449   6.9114287  89.6913784  81.5560776
   4.7198518  80.2953332  72.9413539   5.0763782  80.1396959  73.8159376
   3.7744887  80.1871293  73.0453425 100.0243711  80.8754271  72.0677203
 100.4848194  81.1902063  72.8456229  99.6596479  81.6655868  71.6691452
  86.6133547  70.6911283  66.3545292  86.3288641  70.0245994  65.7292002
  87.4362564  71.0217803  65.9943455  53.0489246  15.3698717  80.3745681
  53.9170639  15.4366146  79.9769348  52.7241222  14.5129381  80.0981605
  63.1589214  14.0986954  85.4240462  62.7612392  14.9031006  85.0908676
  62.4999515  13.4225880  85.2663496  94.4398212  20.8773565  29.9524736
  95.3807449  20.7972479  29.7960019  94.0483761  20.8465672  29.0795183
  94.2320728   0.9706528  29.0308380  93.6592674   1.7373681  29.0144968
  94.5312119   0.9144606  29.9383569  56.8044138  56.6619539   5.5504757
  56.3504124  57.3182058   6.0791057  56.3756990  55.8358669   5.7741153
  84.2817020   3.4366027   1.0335726  83.9535522   2.7219179   0.4878849
  84.4218063   4.1597715   0.4223206  24.4194833   4.4229065  87.3306630
  24.8569719   5.1125561  86.8314498  24.9422971   3.6385094  87.1644631
  90.9270000  24.1376066  21.4629889  90.6716919  23.4478164  20.8504200
  91.4923382  23.6972022  22.0975518  67.0037460  36.6906285  12.4578226
  66.6944408  36.7191768  13.3632207  67.1218920  37.6092124  12.2160029
  67.7193880  50.2614737   8.1919158  68.2933760  50.2088642   8.9561152
  68.2379198  50.7251310   7.5343633 103.4283717   1.5716492  69.2495006
 103.3398112   2.1699606  68.5076028 103.5746773   0.7143484  68.8496762
  74.3384838  19.4348311  20.9870481  73.9093685  19.6893919  20.1701713
  73.7502337  18.7868869  21.3748074  20.2108749  14.6121538  18.3790326
  19.8494991  15.4730392  18.1680512  19.7054847  14.0020418  17.8418398
  30.2745676  34.6931386  25.8735895  30.5852914  35.3934121  26.4474392
  29.9582481  35.1464772  25.0921440  27.3189815  88.0173843  72.3638624
  26.5806468  87.8995436  72.9615348  27.1417411  88.8495916  71.9254023
  69.0463543  46.3943222  82.5952249  68.9097166  47.0000997  81.8668049
  68.9774489  45.5252063  82.2001028  88.0151749  46.2178612  27.5679588
  88.1374454  45.6149006  28.3012533  87.2110653  45.9187651  27.1434665
  25.1006301  68.9493185  77.3798817  24.7579368  68.6851686  78.2337081
  24.3474753  68.8934069  76.7917865   2.0000299  69.3980187  72.1556991
   1.6681655  68.5002261  72.1638196   1.9110902  69.6944481  73.0614859
  11.9190963  51.4247946  76.9778079  12.0063289  51.6771766  76.0586089
  12.6947005  51.7921945  77.4017006  14.5910724  84.1348093  70.4021090
  14.8299869  83.6052220  69.6413904  15.0438006  83.7184351  71.1355287
   2.6340898  89.9699348  80.5238306   2.8944190  90.8907335  80.5481177
   3.4378846  89.4995373  80.3027701  77.6805401  47.0976635  81.6491383
  77.1411657  46.3622870  81.9398772  78.3611154  46.6965463  81.1086249
  95.9869814 101.6438811  87.6152355  95.1235580 101.7342942  87.2120583
  95.9319877 100.8322137  88.1196228  26.2034400  95.5143159  81.8513232
  26.1151202  95.4845088  82.8039735  26.1800464  96.4470761  81.6376817
  99.3499183  72.0550793  78.7838375  99.8325300  71.3634294  78.3311361
 100.0185585  72.5301474  79.2772579  21.2588103  81.1867231  88.0692922
  21.3655170  81.1751788  87.1181284  20.8336909  82.0245498  88.2524624
   2.1206840  74.8685258  77.8623777   1.1722787  74.7848004  77.9611391
   2.2355922  75.3166645  77.0244056  68.0835009  28.6673975   9.3042862
  67.9985571  29.5741487   9.0096331  67.1816635  28.3628964   9.4052821
  60.5203239 101.2106859  20.1991296  59.7415439 101.3827586  20.7283950
  60.7085125 100.2834690  20.3443313  75.9459114  46.3032866   0.8343407
  76.5737343  46.0650730   0.1521939  76.4855719  46.4843082   1.6039024
  33.8436055  33.7694573  28.8527799  34.3925953  33.9695954  29.6109271
  33.9789367  34.5068979  28.2577157  93.4333229  58.5074139   2.8852212
  92.6950073  59.1088247   2.9822832  93.0439854  57.6361752   2.9599315
  98.1482363  95.2691835  84.2589766  97.4762630  95.7346147  84.7570318
  98.0753231  95.6208127  83.3716929  84.0835190  71.5715218   0.5568594
  84.4843864  70.8115101   0.1350517  84.1164494  71.3713646   1.4923188
  75.5017900  87.6508849  75.4936689  75.0535989  88.4163969  75.1340216
  74.9621343  86.9081729  75.2227777  78.0725813  72.2514408  84.5159793
  77.3836851  72.7177542  84.0424752  78.8267040  72.8400176  84.4826311
  62.4815941  55.7589531  13.7407303  62.9556656  55.8570766  12.9149830
  62.9864407  55.1101971  14.2311180   7.9036275   8.0628859  84.5217913
   7.1082679   8.4704910  84.1790104   7.5939552   7.2818504  84.9804032
  40.1486588  25.4594946  36.3573694  39.7096848  25.6677794  37.1820831
  39.9193358  24.5457172  36.1880970  74.4701099  34.9063635   9.6009111
  74.8724747  35.6287670  10.0830626  73.7026978  35.2960205   9.1820163
  40.4438774  29.6983467  81.6214335  41.0075466  30.2677857  82.1451241
  39.9170105  29.2250668  82.2653645  85.5015564  28.7485504   4.5453393
  84.6444416  29.0371799   4.8588559  85.5646896  27.8358817   4.8269105
  67.0747328  26.4716625  42.7152538  67.4208212  27.3602295  42.6321554
  67.2824335  26.0545611  41.8791199  53.9998102  20.6559205  20.8432484
  53.9358997  20.6440496  21.7982388  53.8633585  21.5730166  20.6054521
  24.6495994  89.9578469  82.3090452  24.8722632  90.4151981  81.4981913
  24.8378547  90.5918115  83.0010587   6.8208583  34.2967939  14.4511783
   5.9928020  33.9832401  14.0875304   6.5818389  34.6807837  15.2947772
  78.8508940  76.4087074  76.6711908  78.8250923  75.9320849  75.8414930
  79.5206880  77.0800274  76.5410369  15.4644378  71.9351404  80.8915686
  16.1489661  72.5910371  80.7594382  15.6449492  71.5718763  81.7585695
  51.2990570  23.6988044  41.2580109  51.1937141  24.6242285  41.4787436
  50.4174614  23.4056830  41.0275602  16.7839034  85.5300778  84.2692077
  15.9787162  85.6302684  83.7613922  16.4934428  85.1834362  85.1128325
  61.5191174  39.2081428  13.1259787  60.6798553  39.6672630  13.1588578
  61.9354105  39.5271158  12.3252368  90.7981396  26.0470223  29.2403102
  91.0442924  25.8619857  28.3339977  91.6284561  26.0586333  29.7164130
  65.7783031  57.1825504   1.3599484  65.7195807  56.2335491   1.2495707
  65.7094669  57.3184776   2.3049438  68.7752199  27.6827073   4.1089839
  68.7763643  28.2785797   4.8580936  67.9580927  27.8768063   3.6497918
  93.4344395   3.9493030   0.0115057  92.6174553   3.9116233   0.5088437
  93.5392102   3.0668490  -0.3442211  67.4262714  23.6121225  28.6428690
  66.6310024  23.1895518  28.3184981  67.3810244  24.5041084  28.2985640
  73.9511204  25.5652356  27.9791045  73.5316038  25.1651025  28.7407660
  73.2445812  25.6642509  27.3409629   3.8759835  80.1044052  85.1388287
   2.9496367  80.0034612  84.9199128   3.9802487  81.0397189  85.3136110
  67.0260048  20.1517916  24.4191146  66.0956335  20.0794840  24.6322346
  67.0687008  19.9934649  23.4760642  42.5856543  34.3670511  31.1838484
  42.1912527  34.8577356  31.9048953  41.9907475  33.6308026  31.0415196
  25.3632720  43.1700831  73.0824274  24.5825847  43.0664169  72.5383681
  26.0752662  42.8159129  72.5496369  82.4795151  66.3418961  32.7703643
  81.5748405  66.2882280  32.4622822  82.9941750  65.9331894  32.0744395
  86.7603588  81.6141623  80.2660590  86.6546774  80.6911033  80.0357794
  87.0301437  82.0352572  79.4498950  77.8278589  79.1520661  78.7853086
  77.1876001  79.6222108  78.2512104  78.6457300  79.2183083  78.2924264
  12.4371036  98.2094567  83.1905848  11.9855674  98.1477683  82.3488384
  12.6932605  97.3093217  83.3915087  78.7604332  33.5034037  15.5843055
  77.9874992  33.2897115  15.0616789  78.8485384  34.4531775  15.5043292
  61.7045546  16.1823153  57.0330286  61.5585232  15.9296751  57.9446602
  62.0733833  15.3995907  56.6237116   2.4487773  97.7180643  14.1605747
   3.3613531  97.7264179  14.4493115   2.3071376  96.8273348  13.8399947
  46.2825871  49.2596626  12.1038771  46.6699123  49.4240761  11.2441206
  45.7744646  48.4567738  11.9880843  69.3636203  71.6978496  60.0989717
  69.5267224  72.0483773  60.9746212  69.1867542  70.7681113  60.2422803
  55.7854033  50.9802914   1.3599475  55.4937935  50.8792162   0.4538677
  55.0608635  50.6391001   1.8842164  64.2380667   2.9915699  17.3171151
  64.8257780   2.6224831  17.9763567  63.3710527   2.9534033  17.7209246
  15.8830436  77.7729672  69.9602049  16.7884238  77.7215713  70.2665931
  15.5912002  78.6465304  70.2208703  98.6888695  85.5206388  56.3504928
  98.2289171  86.2066763  55.8667296  98.1177616  84.7555082  56.2823480
 101.2517929  82.3011773  69.3474477 101.6065693  81.4205497  69.4693392
 100.4366016  82.3025411  69.8491400  74.1534233  58.0575132  32.7856922
  74.0997458  58.5278130  31.9537234  73.6251307  57.2708178  32.6506352
  78.2750797  30.4738307  31.4579868  78.2283974  30.1166487  30.5711532
  78.8489389  31.2358952  31.3793635  74.4841146  47.5254774   3.8819122
  74.2954397  47.1275711   4.7317970  75.4397821  47.5346327   3.8286009
  11.3522895  72.8356212  78.5834789  11.0830958  72.0936363  78.0419761
  10.9961875  73.6019438  78.1338435  26.0589210  12.6236044  79.6676284
  26.5904705  11.8280254  79.6403217  26.5932981  13.2839476  79.2264706
  60.5070019  23.9109492  30.4784369  60.1143169  24.1873980  31.3064480
  61.3388872  24.3827653  30.4385543  13.6640628  49.9004698  26.3841462
  13.3641418  50.4067183  27.1391273  13.8385471  49.0272760  26.7353153
  93.3951664  44.5660257  22.8557849  94.1073418  45.1736403  23.0553961
  92.6013947  45.0338745  23.1151509  68.3274555  81.5184212  20.0646138
  67.4500704  81.3839626  19.7063470  68.9149475  81.3569927  19.3263578
  85.0037861  95.1139450   1.0588550  84.6160316  94.5412636   0.3971103
  85.9477139  95.0332832   0.9220083  59.6697895  35.1899086  72.4674231
  60.2403823  35.7278477  73.0162984  60.2391235  34.8771797  71.7643636
  86.0412025  41.9710588  22.6189208  85.6779957  41.3375378  23.2377577
  85.3189087  42.5735188  22.4412751  66.2631369  37.5944781   8.2156038
  65.5832386  38.2501221   8.0603683  65.7859373  36.8211913   8.5164988
 100.0513172  90.6500721   2.4467617 100.1814461  89.7794056   2.0709513
  99.1434002  90.8684635   2.2364615  78.4989786  88.5360622  24.1824961
  79.0380621  87.7926350  23.9124417  79.0991259  89.1041660  24.6655154
  67.3669434  68.4339333   3.7686589  67.5217247  69.3760967   3.8365263
  67.4668550  68.2413435   2.8363726  31.3395921   1.5373121  88.0366138
  30.4009811   1.5087353  88.2221447  31.3945333   1.5518604  87.0811025
 102.4966383 101.5681975  76.7957860 102.6438713 101.7294067  77.7277559
 103.2975530 101.1369126  76.4978617  86.1214066  83.9668941   4.4286430
  86.6750050  84.4967937   5.0022012  86.6144943  83.1563187   4.3018752
 104.4276237  34.7395062  25.6254458 104.6321774  34.0621614  24.9807787
 105.2638149  35.1762867  25.7874632  58.9211655  63.5082912  32.6385999
  59.8696041  63.5833120  32.7438045  58.7703133  63.6663485  31.7066693
  67.3964596  52.9447794  25.4081178  67.7502394  53.1012201  24.5325613
  66.6827059  52.3220491  25.2702951  38.0484764   4.9787746  51.5986937
  37.4250595   5.6985603  51.5012783  38.7814991   5.2184092  51.0316986
  95.0569534  55.8857870  50.1095915  95.3962708  56.7760754  50.2016735
  94.5482254  55.7396793  50.9071398   3.1892188  74.4121426  85.5156290
   3.1068929  73.7189596  86.1705735   3.2967837  75.2137726  86.0275365
  98.6419296  54.5001221   7.2607893  99.2591572  54.8891592   6.6411811
  98.5802078  55.1392984   7.9706323  91.8078136  81.2985802  40.1764727
  92.3878479  81.4399147  39.4282675  91.1834049  80.6390381  39.8742318
  72.1131897  51.6095209   2.8323767  71.1685562  51.6643047   2.6878357
  72.2374535  50.7789087   3.2915846  26.9525901  11.4273344  61.0444706
  27.2101633  11.7577492  60.1838225  26.8530504  10.4836546  60.9187716
  11.8089000   6.7466205  33.9397860  12.7116291   6.4583629  33.8048267
  11.7670147   7.6065867  33.5215187  61.6477100   5.9027754  67.9654234
  62.3768417   5.8816801  67.3456257  61.3731185   4.9891268  68.0433815
  16.0329668   2.2969233  87.4010032  15.6629268   2.2980963  86.5182222
  15.5768005   3.0068241  87.8528649  58.3231727   2.0494543  81.4964086
  58.8648025   1.3939987  81.0568082  58.0050270   1.6081320  82.2839653
  92.4715996  77.2958279  44.2573357  93.2242966  77.8871441  44.2624092
  91.7901516  77.7795506  43.7905741  96.3260269  32.3551607   7.9801244
  95.4181004  32.5684261   7.7646697  96.5606308  32.9758811   8.6699766
  42.0687850  92.8426879  81.5911925  41.4441379  93.5363715  81.3794106
  42.4407561  93.1042951  82.4334669  88.8796329  65.1171827  27.0174503
  89.3435574  64.4272375  26.5431285  88.2117462  64.6532631  27.5223637
 100.9242630  66.5334415  48.5592079 100.7854557  65.8085585  49.1687202
 101.0685444  67.2946930  49.1212749  80.2360916  56.4804745  12.1425974
  79.7528124  56.1897182  11.3692069  80.6146526  57.3214483  11.8863118
  63.8155262  34.6054112  69.3791634  63.4764759  34.5699535  68.4847241
  64.7570507  34.4613014  69.2842966  15.4950317  36.4484644   5.8241159
  14.6883472  36.1036277   6.2069678  15.2704318  37.3388934   5.5540752
  34.2256625  57.2768354  17.8580999  34.9962218  57.7590609  17.5581932
  33.7624248  57.8939152  18.4245384  27.2459491  87.8216594  67.6084107
  27.1750434  86.9916814  68.0799383  28.1859859  87.9404228  67.4726051
 101.5192318  47.4810600  24.1634703 100.8462906  47.2657871  23.5176826
 101.0285854  47.7315617  24.9462509  56.7836285  19.9839699  16.5485525
  56.8744373  20.2238369  15.6263542  55.8389568  19.9131238  16.6857064
  73.7222147  34.8002172   4.9824134  73.1422377  35.0670028   5.6956351
  73.4111881  35.2936745   4.2234698  76.2444019  52.9951000  16.2741673
  76.8519783  53.5765934  15.8170629  75.8572960  53.5424042  16.9574225
  98.7704659  61.9246674   5.7467586  99.5856190  62.2040653   6.1635339
  98.7447071  62.4096775   4.9219337   6.8405898  46.3472319   3.4675837
   7.3386462  46.6610527   4.2223567   6.0973437  46.9471359   3.4048605
  78.3809233  57.4944830  31.6918683  79.0398264  57.4177456  31.0017991
  77.6523542  56.9527388  31.3886714  22.1566669  18.8818441  83.8676798
  21.6948930  18.3797585  83.1961861  22.9335157  19.2198406  83.4221488
  89.1658020  48.9372158  12.5238168  89.9130440  48.9080954  11.9263124
  89.1712666  48.0831432  12.9559720  86.4557076  55.9981203  35.0840855
  85.8123970  56.4924288  34.5761037  87.1166134  56.6458654  35.3287363
 102.3465729  72.8875875  35.0263262 101.8173409  73.2500505  35.7367969
 103.1389809  73.4244967  35.0199866  86.6132164  32.5084400  26.5557599
  87.2669888  33.0119109  27.0408702  86.9220257  31.6038060  26.6058612
  76.4760208  53.1910133   3.8185287  75.5700350  53.1962585   3.5096589
  76.4161968  52.9096174   4.7314751  86.9002819  10.9231460  11.6851485
  87.8271770  11.1548567  11.6268718  86.7742062  10.2659130  11.0007632
  92.0097733  39.0562177  46.2651491  92.3715782  39.1797972  47.1426773
  91.7984867  38.1236100  46.2223387  80.2262870   8.8473354  77.1312600
  80.9929077   9.2034851  76.6821640  80.3497974   7.8986441  77.1002537
  95.3292084  52.2008562  40.8501434  96.0062218  51.6912985  40.4049063
  94.5504570  52.0932341  40.3040838  87.3516178  77.6416302   3.6423513
  87.6285076  76.9101000   3.0906031  87.3593426  78.3992004   3.0573237
  61.7327968   9.6468531  80.3696292  61.0960285   9.5820128  79.6579027
  62.4286453  10.2025400  80.0185674  60.0532198  56.1904478   8.6399597
  59.1102457  56.3196611   8.7416244  60.3952694  57.0635557   8.4478050
  77.4502850  68.7119818  10.7055426  77.5795889  69.3060875  11.4448321
  78.3234167  68.3659315  10.5208111  71.6664124  21.0626817  12.0221424
  72.3151350  21.7466569  12.1881878  71.6514540  20.5460858  12.8278315
  67.6104927  56.5451670   5.7972974  68.3535099  56.4013863   5.2112234
  66.8791866  56.7439508   5.2125680  50.3605072   9.7955833  72.8541761
  51.2549297   9.4598042  72.9132479  50.4009048  10.6585060  73.2664376
 106.5900421  63.2132816  19.1566968 106.0902023  62.4641275  19.4809949
 107.2805691  62.8257751  18.6188865  63.8549757  53.6064291  14.9628925
  63.2122040  53.4134245  15.6454062  64.4866562  52.8894567  15.0191331
  11.6476996  78.1306952  77.4725800  10.9083064  77.9260295  78.0449825
  11.3710673  77.8296583  76.6070848  43.3614818  -0.2154650  84.9557835
  43.0317298   0.0969873  84.1132462  43.8380090   0.5313335  85.3183377
  68.5743523  41.5595484  11.1677051  69.2885065  41.8829393  10.6184971
  68.2149458  42.3449516  11.5802634  11.4435371  62.3174047  39.7417498
  11.6599258  61.8481731  38.9360046  11.6420348  61.6954803  40.4417753
  94.9943352  54.5642376  32.0681310  94.8150158  53.7338924  32.5092745
  95.3265476  54.3110323  31.2068772 100.7009602  48.6763000  36.3016796
 100.4714870  48.8351822  35.3860760 101.5005779  49.1840076  36.4397669
   6.0373767  89.2292541  77.9887384   6.8411382  89.6578878  78.2827961
   5.9907373  89.4239872  77.0527178  84.0898895  66.3568020  18.3423901
  84.2886639  67.1013117  18.9102125  83.8285446  65.6597424  18.9440870
  40.5189601  15.5363689  86.9021153  40.5659381  16.2411200  87.5481421
  40.5581800  14.7328983  87.4208919  76.0795689  17.8825510  19.4114029
  75.7160091  18.5484862  19.9950027  75.3134584  17.4373698  19.0492988
  65.0758171  62.5377226  23.4535599  64.1333580  62.3912764  23.3726072
  65.2514362  63.2873869  22.8848815 100.1362705  77.0881462  49.0692949
  99.7286606  77.2018623  48.2107115 100.6704807  77.8736734  49.1867399
  38.8581125  28.5020910  83.3404577  38.0102293  28.9215504  83.1942504
  39.1465036  28.8347279  84.1904086  74.1649771  56.7347431  24.9956036
  75.0125933  57.1201277  24.7736621  74.1284513  55.9260368  24.4848299
  15.7356341  92.7548688  84.4383424  16.6338904  92.4643176  84.2803728
  15.6606372  92.7936738  85.3918105  68.2498550  84.5379734  24.5480776
  67.8642416  83.6618900  24.5521021  67.5020313  85.1292133  24.6342111
  67.8301048  28.5091448  21.5585756  67.6509190  27.9693365  20.7886863
  68.7839651  28.5035706  21.6382670 105.9067631  80.3936785  85.8558154
 106.0077047  79.6990126  85.2050608 106.7389393  80.4016083  86.3287331
  98.4649944  84.1344261  17.5144899  97.5940895  83.7516594  17.4084258
  98.3500862  84.8095322  18.1832588  56.8588352  60.4977655   9.3665427
  55.9754801  60.6508684   9.0311682  56.7305136  60.2847099  10.2908659
  58.8910762  16.9540869  82.7859950  59.2123119  17.1642481  81.9091391
  59.2175190  16.0703312  82.9552304  88.9384747  32.7862811  11.2346113
  88.9385414  31.9313478  10.8041251  88.8658047  33.4157085  10.5171359
  68.0385772  19.4151627  68.4416061  67.2112552  19.1485392  68.0407542
  68.5668365  19.7352301  67.7103585 102.9246426  34.2781734  28.4614348
 102.9888630  34.3701911  27.5108361 102.9664707  35.1754022  28.7922859
  84.5386028  47.0468092  18.3120501  83.9914322  47.1029139  17.5286686
  84.3560314  46.1780357  18.6700046  83.0125904  81.7212009  29.7530007
  83.0979347  82.4245167  30.3966665  83.6707020  81.0768509  30.0136256
  44.8012916  17.9304873  78.5484206  44.3536273  18.1597792  79.3628287
  44.0945617  17.7842079  77.9196316  93.2024765  88.3036900  16.2190855
  92.3860645  88.0493832  15.7889354  93.7604332  88.6176205  15.5074894
  75.1929140  25.1577830  14.2488730  75.8025885  24.8543167  13.5762393
  75.7384825  25.2913904  15.0239420  49.8066608  26.4712511  79.7704941
  50.4626647  26.3665997  80.4596483  50.0730983  25.8527456  79.0902781
   6.4830669  35.3961873  10.5460405   6.0823997  34.5305443  10.6257439
   6.1522945  35.8836031  11.3005245 100.9910965  17.5112236  42.4295425
 100.1914978  17.4784243  41.9043779 101.6637325  17.1290815  41.8658352
  71.5861694  11.4081083  75.8631509  72.4257366  11.3293158  76.3160842
  70.9336177  11.3885485  76.5631681  63.3999968  61.2817478   7.8961051
  62.4690342  61.1755514   8.0917048  63.4859037  61.0063982   6.9833964
   7.0073493 102.1247857  60.7290381   6.3982375 101.4751285  60.3780907
   7.7788480 101.6177457  60.9818738  96.0812664  27.1312666  15.8523834
  96.4992332  26.9323254  16.6902125  96.6837692  26.7825961  15.1953840
 107.9360962  88.2184165  65.7594746 107.8323698  87.7715891  64.9193448
 107.0415640  88.3431023  66.0764903  98.1513500  14.2157137   3.9640176
  98.1951523  14.6095705   3.0927023  98.7765217  14.7187042   4.4859272
  75.3883266  50.3275108  26.6101432  74.8930311  51.0903978  26.9083309
  76.2985325  50.5354834  26.8210983  69.3294287  33.5448909   2.4040955
  68.5482597  34.0145969   2.6963016  69.1002846  33.2166028   1.5346405
  65.1421738  84.6897125   5.0882781  65.7817411  84.7605419   5.7969171
  64.7204208  83.8422203   5.2301008  77.8022242  49.3966484  22.4680829
  78.5440779  49.4033051  21.8632412  78.1661940  49.0675163  23.2899261
  58.1858436  18.8681065  84.6342376  58.5716239  18.0829798  84.2456716
  57.6774971  18.5426603  85.3771364   6.5147289  88.6765003   2.8901395
   6.9391425  87.8239727   2.7936038   6.2823947  88.7247467   3.8174596
  86.0010815  75.7086563  23.6719251  85.6400204  74.9682665  24.1594577
  86.8971348  75.4441786  23.4636354  92.6664734  73.5696524  83.9207589
  92.6508999  74.4612306  84.2687192  91.9571400  73.5508507  83.2783228
  63.9152527  78.1699944  33.7955880  64.4614077  78.8001156  33.3255959
  63.5084105  77.6447964  33.1064773 105.7672215  60.6578875   3.2485551
 105.8944321  61.5233994   2.8600410 106.4186573  60.1040888   2.8182366
  36.4441482   5.0159727  87.6324772  36.8994371   4.3928419  88.1987359
  37.1444026   5.4665314  87.1603900 104.2141819  34.9345040  37.8732181
 103.8247395  34.0638018  37.7929616 103.4901237  35.5372667  37.7039409
 106.8504429  46.8238831  20.1820755 107.4124908  47.5888348  20.3052926
 107.4570560  46.0843325  20.1457000   1.4326652  71.8074751  19.7426510
   0.7875331  71.4079714  20.3261209   1.0539516  72.6557112  19.5117748
  25.0379642  94.7508901  77.4633044  24.4121535  94.1692823  77.0316571
  25.3939040  95.2876275  76.7551738  10.4923296  96.7014313  36.0294724
  11.2353408  96.2308407  35.6517005  10.3116238  96.2440586  36.8506837
  27.2820950  45.1934910  49.5765400  26.4244080  44.9149990  49.8975468
  27.8042006  45.3216362  50.3685093   2.3601045  67.0884705  56.2483072
   2.7159071  67.6279211  56.9544411   2.7963936  67.4090147  55.4589176
 105.0469051  81.4812183  59.8443365 104.2750634  82.0397568  59.7519922
 104.7183863  80.5933666  59.7027874  15.7681096  81.0224438  55.5173445
  15.1982760  80.3520679  55.8943224  16.1575449  80.6022072  54.7505522
  82.2591988  62.1794176  50.0066853  82.7732603  61.6816759  49.3708992
  82.8169004  62.2239351  50.7833576  19.3852615  73.9628792  83.6591053
  18.7267315  74.2308474  84.3000126  20.0235009  74.6762371  83.6589146
  87.0207397  64.5060641   0.3646642  86.2471632  65.0698096   0.3621751
  87.4640374  64.7040469  -0.4602736  96.6156785  16.6885383   0.6218225
  96.6460077  16.5727717  -0.3278655  95.9956614  16.0249812   0.9243089
  81.9113104  85.2394485  77.0738554  81.2274758  84.8356724  76.5394688
  81.4924113  86.0104561  77.4563551  21.1168861  79.9209976  59.9671841
  21.2772703  80.7066250  59.4444132  21.9229531  79.4110775  59.8867178
   7.3990268 101.0495949  51.0828066   7.5574410 101.9463825  51.3776112
   6.4966172 101.0582447  50.7637215  62.0020030  80.5237395  15.2544385
  61.4232509  81.2859733  15.2374536  62.3820792  80.4919822  14.3765050
  20.8359846   3.0504458  66.6486359  21.5014001   2.4700015  67.0181561
  20.2474316   2.4663108  66.1704922 102.4811242  87.2092628  80.3086662
 102.1288333  88.0385780  79.9856329 103.2339240  87.4609756  80.8436108
  28.8020849  59.9504232  40.3981113  29.7227693  59.7314548  40.5417299
  28.4706116  60.1740980  41.2677813  30.0243878  42.9291487  55.3628302
  30.2285337  43.8316154  55.1176643  29.8302150  42.4935722  54.5328903
  88.8927404  83.3295918  38.7986279  89.4392387  84.1122627  38.8692594
  88.1218509  83.6189842  38.3105588  90.0072865  24.8930508   4.6766645
  89.1727988  25.0789697   4.2462045  89.9996440  23.9459330   4.8150140
  74.9362792  65.9690959  32.2175771  75.3437818  65.1514346  32.5032217
  75.5351023  66.6528232  32.5178606  64.0723251  69.2066199  28.3683378
  63.9528809  69.1522223  29.3164999  63.8224123  68.3408934  28.0453950
  51.3584089  79.3325043  73.8326168  51.8307924  79.9654865  73.2918549
  52.0341444  78.9355135  74.3821764   3.2486597  65.9774590  74.2604685
   2.8441408  65.2515411  73.7854576   3.6782548  66.4980268  73.5817289
  76.7941801  20.8897168  45.7258779  76.5360151  21.0109860  44.8121625
  77.3933647  21.6146857  45.9037096  97.2385661 100.8504009  27.5349712
  97.5225381 100.5820370  26.6611481  97.8969685 100.4824257  28.1243157
 101.9728486  91.8149662  82.1270657 102.0295284  92.0809460  83.0448246
 101.6789136  90.9045792  82.1592617  41.1612078   4.1139548  65.4588938
  40.4450615   3.5936778  65.8231401  41.2628569   3.7885135  64.5644760
 100.7012246  81.9689274  66.8164968 100.8664564  82.2333431  67.7214909
 101.5656654  81.7478848  66.4699221 103.5468243  87.4141598  46.0437393
 103.4056703  87.5906849  46.9738722 104.4987554  87.3919487  45.9459352
  91.3820903  79.9453163  69.8873901  91.7636220  79.9232388  69.0097904
  91.6529779  79.1188669  70.2871847  15.7622298   4.0652793  56.2752295
  15.2131041   4.4834273  55.6120205  15.3055056   4.2266505  57.1008158
  10.7295692  81.9415379  55.3913975  11.2095320  81.1890411  55.0455523
   9.9131149  81.5712738  55.7268667  75.5472900  40.0476653  23.8097745
  76.3169233  39.4789225  23.7890893  75.8921476  40.9237201  23.6370355
  47.6095438  94.8387051  67.8365898  47.3629808  94.3885422  68.6445475
  48.5537720  94.6996880  67.7635336  78.6766217  32.7353293   1.0939008
  79.0699963  32.5980193   0.2321416  79.3372242  33.2254702   1.5833837
  86.8880598  81.0910702  71.1931610  87.4702327  80.7589340  70.5097961
  87.4076144  81.7528343  71.6496325  68.9575490  19.9319976  16.0396063
  69.2027958  19.3315642  16.7435706  68.2499131  19.4827979  15.5773258
  89.5098976  83.8500595  75.1292944  88.9212493  84.2704582  75.7561874
  89.8329322  83.0740929  75.5872822  18.2101925   1.7636722  69.7107315
  18.4439751   1.7286056  68.7831831  18.6616012   1.0147040  70.0999880
   7.7449620  62.1786690  64.3469429   7.1282822  61.5977859  63.9013910
   8.0643409  61.6651583  65.0889301  88.2323913  48.7356901  81.9745636
  87.3243563  49.0310144  82.0415592  88.1997530  47.8069782  82.2040462
   1.1367951  92.5345898  41.3869190   0.3864190  93.0886936  41.6017199
   0.7914881  91.8944359  40.7646751  20.9873176  86.0563087  74.5997763
  20.1289916  86.4173794  74.3781090  21.5625882  86.8197060  74.6499968
   3.1448111  94.2108536  72.5407934   3.1726596  93.2545853  72.5727224
   2.5923446  94.4592571  73.2819462  34.8838425  66.5158272  11.8444288
  34.3314648  65.9633493  11.2913680  35.0577807  65.9813070  12.6191974
  98.1856255  45.2554083  79.7820139  98.5053692  45.3508997  78.8848639
  98.8557373  45.6755972  80.3211117  71.1494581  89.7299576  75.7539463
  71.3906137  90.6130409  75.4742479  71.0788266  89.7913456  76.7065620
  71.6139734  21.6159207  21.4806062  71.9217888  20.9673650  22.1137411
  71.4615203  22.4048526  22.0007783  39.2003184   4.8719256  86.6834736
  39.5989375   4.4453090  87.4419785  39.9139508   4.9505370  86.0504055
   2.4116954  81.5720558  74.3712711   2.0752354  82.0654964  73.6232424
   3.3125407  81.8786430  74.4747972  11.3284492  80.7883549  79.7252083
  11.9227052  81.1979961  79.0964890  11.8832672  80.1878452  80.2229977
  16.2711167  98.2580090  24.2637706  16.1588728  98.9328861  24.9332309
  17.2065687  98.2744789  24.0615582 107.8228949  58.6063576  43.9783001
 106.9743067  59.0054607  44.1702604 107.6207443  57.8936148  43.3721924
  49.4657298   7.2330420  60.4081583  48.5594221   7.4686187  60.2098036
  49.4029459   6.3799136  60.8376360  27.0022412  15.5534118  50.0887871
  26.8040403  16.0857528  50.8592176  27.5878819  14.8697894  50.4142380
   9.5510352 101.2519741  49.1433764   8.9249361 100.7511044  49.6662188
  10.3447104 100.7168961  49.1427183  41.6950798  60.4014015  53.0951643
  40.7449198  60.3564119  52.9883623  42.0124483  59.5574427  52.7738571
  87.1921627  31.6853625   0.8458311  87.1248059  30.8727939   1.3472635
  87.1661095  31.4050967  -0.0690478  69.9724380  87.1301651  78.5759163
  69.3731491  87.4531174  77.9030228  70.8427493  87.2332954  78.1910086
  66.4456876  22.3121493  84.1308880  65.7383378  22.9251807  83.9306641
  66.6599139  22.4848025  85.0476933  43.0334618  16.1199611  47.4142694
  42.3669048  16.6927760  47.0350361  42.5359585  15.4647487  47.9035759
   5.0011742  84.0004635  47.5963020   4.3589309  84.3305016  46.9679451
   4.5113459  83.3797932  48.1358147 100.1505969  79.0488291  68.9371538
  99.9178092  78.1662416  69.2254019  99.3270199  79.4239855  68.6253738
  92.8886394  71.0798454  72.6978922  92.9440157  70.8460474  73.6244440
  92.1753887  70.5401802  72.3569107 100.9193419  94.9904823  60.1846981
 101.8503646  94.9789143  60.4067230 100.7083510  95.9188271  60.0852156
  59.8128033  99.7913074  73.8441610  60.5398989 100.3454971  74.1277790
  59.1660929 100.4046917  73.4952211  22.0478650   3.8965362  52.7660227
  21.9349202   4.6706336  52.2144365  22.1346720   4.2452186  53.6532211
  11.6229566  20.8257335  85.2856255  12.3784288  21.1894362  84.8238754
  10.8657416  21.2277263  84.8598862 106.1015267  67.8518152  78.0276012
 105.2383975  67.6818371  77.6503134 106.1781567  68.8059378  78.0300856
  28.9028478  55.2421570  83.0612183  28.6983228  55.2160072  83.9959431
  29.4573760  54.4756126  82.9158401   5.5118936  79.9396467  46.7387772
   4.8037207  79.6889210  47.3319530   6.1294198  79.2094994  46.7809010
  73.0183228   1.9131511  59.8553514  73.0625947   1.2083381  60.5015039
  72.3168524   2.4831717  60.1703835  31.5664506  78.3225870  38.4063768
  31.1020660  79.1500711  38.2805014  31.2994838  78.0281687  39.2771697
   9.8548943  75.6481838  87.9734993  10.3384197  76.2884474  87.4514866
   8.9374685  75.7954884  87.7435780   2.6902518  60.0004482  68.6280394
   2.9995561  59.6083927  67.8114271   1.7371945  59.9224567  68.5852432
   3.7938422  91.3350964  70.3467035   3.9926532  90.7756138  69.5959139
   4.0168643  92.2183704  70.0529099 101.3661496 101.9869137  59.4768667
 100.7009266 101.5795517  58.9221048 101.4805369 101.3739300  60.2030849
 102.1971152  96.1063576  73.8643265 102.1936749  95.9704590  74.8118258
 102.7067743  95.3733635  73.5190821  61.5415724  31.4793055  81.4204502
  60.6478580  31.8199389  81.4588833  61.5768560  30.8205836  82.1140480
  72.4273888  95.0820065  72.8999519  73.0280392  94.7979546  72.2109175
  72.7813379  95.9208488  73.1954145  36.1213418  32.2961562  85.4195118
  35.2688826  32.7275985  85.4778481  36.5409104  32.4801295  86.2599564
  12.9834306  79.4900751  68.7754631  13.0200160  80.3061008  68.2764626
  12.1761739  79.0667009  68.4833670 102.6257571   7.3676150  78.5417032
 102.1169718   8.1604045  78.7115574 103.1953295   7.2802108  79.3060207
   2.4201913  32.3993492  34.8214674   1.6043189  32.6451826  35.2575302
   2.2494267  32.5493550  33.8916445   6.2145549  56.4171648  30.2710009
   5.3518933  56.2901163  30.6658483   6.1747831  55.9314060  29.4471741
   9.2128885  17.3375571  22.5256896   8.7194872  16.9908547  23.2690501
   9.4504100  16.5641236  22.0142055  87.8673999  42.5362158  82.5068283
  88.4173731  42.7367687  83.2641506  87.0631782  42.1783972  82.8828907
  19.7823215  54.5736837  59.0294504  20.1498771  54.2953587  58.1905985
  20.4350948  54.3076897  59.6770334  -0.0638561  29.9725795  28.1792116
   0.3328986  29.9237132  29.0489411  -0.2150721  30.9070158  28.0370951
  13.7046218  45.0981808  37.6654768  13.0850339  44.4872475  37.2666073
  13.3424473  45.2737379  38.5339499  16.2665951  74.9163866  59.7760391
  15.6038773  74.2669392  59.5409679  15.8289313  75.4875183  60.4073000
 101.0963653  28.0760360  77.4264097 100.7819365  27.3459721  76.8931437
 100.6497542  28.8435030  77.0689631  96.8271713  71.8343687  29.0866661
  97.1689693  71.5510225  29.9346757  96.9771437  71.0879707  28.5064697
  26.0346293  62.6966953  55.8126450  26.7635155  63.1038284  56.2808323
  25.2516913  63.0418205  56.2417459  91.0213856  50.6944609  59.8877764
  90.2733127  50.8002138  59.3000412  91.6506509  50.1782274  59.3840313
  87.4497239  90.3751087  16.9386959  87.1832411  90.3469181  16.0197711
  87.0054213  89.6282387  17.3399460  84.8066918  65.0630093  42.1356869
  85.7027261  65.3724527  42.0030260  84.8928205  64.1147470  42.2337246
  10.9433937  78.0112886  67.2561884  10.6320858  77.3501730  67.8744507
  11.7306781  77.6268339  66.8706894  96.0356061  74.0439320  35.3365374
  96.4947693  74.8771906  35.4418087  95.1356677  74.2309523  35.6036830
   6.0548198  36.7869616  59.5201540   5.1017022  36.8451977  59.4537687
   6.2292725  36.7782140  60.4612827  96.4520041  91.8697739  44.5687485
  96.1064951  91.3143635  45.2675867  96.6557352  92.6993179  45.0007010
  10.6410456  46.1984777  38.1782079   9.7110510  46.3403845  38.0015588
  11.0931253  46.7222023  37.5167203  92.2867016  68.9314699  66.6053486
  91.4038650  69.0914488  66.2718248  92.2281353  68.0804348  67.0395565
  72.2571725  28.1175238   8.1941110  71.3680266  27.9005534   7.9137975
  72.3931314  29.0138490   7.8869421  36.3632631  40.4941082  38.4338522
  36.8657970  40.3173351  37.6385903  36.3044739  41.4487076  38.4727979
   8.2630169  64.4212246  45.5160522   8.1378400  63.6468983  46.0646725
   8.7155074  65.0458097  46.0829544  91.6469566 101.3068104  58.4704304
  92.2315196 102.0105839  58.7518692  90.7685868 101.6311455  58.6691809
 103.3906348  46.6650152  21.6333032 104.0213926  46.3023090  22.2552514
 103.9224569  47.1767092  21.0237384  84.5934312  78.4058237  39.7148681
  85.1872222  79.0023327  40.1707363  84.7744242  77.5478888  40.0988245
 106.4578242  67.4373150  63.8782120 106.0078035  67.5581741  63.0420876
 105.9120434  67.9011488  64.5132017   9.8256022  86.1987305  38.6181045
   9.8768538  86.1973190  39.5739293  10.6258214  86.6417789  38.3359957
  29.8937488  60.1517010  58.9709091  28.9370584  60.1743174  58.9493847
  30.1201558  60.4350948  59.8567200  37.5532961  63.8832664  44.8968601
  37.0078111  64.2905378  44.2239428  37.2153568  64.2311907  45.7220745
  40.3628760  17.7736037  82.1565533  40.7602220  17.0126670  81.7330742
  39.6498483  17.4102824  82.6817417  10.1241720  33.8810921  60.9444666
  10.2971840  34.7286272  61.3543177  10.9745789  33.4418416  60.9344339
  88.1289141  87.4440575  63.0840635  88.9044432  87.9907131  62.9577637
  88.2022015  86.7656136  62.4128103  20.6724167  62.1775866  70.1081657
  20.3597856  61.8841982  70.9639788  21.6114140  61.9921732  70.1197338
  35.2615547  59.1277981  32.2169280  35.2399611  59.9018764  31.6542840
  34.3527126  58.8290358  32.2482467  91.4193706  74.6410561  33.6138201
  92.2414223  74.1538525  33.6694384  91.0919790  74.6618700  34.5130491
  83.4722702  12.2210932  61.0834217  82.9670922  11.5274632  60.6592703
  83.9074604  11.7862451  61.8167353  51.0011288   6.0002940  30.2033591
  50.8718153   5.0773280  29.9850845  50.2360388   6.2313025  30.7301474
  97.7175228  38.2035041  69.2712069  98.0816100  39.0115404  69.6328020
  98.2025550  38.0652952  68.4576511  11.5457070  46.8374777  87.2751713
  11.1590624  46.9904852  88.1373405  10.9839106  47.3230362  86.6711426
  88.4863452  92.7325630  59.7816563  88.5132067  93.2127953  60.6092358
  89.2826967  93.0006695  59.3232059  88.6055605  72.8533506  52.7523422
  87.7819840  73.2434034  52.4594069  89.2798356  73.3147430  52.2536469
  93.2105247  50.4006195  57.4231195  93.8510672  49.7144365  57.2358036
  92.4228625  50.1279211  56.9525242  98.3980839  77.8246164  59.0311146
  97.5215070  77.7728939  59.4121265  98.6713068  78.7296867  59.1808510
  12.9514444  58.1613874  40.6684351  13.8948190  58.2474279  40.8058071
  12.7155936  58.9246416  40.1411295   5.8944678  56.7414379  14.9188221
   5.2630144  57.4251127  14.6950173   6.2419856  56.4510202  14.0755415
   9.5005244  83.2720280  75.4191017   9.2500120  82.4277306  75.7941103
   9.1459477  83.9194393  76.0284948  20.1556802  34.8937488  88.0152702
  20.2552485  35.6761837  88.5575962  20.3190064  35.1985931  87.1227360
 102.3313193  70.4569006  48.2675791 101.5236400  69.9575138  48.3879852
 103.0292277  69.8069000  48.3491564 107.0065450  66.9371462  82.5876713
 107.3568358  66.0824060  82.8385639 107.1036397  66.9657755  81.6358376
 102.3838918  65.1303720  55.1659584 101.5068076  65.3839350  54.8784494
 102.3128573  65.0599098  56.1179161  77.3322908  81.2100792  54.2462873
  77.6369349  80.3087997  54.1408539  76.5178291  81.2478161  53.7448311
   8.7368703  51.8631506  49.6092653   9.1789556  51.0165167  49.5459557
   8.4868962  52.0707417  48.7089014   3.6563104  90.3824425  52.9790640
   3.9506096  90.1757431  53.8661337   3.8663909  91.3095570  52.8669596
  86.0018412  75.3946066  62.5961065  85.2473919  74.8096371  62.6657248
  86.6082470  75.0844669  63.2686520  40.6574249  60.3360462  46.0919285
  40.8392525  60.7224846  45.2352858  40.0418329  60.9431028  46.5027380
  76.2377636  70.0608444  54.1032553  77.1741502  70.2592659  54.1096115
  75.9976236  70.0090599  55.0283957 102.2439114  55.0120497  65.0578976
 101.4457409  55.5002356  64.8558331 102.7401606  55.0149918  64.2393875
 106.3115625  65.4957008  30.1477170 106.5233148  64.9773884  30.9240866
 106.9364359  65.2009678  29.4852233 104.0261523  67.7923346  33.4823060
 104.8775588  67.7660084  33.0456758 103.8198749  68.7246656  33.5489297
   7.0188367  60.7592344  42.6284981   7.8690690  60.4360485  42.9266357
   6.4984375  59.9685144  42.4864435 107.9026759  85.3340626  35.5598760
 107.9698863  86.2709236  35.7442665 107.9664487  84.9157810  36.4184856
   2.2421759  70.7666206  33.0363345   3.1310737  70.7956934  33.3902359
   1.8086034  71.5315342  33.4146905  22.7489924  86.6962433  67.3631096
  23.5080576  86.1171913  67.4320316  22.1860433  86.4412117  68.0940533
 100.8773653  23.0095536  16.4852029 101.0148851  23.5467202  15.7049638
 101.2174265  22.1475036  16.2454874  92.1472625  66.9233465  50.6587839
  91.6381196  67.5944757  50.2042627  92.0731811  67.1528816  51.5850973
  76.8444936  79.9258757  48.5271120  76.5210358  80.7764053  48.2301044
  76.2384836  79.2919254  48.1435823  11.8415487  82.0281696  11.8352175
  11.5184486  82.7418804  12.3851788  12.4441290  81.5444374  12.4001324
  77.9606549  76.7410660  56.5401983  78.7829725  76.7708969  57.0292139
  77.6232044  75.8583975  56.6926718  46.5195116   4.0954917  51.0346603
  46.8086215   3.3677428  51.5851307  45.6266203   4.2774527  51.3276911
  33.0184078  74.8217058  71.8953419  32.8813481  75.0940418  72.8026867
  32.3386025  75.2809095  71.4021540  91.1148087  64.3157911  71.7376757
  91.9693617  63.9057112  71.8711233  90.9577171  64.2411947  70.7964087
   5.0556719  63.3286285  54.0914822   5.7733977  63.0555820  53.5200405
   4.6768507  64.0904379  53.6528730   5.7709312  30.2489090  47.1460199
   5.5050373  31.1442256  46.9364071   5.5754310  29.7492027  46.3533592
 103.0290965  54.9160576  16.0832906 103.0624233  54.3118572  16.8249512
 103.8423417  55.4170227  16.1457443  97.5366644  55.7866192  72.1901703
  96.9340889  55.0805473  71.9565058  98.3906601  55.3597641  72.2588682
  32.1333313  75.2797794  68.3066702  31.7759609  75.6017542  69.1342258
  32.7050090  75.9845972  68.0022860  44.1533049   2.1634334  69.9845409
  43.8909050   2.7438014  70.6990719  44.1981884   1.2953132  70.3852797
 100.1410703  79.4149494   9.8742318  99.4341837  79.7712708  10.4123580
  99.8754327  78.5126400   9.6967155   1.6411357  46.6786289  31.7435050
   2.4681517  46.2192011  31.5978909   0.9847027  45.9831524  31.7840219
  50.4872227  78.8297081  56.9200230  51.2176228  79.2303181  57.3914623
  50.8915901  78.1408262  56.3926125  16.3027322  57.8742504  21.9309688
  16.2828934  57.9052782  22.8874612  15.4578698  57.4968529  21.6859984
  73.6214976  13.4821851  15.9396822  72.7254290  13.8086373  16.0216886
  73.6936311  13.2075126  15.0255853  43.6118650  69.0174389   9.2258537
  44.3786192  68.4894848   9.0031707  42.9284811  68.3765125   9.4218832
 105.7676611  40.5729675  52.1725798 106.4402634  40.0336552  52.5884867
 105.4425941  41.1350346  52.8758907  36.4303708  36.4359570  67.2212553
  36.1320305  35.6695199  67.7109480  35.8076620  36.5158224  66.4986992
 104.7719897  53.2373667  34.2370439 104.5354204  53.2951736  33.3113408
 103.9345209  53.2590961  34.7000837  45.7932663  87.6017094  79.1460609
  45.8904696  88.2213497  79.8691320  45.8166552  86.7407322  79.5636702
  41.2892695  10.2514499  84.4360447  41.9905075  10.8792441  84.6103001
  40.5131724  10.6415122  84.8382282  80.3617732  52.3262358  24.3201113
  81.1671082  52.2601318  24.8332334  80.6436316  52.6799870  23.4765196
   8.1212825  85.3387642  29.8825288   7.5521672  84.5934200  30.0743961
   7.6646286  85.8168602  29.1903400  25.6353855  63.1400776  72.2718859
  25.9118009  62.2607374  72.0138311  25.0786781  63.4370375  71.5520763
   6.1720169  51.9604349  31.3905215   5.5104393  51.2704515  31.3408756
   5.9507322  52.4477816  32.1840978  87.1923487  56.2680101  32.0036244
  88.0437486  56.6692924  32.1777606  86.6895286  56.4159536  32.8045726
  14.5215416  63.8958549  43.7831545  14.7461438  64.6211910  44.3659687
  14.1044450  63.2504034  44.3538141   6.0673279  68.7387323  48.6869287
   6.7972636  69.1288328  48.2060480   5.4251528  68.5201597  48.0115986
   7.3155713  58.1697750  59.7640181   7.4422187  59.0183210  59.3395662
   8.0702156  58.0779028  60.3456545  37.7969646  34.8118377  33.3411193
  38.4074497  34.7806072  32.6045299  38.3557129  34.7704840  34.1172123
 105.9622688  83.1780148  42.3358488 106.8701730  83.4505367  42.2029114
 105.5312515  83.3659840  41.5021086  47.2063287  89.4771685   4.5140726
  46.8791791  89.1980733   5.3692323  48.0891522  89.1106237   4.4640810
  30.6176043  74.4170380  66.1560583  30.0867748  75.1669741  65.8876419
  31.2230325  74.7727060  66.8065882  66.9344147   3.2253592  64.9066973
  67.8013714   2.8370707  65.0243950  66.9034155   3.9395469  65.5432510
   6.6282594  70.0567150  51.2026691   6.5255201  69.4696283  50.4536676
   6.8721241  70.8977365  50.8160877  14.1050148  45.2984149   1.7979604
  14.1179705  44.8543364   0.9501058  13.3342362  44.9447162   2.2418386
  79.4144646  47.2446823  58.0268669  80.0634043  47.9467773  57.9802370
  79.6771328  46.7258596  58.7871695  56.1293320  29.8574263   5.9612638
  55.3252654  29.5420844   6.3738996  55.9113495  30.7370765   5.6531507
  88.4414903  60.3775072  57.0825100  88.5299842  60.9432936  57.8495073
  87.9684583  59.6100855  57.4042797  18.8169611  63.6162233  59.5556641
  19.4470549  64.0821838  59.0060329  19.2874420  62.8368568  59.8514175
 106.9326323  26.7004347  28.6408806 107.6227680  26.6492224  27.9795766
 107.3812831  26.5296555  29.4689989  94.2580442  61.4800072  74.1565609
  93.3023111  61.4291620  74.1416502  94.5349411  61.0159397  73.3664989
   1.1691851  22.4515629  84.6588612   1.4696121  23.2787132  84.2823029
   1.8401176  22.2236824  85.3024101  27.0852947  38.7892056  59.7426462
  26.8277884  38.8144112  58.8210773  26.2606502  38.6940813  60.2192402
  76.6898791  92.0063686  56.4556360  77.5778071  92.3615170  56.4966774
  76.1284200  92.7756500  56.3597345 104.5797695  41.6309071  67.9020739
 105.2660034  40.9774017  68.0371475 104.3006964  41.5013313  66.9956779
  90.6025914  81.7620468  51.2656879  90.8566217  82.5214767  50.7413101
  90.3953342  81.0848522  50.6217337  15.9472811  61.9664383  64.0883064
  16.8487120  61.9096804  64.4052172  15.5871511  62.7370596  64.5272589
  76.3801948  72.5929594  49.4544315  76.9592492  71.8570185  49.2561340
  75.9884922  72.3688269  50.2985668   8.8441116  86.6725731  32.0803142
   8.7253124  85.9588051  31.4536858   8.7539703  87.4686432  31.5565014
  21.9979310  75.7390022  53.5264349  21.2212729  75.5577755  54.0557671
  22.6270628  75.0658941  53.7859678  98.3251314  56.9741297  51.0550690
  98.9813314  57.3623419  50.4763460  97.4975435  57.3653269  50.7752562
  12.7965200  76.6287756  50.5789232  13.2861626  77.2029161  49.9899912
  13.4582376  76.0440445  50.9483147  99.5627765  59.4154882  63.8008022
  98.8546614  59.7386408  63.2436895 100.1642976  60.1561260  63.8773632
 107.4259890  75.4384422  25.1415181 107.8175349  76.2345409  25.5008912
 106.8392470  75.1277733  25.8310485  96.0812477  67.9356527  59.2324638
  96.2288157  68.8806391  59.1943407  95.1361076  67.8360319  59.1183615
  94.3112497  46.9125462  54.2541027  95.0269596  47.3143673  53.7616301
  93.5259346  47.3669434  53.9490938  24.3118048  64.6478271  53.3411598
  24.0991545  64.4272470  54.2479992  23.5760546  64.3065453  52.8328037
  28.1061461  10.6875651  79.9641371  27.6617321  10.1305907  80.6032848
  28.4584214  10.0760405  79.3174744  42.8888746  -0.1589925  33.6863518
  42.5496312  -0.3252084  32.8068519  43.3509710   0.6758826  33.6109996
 101.1480485  98.7387085  48.7961435 102.0686446  98.4874439  48.8709545
 101.0307251  98.9451981  47.8688717  23.4246953   4.6015590  37.3840880
  23.5632881   4.3994849  38.3093929  23.7377890   3.8252109  36.9198799
  94.2246421  47.7162586  80.6791317  93.2765611  47.8480660  80.6806159
  94.5807298  48.5343109  81.0258645  13.6211038  79.7990131  43.2012129
  14.4703531  80.1977539  43.0114412  13.4835827  79.1769457  42.4868250
  14.6140409  96.0473442  25.1013422  15.2568018  96.5727806  24.6248817
  13.8470328  96.0302544  24.5289445  95.5883662  24.7777850   2.2079355
  95.9667627  25.6553990   2.1546346  95.7919614  24.4826657   3.0954534
  58.7608115  97.8633499  67.2313404  59.6912305  97.8983307  67.4534369
  58.3391635  98.4315586  67.8759956  15.3633237  71.4831495  48.7365007
  14.6123636  72.0302773  48.5063982  16.0648918  71.7842340  48.1591082
  25.0370002  94.1939926  40.4272747  24.4981217  94.9254990  40.1260614
  24.5920944  93.8764000  41.2130404  37.0468259  80.7513618  45.7757092
  37.3461604  81.6596508  45.7350969  37.4901724  80.3870964  46.5418577
   0.2858634  58.1378603  30.0010300  -0.5746346  58.4793425  30.2442694
   0.5744260  58.7037134  29.2849445  22.1488833  91.2439823  26.7955685
  21.4286089  91.7888641  27.1126461  22.0480657  91.2438774  25.8436918
 107.1982325  93.8426876  24.9914145 106.3594348  93.3863735  25.0579810
 107.4819315  93.6920643  24.0897155   6.6063899  84.6549416  43.0595827
   7.0041716  83.9025879  43.4977150   5.7348174  84.7255993  43.4489441
  19.6490729  62.8830862  47.2357893  20.5727959  63.0910587  47.3761988
  19.6582985  62.1732378  46.5937138  68.0728127  36.1685950   6.1717111
  67.9612101  36.5060145   5.2829343  67.2373642  36.3484961   6.6028577
  15.8185434  90.6264305  35.0276852  15.6980443  89.7131729  35.2878213
  16.7036557  90.8439636  35.3200674  12.9628563  72.7511454  69.7516632
  13.2472467  71.9472265  69.3168449  13.0249023  73.4246349  69.0743208
   2.2284803  73.3480501  52.8143311   2.2932206  74.2072678  53.2312107
   2.6806435  72.7556849  53.4150696  46.4085527  23.8719504  26.7655230
  45.8476802  23.5809844  26.0465002  46.2784835  23.2166427  27.4510121
  98.3062730  93.9439392  72.9304266  97.9968522  93.6115360  73.7730408
  99.0611891  94.4896126  73.1508207   8.1339828   4.6729415  70.8819485
   8.3195392   4.0156215  71.5525770   7.5271885   5.2810901  71.3040590
  28.9277673  67.6060104  35.0241089  29.6181726  67.7301550  35.6753826
  29.3340540  67.0691252  34.3437314  45.4255923   4.7098868  77.3099327
  45.9466996   4.0732520  76.8206644  44.5374288   4.3532031  77.2966576
   7.2367316  69.9329138  58.6939621   7.9799163  69.9028730  58.0914640
   6.5829700  69.3575430  58.2967520   6.8001366  88.7589931  51.8950176
   6.5621620  89.4008255  51.2259531   6.1102617  88.0970955  51.8480921
   3.2675254  69.4847631  57.1787310   3.9178690  69.9864054  56.6871595
   2.7403685  70.1478815  57.6243925  95.3024558  99.3617535  52.5451803
  94.5794348  98.7609386  52.3649216  95.4051749  99.8625183  51.7359161
  13.4127545  76.4077425  68.2290888  13.8913858  76.1042976  67.4576855
  14.0105677  76.2490845  68.9596224  41.7242172  20.5273955  36.3883042
  41.9669064  21.3629668  36.7872572  41.4423480  20.7576030  35.5029845
  20.2835822  85.2461910  39.8561740  21.0916185  84.7857666  40.0826883
  19.7732735  84.6051216  39.3613601  50.1667305   5.7366507  73.5208321
  50.5889126   6.4788382  73.9534473  50.3220471   4.9970096  74.1082287
  17.5163317  93.5091400  35.3164840  17.6048088  93.0011463  36.1229229
  17.9845130  94.3247986  35.4946327   1.3564135  67.8188610  60.0716305
   0.7748476  67.0926285  59.8466873   2.1958494  67.4020576  60.2661991
 102.4445288  83.8302612  73.2450581 102.6727758  84.4583511  73.9303637
 102.0360218  83.1024075  73.7136602  60.6538614  48.9966910  21.0863972
  60.3980430  49.9141639  20.9914231  59.8268827  48.5148566  21.0731649
  65.7396968   6.1738723  64.1019583  66.1450966   6.9875758  64.4015741
  66.1577757   5.4907935  64.6262169   4.4180170  74.4185591  51.0120630
   3.9343861  74.5556879  51.8266344   4.5670766  73.4736395  50.9781885
  12.5857162  58.5094261  52.9891443  12.9821897  57.8016949  52.4810553
  12.1279728  59.0431881  52.3396826  16.0993159  69.1948891  65.9748983
  15.6855619  69.6362638  65.2331305  15.7105649  69.6073580  66.7462444
   3.2574264  11.2495218  70.4390055   3.3034889  10.9868942  69.5196908
   3.9954440  11.8480621  70.5543774  95.1194386  72.8180981   7.0043558
  94.2901937  72.4456787   6.7045403  95.4657738  73.2781029   6.2397140
  63.7514273 100.9126377  61.4948702  63.6958377 100.2684689  62.2006941
  64.0865771 100.4192924  60.7461977  97.0620469  62.9706097  66.1306572
  96.3004200  63.5314989  66.2774897  96.6934578  62.1403599  65.8288956
 102.4158911  89.7600269  61.6000652 102.9581461  88.9743423  61.5301752
 101.9837002  89.8292637  60.7488012  16.5373182  65.3288364  21.3346052
  16.9172740  65.1227283  20.4805636  15.8717453  65.9907436  21.1472034
 106.5598954  84.1580105  49.6340227 106.2647113  83.3495808  49.2150450
 105.8107797  84.7500515  49.5666265   1.2735100  63.4501219  54.9332190
   1.5488118  62.9193020  55.6806660   1.2812516  62.8434944  54.1928291
   9.8057288  99.2475986  65.4884672   9.8378521 100.1092911  65.0729179
   9.6641082  98.6376762  64.7644758  75.8100097  82.1011257  47.5578070
  76.2158887  82.5846481  46.8382978  75.1715652  82.7115822  47.9265356
  28.4606671  83.8387966  48.4337378  28.2578087  83.9110470  47.5010729
  29.1890001  83.2189465  48.4731102   2.2806227  91.2584496  74.1820765
   1.4077404  91.1070061  74.5445347   2.8697160  91.1701584  74.9313450
  11.5471768  90.7596111  18.8923991  11.0243809  91.3770580  18.3808553
  11.3045549  90.9359646  19.8013914  28.1400752  70.0451231   2.7715454
  27.2268915  69.8041153   2.9272452  28.1072831  70.6331587   2.0169774
 105.7348811  89.5488739  40.1908398 106.6500936  89.5209789  40.4698372
 105.7089702  89.0099335  39.4002080  13.6966431  74.1044903  59.0760708
  13.3710158  74.9957800  58.9503574  12.9476678  73.6232328  59.4277191
 101.3607375  77.0086432  83.4845257 101.0652797  76.2528753  83.9922237
 100.6396912  77.1886253  82.8812599   9.2593867  82.5383568  27.7366972
   9.3189931  82.1002388  26.8877363   8.7010854  83.2988834  27.5750685
  60.6002478  42.2895533   4.8415071  59.6858088  42.3745543   5.1113397
  60.5743687  41.6957194   4.0912229  35.6708974  24.6800940  60.0004005
  36.3536308  24.6440738  60.6703329  35.7463696  23.8462584  59.5364380
  57.0297432  87.8501129  43.8988733  56.4674664  87.4102306  44.5365095
  56.5478420  88.6421394  43.6607647  36.2888432  54.1363716  76.1245632
  36.4521360  53.3315802  75.6327534  36.8802738  54.7798204  75.7341528
  32.3898864  84.2753887  49.1994619  31.7445159  83.6015606  48.9857388
  32.3610258  84.8787689  48.4569454  90.5132024  38.9567065  54.0628767
  90.6363241  38.2242346  53.4590912  90.6397144  38.5749555  54.9314928
  14.2568982  63.7670279  69.6614504  14.0820062  64.0563583  70.5569553
  13.7055469  64.3284035  69.1163826  11.3030338  57.9767084  25.5302262
  11.0192692  57.2931719  26.1372566  10.7380140  58.7233162  25.7291269
 103.8994242  67.3224974  26.0201311 104.3886979  68.1379223  26.1293125
 103.3155207  67.2902346  26.7779231   9.4874138  63.1086063  36.1359477
  10.4351914  63.1483555  36.0080075   9.3679523  63.2236528  37.0786691
  38.6094888  13.5535663  39.3573499  37.6575865  13.4541076  39.3722677
  38.9186086  13.0086463  40.0810528  59.6439751  10.5839007  78.1217718
  59.1279396  10.6561320  78.9247131  59.2712625  11.2440150  77.5373268
  24.9687572  15.6783050  48.2273293  25.8435067  15.9012454  48.5456800
  24.6235045  16.5007155  47.8799343  93.8691429  64.2634153  76.3105679
  93.1356112  63.6486053  76.2973547  94.3049340  64.0983963  77.1466827
  25.3639658  14.2642539  75.5040550  25.1195057  13.4126132  75.1418781
  24.6209606  14.8327868  75.3016996  38.5234189  65.2533102  52.5006771
  39.0461802  64.4531059  52.5519323  37.7598596  65.0075388  51.9783688
  25.7225998  32.2805922  65.6615257  25.9977933  32.0264094  66.5423727
  24.8146363  31.9839995  65.5993271  22.5304079  91.9468212  60.0937748
  23.1897020  91.6123772  59.4857407  22.3644876  92.8420925  59.7984838
  53.1650730   3.7247985  73.6388206  52.8472050   4.2828887  72.9290819
  53.6178049   3.0075877  73.1951189 101.6974751  27.6378226  25.1465321
 101.3121818  27.1310115  25.8613229 101.3516955  28.5222816  25.2665234
  13.4818697  93.0850697  35.6036949  14.3025494  92.9887486  35.1205373
  13.0474341  93.8317490  35.1914263  50.6554135  33.9319175  57.8058577
  50.3640755  33.1096690  57.4118185  50.8545145  33.7049048  58.7141800
   0.3301620  65.8980846  45.0860596   0.0186536  66.7723846  44.8519850
  -0.1474347  65.6799698  45.8864069 104.6863533  76.3877201  68.3785057
 104.2763362  75.7969189  69.0102243 104.1256953  77.1635389  68.3772612
   9.2126137 101.4928436  41.9512892   8.8734931 101.4084911  42.8424215
  10.0064540 102.0192337  42.0459414  35.3307316  12.1386760  67.7824259
  34.7882892  11.7157309  68.4480906  36.0176900  11.4998954  67.5919485
  18.8313973  73.1054497  64.4500780  19.4248629  72.5978422  65.0035810
  18.8753641  72.6766062  63.5954523 102.1545522  50.3483057  66.3622522
 101.4994810  50.9240580  66.7567396 102.3435948  50.7471514  65.5128908
  51.2843235  12.5932258  47.3866367  51.9654735  12.6310580  48.0580807
  51.7612823  12.4481433  46.5695095 104.3945787  49.6497154  48.2428217
 103.6504171  49.0805244  48.4389782 104.5145081  50.1695871  49.0375376
  25.3589869  73.7940836  22.6028442  25.7392526  72.9480219  22.8390765
  24.9674773  74.1158295  23.4148979  69.8737319   9.8929828  32.5120306
  69.1317876  10.1742404  31.9766402  70.0281795   8.9855426  32.2495031
  21.8845010  57.5710535  39.1744757  21.6440797  57.9030752  38.3094954
  21.9332576  58.3520412  39.7257543  42.0546731  17.8608935  66.2616539
  42.2658219  16.9411223  66.1014318  41.8138435  17.8935855  67.1874857
  97.0640544  74.4279766  42.2553968  97.4264399  73.5597038  42.4314928
  97.7474014  74.8761368  41.7569780  33.6215774   5.7832950  41.9539595
  32.7062424   5.6251090  41.7229366  33.6598093   6.7184585  42.1545362
  38.0187795   3.5579627  56.2642002  38.4825038   2.9244750  55.7165861
  37.2352575   3.0928367  56.5574265  96.9096760  75.5677700  71.3710976
  95.9640781  75.5482531  71.5183973  97.2519485  74.8608732  71.9182539
  21.1293109  12.9466098  20.7264519  20.5707022  13.1117862  21.4859962
  20.7119044  13.4289210  20.0127459  11.7458951  60.0903845  51.1330557
  11.8204355  59.4827700  50.3972054  11.6397166  60.9494734  50.7244873
  51.3067198  78.5442924  53.4892750  51.7815590  78.7351656  52.6803637
  50.9144735  79.3807173  53.7398052  74.7282468  42.3032386   9.6967680
  73.8342015  42.1071250   9.4166738  75.2807937  41.7715365   9.1238672
   0.4705726  92.2107983  61.7232370   0.7983443  92.7313519  60.9898758
  -0.4810585  92.3020935  61.6753292  40.7759380  78.1196213  65.5740499
  40.6775427  78.5613775  66.4174986  40.0797796  78.4863186  65.0289631
  37.6897449   0.2241366  78.4424543  37.8177187  -0.7242162  78.4647036
  37.8279128   0.5057471  79.3467951  20.2138996  64.9598026  57.6356268
  21.0077906  64.9358606  58.1698561  20.0664878  65.8904743  57.4672556
  15.3741002  69.8039150  16.4015043  15.3673315  69.9216890  15.4516017
  16.2687123  69.5290661  16.6024029  39.8714828  60.1599312  56.4498711
  39.1277003  59.5574284  56.4531517  40.3262615  59.9835062  57.2734499
  18.4333420  99.8648739  20.6807089  18.1857920 100.6561852  21.1590123
  19.3006814  99.6421051  21.0188365  13.3460045  99.7888565  78.3050823
  13.7025654 100.5421257  78.7759066  14.1016614  99.4046688  77.8605413
   0.9652508  77.3801661  64.7500229   0.8489961  76.6162443  65.3149462
   0.9895934  77.0207548  63.8631916  93.4491412  23.2173449   1.3568193
  94.1209547  23.8436944   1.6262323  93.4482090  23.2635648   0.4007322
  26.6807079  79.2675114  34.8260474  25.7888341  79.4864941  34.5561647
  26.8507385  79.8374176  35.5760670  92.7825991  92.6292706  29.4951892
  91.9035057  92.5776672  29.8703718  92.8974692  93.5550117  29.2806149
  48.5021830  87.8574944  58.2455540  48.0499792  88.6964130  58.1562805
  48.5613346  87.7166462  59.1904831  19.6007431  70.9796858  37.7652693
  19.7491479  70.0603580  37.9867363  19.0411258  71.3082314  38.4689140
 104.7178943  73.7966633  65.9602594 105.1615618  73.4336948  65.1936817
 105.1870440  74.6101427  66.1456776  97.4947242  99.3189144  30.6902909
  96.5448288  99.2673779  30.5841064  97.6472871 100.1872349  31.0630918
   8.8918495  64.0722036  50.9027767   8.4092510  63.8979864  51.7108488
   9.6143728  64.6390295  51.1727762  11.2558198  86.3964653  74.0381861
  10.5006945  85.9145832  73.7008286  11.4428163  85.9875965  74.8832273
  31.0954356  88.5558605  64.4733906  30.1474690  88.6645126  64.3973446
  31.3221216  87.9374695  63.7788153 104.5362950   7.8563159  37.1970344
 103.8586784   8.5222953  37.0807076 104.7969532   7.9375308  38.1144714
  63.0468973  29.3064063  77.7505732  63.6935457  29.0010207  78.3868217
  62.6603755  28.5047095  77.3982811  19.6901882  67.0014524  52.8280926
  19.6266139  67.3915672  51.9563150  18.8380921  66.5885782  52.9684496
  41.3837316   7.2664493  27.2189331  41.5538307   7.1030181  28.1466126
  40.9584933   8.1238120  27.2008157  59.4807386  77.8448105  16.9265819
  60.2025080  77.2383356  16.7608309  59.6495962  78.5835981  16.3418508
  20.8792925  92.8833199  66.9893551  20.2282810  92.3751259  66.5054560
  21.4219141  92.2254181  67.4240494  21.5521955  57.9131413  26.8908763
  22.2949505  57.8285122  27.4886942  21.6862178  58.7575054  26.4603901
   8.7839401  78.1549358  40.5976152   7.8334934  78.2553530  40.6505203
   9.0795952  78.1909466  41.5072966 107.1961818  76.2362003  56.9888258
 107.4905418  77.0913506  56.6753006 107.8246429  75.6161594  56.6189289
  12.4318266  77.3027277  58.9631128  12.2261047  78.0333757  58.3799648
  12.1090055  77.5818825  59.8199034 107.2041893   7.9020255  49.1373491
 107.9171443   8.4272712  49.5007277 106.8766904   7.3957675  49.8807764
 103.9914621  88.1460667  51.6268063 104.8248256  88.1641674  52.0973492
 103.4327142  88.7582588  52.1056080   2.5965461  89.4623280  72.0600319
   2.6278913  89.9319935  72.8934956   3.0163917  90.0540829  71.4357090
  13.0760849  90.0310421  48.1859970  13.8617551  89.5737457  48.4857178
  12.4535763  89.3319035  47.9861879  22.7188706 100.5986595  76.3081312
  21.8226981 100.9115791  76.4313745  22.6218390  99.6685505  76.1038876
 105.4440947  65.1611710  55.4337311 105.9606175  65.2415895  54.6318769
 104.5399616  65.2984285  55.1510000  34.1832038   1.4523261  24.7390747
  33.2376140   1.3282817  24.8209691  34.4112521   2.0385020  25.4606152
 100.5560951  88.5603333  39.4713449 100.6901149  88.6377048  40.4159546
 101.2399213  87.9567242  39.1810560  38.2356930  85.7264423  25.0786996
  38.0321121  86.4030457  24.4329500  38.3324814  84.9253368  24.5638275
 103.7332569 101.1814594  53.1240320 104.3195136 100.4743671  53.3934116
 103.1206672 100.7664490  52.5168037  74.2882045   6.6377776  51.6798544
  73.6993106   5.9230941  51.4376497  73.8912614   7.4173301  51.2913036
  50.7249006   5.7068198  15.6377769  50.9010931   6.5043586  16.1368990
  51.4157518   5.1001304  15.9040022  40.3715420  81.2395382  66.8164444
  41.1350250  80.9992313  66.2914896  40.7389593  81.5706921  67.6359415
  10.9592915  66.5039635  35.3683376  10.1661837  66.1435366  34.9717212
  10.9100354  66.2380362  36.2865353 102.9000728   9.9270732  10.9973699
 103.4613482   9.8107011  11.7639524 103.3467142  10.5910069  10.4720670
  23.8250160  79.7164917  33.9224577  23.5511208  79.4986582  34.8133898
  23.3990097  80.5537796  33.7388802  15.9971297  62.9086590  54.4148254
  15.6002939  63.4462214  55.1002312  16.6278124  62.3572874  54.8779249
  92.3234467  35.1510167  63.1851149  93.1944458  34.7673965  63.0830050
  92.4707286  36.0956335  63.1378126  24.1713667  56.8716764  52.5422144
  23.8872361  56.0764503  52.9929018  23.4370065  57.4777937  52.6400280
  97.7464775  82.3082161  60.0207901  98.1894694  83.1532192  59.9435568
  97.2616772  82.3663139  60.8440924  63.0474099  24.9954646  65.2031231
  62.6835497  25.5874198  64.5447683  62.6833709  24.1382926  64.9818420
  90.3677003  80.1147652  27.3236728  90.7264523  79.2278194  27.3529482
  90.9777431  80.6017113  26.7696309  50.8856185  18.8126796  31.9746542
  50.5993827  18.9016288  32.8837132  51.4933427  19.5403235  31.8426108
  11.5530109  85.1806259  49.4507790  11.4744735  85.0223541  48.5100269
  12.2235668  84.5629406  49.7424173  49.5320606  60.0598192  59.3944979
  49.2852736  59.8662567  58.4901428  49.0082359  59.4553804  59.9203253
  75.7773264   1.9433539  61.8058348  75.3457650   1.9735568  60.9519768
  76.6501769   2.3021930  61.6458654   8.3809668  34.6078444  66.7191982
   8.9686257  33.8582778  66.6241264   8.5413599  35.1384306  65.9388256
 104.3665330  67.2957325  44.8144150 103.7343160  67.3986721  45.5257082
 104.6525149  68.1876707  44.6172047  38.4827876  70.8767223  46.7237425
  39.0652561  70.3065777  47.2256422  38.1668282  70.3256845  46.0076714
  19.5373154  99.4839096  78.3017874  19.4887066  99.2233086  79.2215490
  19.9444425 100.3500271  78.3194447   0.5612344  99.3930244  83.4920788
   0.2429627  98.5617447  83.1400585  -0.1884068  99.9843979  83.4246445
  28.4261465  99.1499329  65.6037474  27.7631187  99.3638706  66.2601471
  28.3419204  99.8390675  64.9447918  85.7023303  80.4229259  26.0990572
  86.5512626  80.3136826  25.6705570  85.4046623  81.2898731  25.8233380
  66.4651786  21.8659884  11.3167650  67.3533748  21.8294055  10.9617979
  66.5088628  22.5315148  12.0033437  51.0927363   1.5473216  61.9567204
  51.4385446   2.3058169  62.4271917  50.6957503   1.0038703  62.6373768
  28.6661959  94.2281342  63.5927057  28.2512188  94.9290657  64.0954256
  28.0985093  94.1113281  62.8309202  93.9459614  65.3731489  53.1611252
  94.3351070  65.5747175  54.0121031  93.0824367  65.7851887  53.1889963
   5.2971017 100.8961105  70.5610037   5.9753668 101.3612938  70.0713205
   5.7586122 100.1676178  70.9763813  12.8451753  73.2449245  80.9028149
  12.3114657  73.1000996  80.1215267  13.4996593  72.5468636  80.8785629
  12.9895329  63.6543465  26.3478041  12.7817166  62.9375935  26.9472289
  13.4551263  63.2343626  25.6245685  61.2900384  16.2353366  59.8047352
  61.3745960  17.0242064  60.3402424  60.3701027  16.2226432  59.5405674
  56.4676913   0.6001418  30.7848620  57.2112187   0.4342406  30.2053118
  56.0910734   1.4190906  30.4628372  22.6502585  83.3979797  68.7696981
  22.0331907  84.0321827  68.4046841  22.2340703  83.0962753  69.5771599
   8.4065652  60.3716516  14.8135698   9.2864090  60.4297638  14.4411063
   7.8576344  60.0778055  14.0865469  88.6442940  84.9269581  49.9620771
  88.4394793  84.2044258  49.3685913  88.4316758  84.5897293  50.8323097
  30.8941841  78.9328432  69.6315670  30.4128051  79.6328163  69.1904974
  31.7936063  79.0260029  69.3175745  14.3200016  56.5628147  15.8559561
  14.0039241  55.7117701  15.5525506  15.1234925  56.3626051  16.3361120
  17.0821369  38.2299876  37.5528336  16.3420987  37.8357291  38.0145001
  16.6925943  38.9313984  37.0308089  30.3074336  71.1877632  84.8781776
  30.2676392  70.2780581  84.5830822  29.3969703  71.4830256  84.8676491
   6.8667281  85.4289532  33.9211154   7.6890147  85.8854294  33.7430358
   6.3564473  86.0491085  34.4419336  66.7874638  72.2138262  74.5509005
  66.8491237  73.1670904  74.4899321  65.8619325  72.0444441  74.7267628
  70.0775923   4.8151309   7.3889619  70.3154500   4.8677689   6.4632875
  70.1921938   5.7071072   7.7168066  85.3834303  17.2109263  65.4271173
  85.8725985  16.4032691  65.5840540  84.7042187  17.2144740  66.1015701
  85.9919052   4.0705401   3.1243116  85.5883591   3.5363776   2.4401647
  85.2525167   4.4449813   3.6031992  55.3343296  68.6256790  77.8737211
  55.9690380  67.9093313  77.8587818  55.8219528  69.3704367  78.2255554
   4.5858678 100.2600670  75.7359695   4.5228863  99.4861317  76.2956905
   3.8687053 100.8240509  76.0255051 103.3635570  70.7040071  78.0056238
 103.8897769  70.4469919  77.2484779 103.6558012  70.1237011  78.7085199
  10.2041753  18.8198893  86.2390709  10.3055080  18.0612414  85.6642437
  10.8402737  19.4555419  85.9111118  32.7895856  59.2214298  43.9437246
  32.8584337  58.3040810  44.2082310  32.5652862  59.6868563  44.7495174
  54.2626556   1.6696399  76.6241217  54.5827635   2.3857444  76.0755253
  53.8100441   2.1051543  77.3464155  90.6201486  58.6249161  73.4386826
  91.2597744  59.2746544  73.7301445  90.5866663  57.9857492  74.1504288
  32.6625653  17.2671454  34.8324823  32.7229883  16.6272967  34.1231370
  33.4233197  17.8347056  34.7085333  10.9914947  76.0870790  69.4935656
  11.2332928  76.0926104  70.4197073  11.7603517  76.4367342  69.0431976
  18.4563529  53.1976557  61.9715595  18.1558847  54.1062737  61.9905376
  18.1576502  52.8642321  61.1254883  20.9652400  71.1562920  64.4279718
  21.7658949  70.9812737  64.9224949  20.4654217  70.3419733  64.4854021
  46.5860987  94.6541595  40.1494646  45.8784342  95.2986813  40.1433992
  46.6666126  94.3954945  41.0675287   9.9693805  53.8427210  41.2035513
   9.7861469  52.9395199  41.4621782  10.1745677  53.7876701  40.2702236
  62.0591402  81.1335754  32.8662419  61.9097233  80.8353901  33.7634563
  62.7862740  80.5956173  32.5530219  44.9147525  20.2681201  32.4542212
  45.0110378  19.6832984  31.7025876  45.6691565  20.0708430  33.0093694
  19.6551788  94.1853809  43.3753490  20.0438166  94.8472118  43.9473391
  18.7111831  94.3167400  43.4639454  44.2113437   9.0341609  42.3178864
  43.8910880   9.9124473  42.1122742  43.9311661   8.4974044  41.5765142
  44.5335102  67.2316265  61.9451571  44.8794746  66.8653107  62.7590084
  43.9151669  66.5725708  61.6296721  99.5881103  72.0107174  47.1404457
  99.4794212  72.5713587  46.3722658 100.3122548  72.4065876  47.6253510
  31.2677573   6.0983127  70.2884960  30.9848001   5.9329169  71.1878347
  30.7075824   6.8143695  69.9890137  26.6316986  89.6211720  44.6343279
  27.3823619  90.0633717  44.2378473  25.9065104  90.2364349  44.5257616
 101.3401268 100.0673580  40.6072378 100.9485571  99.5249939  41.2918854
 102.2829429  99.9999142  40.7581663  26.3402881  12.9259150  33.0500793
  25.9658369  12.6864570  33.8978291  25.8934399  13.7381499  32.8116965
  25.8131957  83.3315086  35.8096147  25.1180768  83.5177803  36.4407611
  25.8980370  84.1383839  35.3016829  13.7479520  87.8425217  23.8858700
  13.1978834  87.6433659  23.1282473  14.5146775  88.2807159  23.5166121
  25.8848500  47.1742773  69.6050262  26.8249083  47.0705128  69.4575262
  25.7550144  46.9119883  70.5163860  10.1226175  94.3605232  50.5672264
  10.0928569  93.4400940  50.8283186  10.4215765  94.3420506  49.6580982
  73.6226892 100.7180309  83.1760502  74.5625973 100.8911133  83.2294178
  73.2132959 101.5072632  83.5306454  28.8813748  23.3323615  49.9369097
  29.6860125  23.6961787  49.5675421  28.8235744  23.7176841  50.8112192
  35.6170305  25.1193469  46.1836386  35.5259869  24.8952525  47.1097755
  35.1908161  25.9723800  46.1006021  92.8950127  19.2711490  48.4701538
  92.9903420  20.0275653  47.8913784  92.1662148  18.7748568  48.0976105
  75.4655012  20.5615275  48.5740328  76.0173329  20.7106059  49.3418169
  76.0778149  20.5453818  47.8384733   8.2667387  98.5954762  50.7319212
   7.5825089  98.2591438  50.1531792   7.9902339  99.4889164  50.9357405
  27.9748774  72.8795767  51.7923260  27.0724463  73.1841660  51.6970682
  28.3692360  73.4900761  52.4152231  94.8247842  85.2816105  17.4632227
  94.7069041  86.1954975  17.2040939  93.9346008  84.9416733  17.5540447
 104.8386915  83.1604099  45.0908947 105.3935660  82.8404522  44.3795776
 104.1403953  83.6448860  44.6505642   0.7395604  87.2992420  38.8467789
   1.5796204  87.4140167  39.2910290   0.7156223  86.3706112  38.6159039
  63.1577095   0.4400485  55.1113796  62.3056110   0.0040381  55.1187086
  62.9568537   1.3550895  54.9149656  42.2309208  76.1377811  56.7522812
  42.4267769  76.9243336  57.2614098  42.7582598  76.2287235  55.9586334
  39.8904841   4.1342776  62.1301556  39.2880680   4.1951793  62.8715181
  39.9322417   5.0248187  61.7816925   0.3990960  92.2029311   6.7164976
   0.5765867  91.2971694   6.9701368   0.5708695  92.7116115   7.5089437
  60.5063494   1.0171645  64.7824955  60.9321531   1.8732779  64.8271322
  60.8850726   0.6014007  64.0079403  52.7420028  35.7969325  79.2673159
  53.2433828  35.4675906  80.0132275  53.2238182  35.4884570  78.4998941
  45.1015874   6.9260924  33.9088774  44.8620041   6.6949122  33.0114436
  44.5421650   7.6732104  34.1212320   2.9511732  75.3723574  43.6626720
   2.4273314  75.9307766  44.2371130   2.6716244  75.6092310  42.7783775
  22.8174734  83.5907936  82.4297810  21.9846797  84.0575027  82.4995327
  23.4427547  84.2577076  82.1460819  31.4691388   6.9874423  29.1694784
  32.1669408   6.8064826  28.5397506  31.8119904   6.6696780  30.0047708
  58.0683851  86.5014362  67.0486641  58.9725018  86.2099552  66.9310236
  57.9959917  87.2839832  66.5021992  91.5950354   5.9425109  43.1274891
  91.4561232   6.8139403  42.7566147  92.5190505   5.7559722  42.9612541
  27.8201342  84.4751740  32.7163982  28.4177113  83.7637997  32.9468107
  28.1316209  84.7834873  31.8654275  97.6265232  92.6618195  30.8808160
  97.8588585  93.2740688  31.5789604  96.6890554  92.5086117  30.9987712
 101.8899910  66.5423012  79.3345928 101.2855808  65.9352684  79.7617149
 102.5527332  65.9789610  78.9350319   3.7600666  67.2975826  48.0589819
   4.0806904  66.9810772  47.2144365   2.8306794  67.0685577  48.0634356
  98.9858602  56.9834709  36.2081242  99.0383957  57.9230928  36.0332584
  98.1049482  56.7363691  35.9267569  72.1232565   5.7101100  60.5937624
  72.0464738   5.4681247  59.6708441  72.7041324   6.4709132  60.5943680
  29.9153026   9.5420974  46.8528843  29.5770665   8.8390773  47.4074936
  30.3970047  10.1105063  47.4537992  40.9293079 101.2306976  50.7500029
  40.8296633 102.0828819  51.1743689  40.4828739 100.6182957  51.3347149
  55.3558787  32.3175757  79.6317434  54.5683142  32.3489421  80.1748753
  55.0398119  32.4757617  78.7421846  75.5069145  36.4254039  74.1444778
  74.6598729  36.1588805  74.5018530  75.5136140  36.0716861  73.2550526
  15.2086329 101.2246418  29.5038986  14.9264812 101.8628120  30.1591539
  16.1390316 101.0909939  29.6848130  26.9946027  72.3860025  45.5204153
  27.8248787  72.7532148  45.8237791  26.6700912  73.0220366  44.8829317
  55.5625375  24.5249885  56.0331583  55.3658982  23.6008113  56.1863089
  56.3831767  24.6761649  56.5021229   7.2911364  66.2444782  70.1984358
   7.2076714  65.7954311  71.0396385   7.2594839  65.5427694  69.5481777
 101.4799367  63.7134314  35.5085492 101.5274559  62.7574348  35.5154777
 101.9125764  63.9806271  36.3195133  63.6563110  96.6490746  78.2129192
  63.3927107  97.5686455  78.2464838  63.1401396  96.2779236  77.4973440
  50.2775621  97.9531288  41.1782646  49.4198227  97.8921700  40.7577848
  50.2233362  97.3520660  41.9212389  56.0802086  19.0942519  51.3363600
  55.3890820  19.0225738  50.6779957  55.7355484  18.6268752  52.0972824
  27.1147442  95.4465771  42.0882893  26.8258405  96.1570740  42.6609707
  26.3108635  95.1277351  41.6779900  68.2231697  11.0889380  58.1834745
  68.4630307  11.3608401  57.2976065  67.2814544  11.2517589  58.2372665
  41.7581940  93.7647533  37.4835587  41.9156647  94.0937614  38.3685398
  42.1900845  92.9107285  37.4651480  43.3576038   9.2835372  75.0066614
  42.4775156   8.9117377  74.9479961  43.7046238   9.2191165  74.1169071
  33.7186419  15.9546798  64.6373892  33.9634744  16.4960425  65.3878641
  32.8201648  16.2164061  64.4362164   9.8888874  51.7739875   9.2639905
  10.8251858  51.6268546   9.1300661   9.8382616  52.2617537  10.0860292
  45.2889395  96.6916752  59.3127584  45.7878733  96.4945221  60.1054907
  45.7199049  96.1831093  58.6258364  47.1280146 101.4437485  49.0140963
  47.1695900 101.9863701  48.2266569  46.4620256 100.7852840  48.8163328
  15.7635792  16.9498294  61.2233829  16.5740319  16.9465869  60.7140827
  15.4638751  16.0409968  61.2023878  56.8596601  95.1366615  24.8985553
  56.8541670  94.7958660  24.0040946  57.6590490  95.6606197  24.9503231
  52.2515059  89.7917938  66.0414124  52.2396040  89.2608929  66.8378019
  51.3306379  89.8707485  65.7924080  53.9544495  23.1153338  33.6336231
  54.4640966  22.7672618  34.3652916  53.1507548  23.4440082  34.0364623
   5.6171483  79.8108482  81.7070580   5.2140653  79.0094423  82.0409775
   4.9352023  80.2170086  81.1720657  57.8383263  24.0859740  52.9656744
  57.6836332  24.0066283  53.9069510  57.8235324  25.0284617  52.7991247
  35.8018684  97.3744488  74.6371794  35.0499058  96.8993855  74.2834902
  36.5503168  97.0405197  74.1426563 102.8189669  82.9059315  64.4886255
 103.5589571  82.4169254  64.8485231 102.2861389  82.2440624  64.0478802
  24.8832011  76.7252350  58.5194016  25.7337475  76.6160345  58.9447021
  24.6694732  75.8544874  58.1842089 102.3837404  96.7637444  62.2913504
 102.4478642  97.4275208  62.9780197 103.1987635  96.8509960  61.7970276
  15.8920038  77.9820728  46.5898180  16.0848725  78.2539940  45.6925535
  16.6516495  78.2702017  47.0959377  63.1457718  31.3879054  67.4036932
  63.3517226  32.1279948  66.8326664  62.3781689  31.6738456  67.8989315
  26.9953871  89.2741394  61.2900066  26.6318560  88.4216976  61.0503864
  26.9659686  89.7833252  60.4800081   8.7639388   8.2911723  38.7412500
   9.1421302   7.5248568  38.3100104   8.0702027   8.5812800  38.1489635
  47.9787823  14.8889869  19.8246598  47.3750313  14.3405192  19.3237543
  47.6069065  15.7691043  19.7669065   2.2246970  91.3183689  56.6735744
   1.4705455  90.9721756  56.1964607   2.9840726  90.9655666  56.2097740
  11.6773880  82.4963474  51.1118317  10.8904052  82.7073956  50.6094933
  11.8221903  83.2645988  51.6641474  50.8076330  34.2605823  78.5321283
  51.3680764  34.8515075  79.0350533  50.0513121  34.7953265  78.2907677
   6.1329901  97.5672340  49.1627264   6.2016875  98.3826923  48.6662102
   5.2254546  97.5474453  49.4664049 104.5507984  95.0903702  79.0440702
 105.0919728  94.4168472  79.4560623 104.4156728  94.7754765  78.1503057
  11.7988145  94.9785328  68.6558342  10.9970033  95.1649284  68.1673813
  12.0595658  95.8244896  69.0199804   1.4865434  78.4972620  50.0897837
   2.1924171  78.6289692  50.7227325   1.8047966  77.7986670  49.5180178
  28.2961750  62.8765440  49.2367029  27.6408887  62.4869013  48.6578989
  28.6229014  62.1425438  49.7570133  50.7516416  16.1031764  62.5124073
  50.9560021  16.5573066  61.6949463  50.6207522  16.8049949  63.1500196
  85.5291430  91.3962460  64.9708128  85.5299656  90.4429817  65.0574589
  86.3953010  91.6653061  65.2767706  35.7423353  90.8698750  31.6608787
  36.6856885  90.8337307  31.8190312  35.6533813  90.7526302  30.7150602
 103.7538807  93.9650154  60.4366302 103.5284344  93.4959507  59.6332741
 104.0619649  93.2831955  61.0336590  22.4488616  87.2323799  28.9790058
  23.1045294  86.8666077  29.5727587  22.6439357  86.8328381  28.1313348
  26.2738299 101.5544796  28.9684296  25.9051418 100.7242393  28.6667562
  27.0838642 101.3085651  29.4151998  26.8121710  16.0786574  40.9545422
  27.2626068  16.5652030  41.6449118  27.2827896  16.3085692  40.1533651
  85.8951096   6.2782294  22.5771791  85.7967083   5.4077632  22.9629690
  85.1745324   6.3453967  21.9506914  44.7645058  13.9805263  42.2520494
  45.4745992  14.4740718  41.8416595  44.3538346  14.6045249  42.8505468
  24.9318743  80.8615971  38.6837935  25.2110696  80.1728344  38.0805564
  24.9381733  80.4430676  39.5446229   0.1720309  54.5074660  13.8434965
  -0.4431224  55.2209861  14.0129453   0.9991646  54.9464042  13.6449701
   6.7114413  70.7107067  53.9484739   6.6059917  70.5355120  53.0133677
   7.5024474  71.2468576  54.0039921  70.4652794  14.2100852  61.9817591
  69.6861251  13.7493461  62.2929907  71.1076435  14.0943377  62.6819038
   0.0951705  90.9937096  80.6286335   0.9166820  90.5092621  80.7102299
  -0.2654843  91.0046959  81.5152168  43.2144499  80.7356834  57.9436302
  42.9172754  81.0597229  57.0933819  44.1303444  80.4963303  57.8019285
  17.9113483  94.3086910  52.5935507  17.7229238  94.7887325  53.3999538
  18.6642313  93.7594795  52.8121042  10.9772134  88.8752174  78.6270094
  10.9100354  87.9828453  78.2873249  11.6644204  88.8274193  79.2916059
  49.7828146  22.3125213  68.2872057  50.2844866  22.9411738  67.7682114
  50.1467999  22.3857348  69.1694689   7.4514294  78.3465815  48.2748699
   7.2482562  78.5332394  49.1914463   7.4761891  77.3910093  48.2248306
  16.7893445  64.9964857  39.4505024  16.3312304  65.4278517  38.7291932
  17.5261676  64.5500231  39.0333748  59.5543726   1.1863463  46.2515545
  58.7091359   1.0886138  46.6900253  60.1224478   1.5827792  46.9121313
  11.4536822  98.0363083  69.3100023  11.1767936  98.6686611  68.6469030
  11.6669238  98.5698986  70.0755405  94.5241745   3.5477298  71.7304325
  95.1881560   3.8389533  71.1054897  95.0085314   3.0216639  72.3667431
  95.8836206  49.3587147  87.9372474  96.0781964  48.6453186  87.3294404
  96.6580542  49.9202667  87.9032587  35.5304384  95.2318668  70.8538723
  35.2747250  94.7350979  70.0766516  36.4340782  95.4968071  70.6822014
  41.8590927  82.5659084  56.3238144  42.0904922  83.3425903  55.8144474
  41.5659857  82.9111099  57.1671152  20.3501010  80.9981060  48.0142498
  20.4697537  81.1873627  47.0836067  20.3995132  81.8535328  48.4409142
   3.8909427   6.5644782  63.5531235   3.9793102   5.7486766  63.0602932
   4.7507040   6.9797175  63.4851074  61.9256886  12.3848956  35.6301880
  61.1704477  12.8151935  35.2293277  61.6999110  11.4547008  35.6289911
  12.7320969  90.7370949  30.0612640  13.0522382  91.5495110  29.6691799
  12.6903403  90.9239769  30.9991145  45.6939411  89.2576981  59.2744589
  44.9012995  89.5670986  59.7128868  45.5605888  88.3149815  59.1757345
  51.8328782   7.7960914  85.7734299  52.4234470   8.4231894  86.1908054
  51.9057568   7.0057528  86.3084793  73.4028133  14.3380969  65.1173973
  73.0049880  14.6258491  65.9390783  72.8247221  13.6435454  64.8017263
  89.0138539   8.5006946  45.2225780  88.5671671   9.1335719  44.6602869
  88.3172616   7.9216617  45.5319595  26.1495185  87.7592373  53.5253859
  26.5769362  87.9429150  52.6888418  25.8691764  86.8466568  53.4558344
  20.7603955  90.3660583  56.3437128  20.3723502  91.2377071  56.2670374
  20.1788235  89.8967457  56.9418383   9.0257478  94.5280838  82.2955990
   8.3184528  93.9287186  82.5337791   9.7946560  94.1837883  82.7499962
  45.4815622  17.1202224  57.5071478  45.5977967  17.8172152  58.1528378
  45.2417525  16.3516658  58.0248785  21.7833376  57.9324055  77.1412754
  22.5330639  58.3865404  77.5258589  21.0969281  57.9985857  77.8051186
  60.2136501   5.3222411  27.0780349  59.9732264   4.4572394  26.7460728
  59.5443424   5.9086554  26.7253613  66.6415914  13.7959044  70.9026289
  67.1854599  13.2141822  71.4337063  66.0724958  14.2350142  71.5347242
   8.8840693  86.4248753  45.6649923   8.8599437  86.7910385  46.5490627
   9.0214360  85.4869461  45.7978916   4.6743608  80.8928299  53.7179232
   5.5132622  81.2841225  53.4742641   4.8971441  80.2464390  54.3878365
  19.6281147  79.9826097  43.5752201  19.3279266  79.9101353  42.6692057
  19.9074626  79.0967894  43.8065720   9.5414525  60.1999760  26.2909460
   9.3772346  60.1888084  27.2338867   8.9270931  59.5590162  25.9332252
  56.7406758   5.4820674  17.5345159  56.2261566   5.5407660  18.3395350
  56.7947157   6.3839858  17.2185051  37.2642183  69.3622017  44.8232079
  37.4912596  68.4838152  45.1283646  36.3074493  69.3660164  44.7947502
  55.0037917   9.2089217  57.7864456  54.9578734   9.9467318  58.3945227
  54.2752524   8.6427920  58.0413198  44.1687366   6.5607398  74.8150635
  44.4036969   5.8023875  75.3497839  44.1825070   7.2978156  75.4256010
  94.4119080   4.4603007  50.4281473  93.9247473   3.8275664  50.9559345
  94.9481066   4.9378150  51.0611534  73.0993732   6.8032783  34.6399474
  72.8734811   7.5646060  35.1743460  73.1190308   7.1374457  33.7431860
   5.8844638  20.1774287  54.8327494   5.5447155  19.3262124  55.1088524
   6.6957128  19.9722195  54.3679953  18.4734809  56.0790825  51.8858528
  18.0041456  56.3905811  52.6597548  19.3986082  56.1660194  52.1156645
  64.6001546  20.0755024  43.8472319  63.9871089  20.1002216  43.1125259
  65.2171437  20.7851148  43.6683273  75.9896677  97.2605372   6.7747802
  76.3944696  96.3972909   6.6900873  75.5690657  97.4119247   5.9283710
 102.9154031  53.0754614  55.6198072 102.7586530  52.5582361  56.4098310
 102.6399563  53.9614820  55.8550358  20.7446837  49.7546148  10.1520836
  20.0608993  50.4223633  10.2048683  20.3888798  49.0087509  10.6351149
  82.4691288  47.9360437  56.3219213  83.1515543  48.5365295  56.0220242
  82.0069043  48.4209871  57.0055962  88.4473149  48.4781313  35.0990629
  87.9815666  49.1161442  35.6396627  89.0757469  48.0718327  35.6959105
  13.4320672  83.6879362   4.1098005  12.6741680  83.7184037   3.5259420
  13.4477480  82.7878608   4.4351465   8.3260429  37.4601126  76.0361862
   7.3927641  37.2614670  76.1120939   8.5557842  37.8561020  76.8768024
   8.0721259  34.5797420  38.5856414   7.4460757  34.2568588  39.2337441
   7.7930510  34.1787052  37.7625251  24.5144510  55.0451565  62.5366402
  24.1107059  54.2171383  62.2766161  24.2487025  55.1653147  63.4483242
  14.9010623  58.4260511  56.9763660  13.9755750  58.3688784  57.2139311
  15.3251684  57.7461386  57.4998999  12.9468012  57.8135967  32.0022774
  12.4780691  58.2753801  32.6974607  12.3117542  57.7458906  31.2892818
  11.2409818  62.5181484  49.5841551  11.4793611  62.9759884  48.7780619
  10.3653085  62.8427887  49.7939968  33.4496689  34.9688148  32.7076197
  32.6095200  34.9335909  32.2503018  33.3285666  35.6394839  33.3797574
  83.8899962  61.2501574  56.8940258  84.3985884  61.1963749  56.0849094
  84.5369689  61.4491987  57.5708151   5.3358491  84.1528572   1.5253049
   4.9644550  84.4196953   0.6844217   6.2828883  84.2032517   1.3956625
   6.2657923  62.2662592  56.2349319   5.9353107  62.7931833  55.5073595
   7.0959032  62.6795483  56.4722919 105.4805103  24.0500379  60.9014463
 104.7591386  23.8609171  61.5015173 105.8543385  24.8689294  61.2268639
  71.2666075  10.3796363  29.7870278  70.9386913  10.2886927  30.6816959
  71.7726914  11.1920238  29.7988462  11.3016939  28.8228869  63.5133457
  11.5771544  29.3489242  64.2641068  10.7440794  29.4090986  63.0018234
  94.9653367  64.1247749  18.4059393  94.6445743  65.0185394  18.2853937
  95.8520226  64.1378832  18.0455971  93.6715869  42.5769711  61.4307117
  93.1528954  41.8324947  61.1258459  94.5759098  42.3382092  61.2271786
   4.9032381  35.7396817  24.2001510   4.8663029  36.6643524  24.4447947
   5.2497858  35.3001451  24.9766469  17.5440609  27.9857635  42.5785542
  16.6183710  28.2263541  42.6165533  17.5701129  27.0830035  42.8956938
  74.7483651  35.2728200  51.7661667  74.1001431  35.8953929  51.4368629
  75.5389921  35.4601192  51.2601376 102.6564704  38.1472230  33.0575871
 103.2019539  37.7454901  33.7338185 103.2784275  38.4446788  32.3935676
  96.5940480  53.5542917  18.1526518  95.9721557  53.0705404  18.6962187
  96.0751836  54.2585373  17.7639997  55.6452747 101.6455480  63.9662457
  55.4572447 101.6170791  64.9043655  56.5943094 101.5348408  63.9087248
  84.0310923  66.3959551  22.0080161  84.0822498  65.4460955  21.9013238
  83.0938594  66.5796614  22.0719004  99.1430346  47.6413298  53.8538456
  98.8798909  48.1013393  54.6509504  99.9517028  47.1890831  54.0941811
  12.1595132  57.3462105  61.8568373  11.8594599  56.4617729  62.0665264
  11.9920111  57.8509474  62.6527119   4.9079734  28.7649441  64.8490524
   4.4501913  27.9250336  64.8141623   4.8906827  29.0847969  63.9470434
 106.1514082  12.8880048  55.7133722 105.6229098  12.0903695  55.6869221
 106.4182944  13.0287170  54.8049641  70.4148404  15.7751215  47.7058744
  69.5229332  15.4344618  47.6374531  70.8925454  15.1004732  48.1884527
   6.2790275  21.1982155  30.2920985   5.3869689  21.4466357  30.0497150
   6.3610083  20.2889776  30.0043535  18.3263099  54.9576235  65.2696609
  18.7898529  55.7943344  65.2340078  18.5778105  54.5802069  66.1125946
  99.8276369  53.5257721  50.1707363  98.9068769  53.6365223  50.4077339
 100.0960485  52.7246237  50.6205702  13.5956061  65.3307390  31.4755058
  13.6222923  64.4701719  31.0572481  13.9535677  65.1828098  32.3508430
 104.5091726  48.0957460  56.2934685 104.0364258  47.3012257  56.5414095
 103.9191584  48.5469484  55.6897020  23.6310935  67.5599957  46.0792446
  24.4118929  67.0077181  46.1188555  23.8300490  68.2977390  46.6557741
   2.4004373  61.5736866  53.0784321   2.0989469  61.8231249  52.2048664
   3.2911929  61.9199276  53.1323195  61.8161790   3.9483982  44.0671206
  62.2765652   3.1182098  44.1898394  61.1920659   3.7742954  43.3625650
 105.3753210  74.3139410  57.7563047 105.4605697  73.5222244  58.2874823
 106.2754802  74.6106386  57.6224613 105.9328910  21.8980050  55.6574583
 106.0669870  21.3225579  56.4105272 106.7838185  21.9218946  55.2197552
  12.7780020  61.0192394  37.9070497  12.7466369  60.0628471  37.9308295
  13.4260881  61.2209177  37.2321105  21.0226846  49.4499397  36.4969707
  21.4040232  49.2262745  37.3459625  21.3552666  48.7789869  35.9007835
  13.2328975  53.0232239  39.8220801  12.5944424  53.1490040  39.1200924
  13.6538732  53.8774204  39.9188399 100.2622716  16.9204688  47.4548149
 100.6069426  16.4575684  46.6911697  99.3426399  16.6585875  47.4987078
 104.4959937  26.8035626  12.8043008 104.5204021  27.5580335  12.2157347
 105.2318500  26.2584996  12.5256371  88.4871594  25.5453658  18.3711088
  88.6500542  26.2013865  19.0488505  88.4606032  26.0453248  17.5552845
  86.4109723  17.3705947  11.8514204  85.8080999  17.8610063  11.2926054
  87.0108477  16.9436204  11.2398040  23.9281535  45.8676386  27.9378223
  24.6466923  46.4960337  28.0089164  23.9983320  45.3330755  28.7287402
  81.8748323  70.9200764  10.2898514  82.5565616  70.3630352  10.6655908
  81.2022917  70.9669065  10.9693575  88.1073551  71.2227583  16.8276000
  87.6121060  70.8265638  17.5445306  88.2179801  70.5147648  16.1929822
 101.3196103  66.5033484  10.3368151 100.6709157  65.9464455  10.7672620
 101.9655029  66.6894150  11.0183084   4.0132585  40.3796387   0.3686325
   4.7395465  40.8020782   0.8271991   4.4235745  39.6736455  -0.1308131
  13.4986424  25.2175760  67.3929787  12.9834318  25.1331520  66.5906954
  13.2495141  26.0704732  67.7489758 100.9932874  82.6027584   8.3661300
 101.0291777  81.8717957   8.9830899 100.0587479  82.7795219   8.2583183
  67.5993125   7.1148306  38.0087423  68.5466520   7.0581734  38.1335211
  67.4679343   7.9413313  37.5441265   5.3547442  15.0322270  53.1583595
   5.6731415  15.6018221  53.8586569   4.4293368  14.8966479  53.3620071
  19.0255272  40.8551455   3.5751706  18.5540617  41.4453220   4.1630825
  18.7410295  41.1128902   2.6983243   2.4122153  45.8516312  39.2708039
   1.6434477  46.0019636  39.8209190   2.7268595  46.7292404  39.0539336
  27.7487624  91.2785476  79.4820928  27.7558154  90.3240412  79.4106531
  28.5253119  91.4855569  80.0020444  24.7774172  62.9969883  37.5683355
  24.7999191  63.1588888  36.6251945  25.6901217  62.8318739  37.8048491
  13.3220959  46.0946083  63.8420105  12.3737407  46.2185144  63.8032675
  13.6469948  46.8726969  64.2950535  81.8431775  61.1845350  27.4289060
  81.3756935  61.1699772  26.5937543  82.1717874  62.0804310  27.5038576
   8.4666598  38.3803821  17.0435870   8.3586395  37.5383425  16.6013956
   8.6910474  38.9920974  16.3423836  31.7014909  54.3838692  79.5930052
  32.1300888  54.9906540  80.1966190  31.6911030  53.5485411  80.0602818
  80.1843335  94.6272213  63.5781860  79.2882510  94.3765492  63.8027525
  80.3909745  95.3422875  64.1800261   6.9772053  38.7846255  45.4103851
   6.5359312  39.1881752  46.1578178   7.5372124  39.4774485  45.0602102
   2.3408401  65.1230145  43.6833096   1.6452098  65.3812122  44.2880106
   2.9211125  64.5709276  44.2074394  16.9677031  37.3152637  65.7374573
  17.8927314  37.1084762  65.8708477  16.8916464  37.4771118  64.7971106
 101.7560897  39.2168927  76.1464405 101.2310938  38.4204173  76.2254190
 101.1624322  39.8571467  75.7541656 105.0966943  56.1687660  47.1450186
 104.2914195  55.6629467  47.2541475 105.2764313  56.5236998  48.0156231
 103.7855400  44.4742155  52.0238924 104.4023583  44.3781471  52.7495193
 104.1577984  45.1713181  51.4837980  17.8396237  32.8859973  83.9261723
  17.7191746  33.8346601  83.9681625  18.7622440  32.7715564  83.6983395
  52.0207902   2.8754364  83.9811700  51.5825995   3.6940323  84.2138040
  52.2241994   2.4653517  84.8218178  82.3473088  32.8063703  26.6400647
  83.0157439  32.9487848  25.9698820  82.6342336  32.0179248  27.1007800
 106.6250878  35.2360249  44.1617346 105.7159945  35.3429508  43.8818264
 107.1351948  35.7104802  43.5052919   9.6056157  17.5025129  34.2926168
   9.8663825  17.9074574  33.4654212   9.1047490  18.1816959  34.7443628
  98.7587855  38.5129094  24.5632982  98.6208652  38.8071418  25.4636526
  98.1895588  39.0750647  24.0377569  18.6715853  71.0194111  15.8999121
  18.2509327  70.4437923  15.2612078  17.9810727  71.2219429  16.5311062
  17.4420261  18.7236547  55.5193329  18.0164278  19.3544269  55.9534073
  16.9283521  18.3391571  56.2296391  90.2990786  43.1847620  29.7108698
  90.6144039  44.0832376  29.8085594  89.3461088  43.2677937  29.6764231
  22.5748014  72.7086496  67.3836040  22.5246668  72.2971344  68.2463741
  22.5600863  71.9761276  66.7676306  99.1466669  42.7128410  45.4965830
  98.4879307  42.6333570  44.8066711  99.9823092  42.5969839  45.0443554
 103.3415283  55.6901741  67.4585056 102.6471500  55.6461048  66.8011427
 103.3719839  56.6123438  67.7132702  69.6788756  63.7277460  38.8837194
  69.4980566  63.0363131  39.5204735  68.8363187  63.8883734  38.4588313
   3.5540318  68.0116177  66.3461018   4.4003603  68.3615351  66.6245174
   3.3194602  68.5340405  65.5791092  67.4009625  73.8733292  35.2277994
  67.6694409  73.7078524  36.1315513  66.4442603  73.8750267  35.2586412
  17.7790654  43.9782286  66.6638803  17.4477363  43.6656237  65.8220196
  18.6585295  43.6059093  66.7283297   6.6624677  38.4306502  57.2128534
   6.6069388  38.1170154  58.1155062   7.2286832  39.2008996  57.2613335
  91.0227696  37.3622138   1.8555624  91.8281679  36.9471270   1.5468961
  90.9163026  37.0418841   2.7512723  68.8203098  92.1403194  49.9283218
  68.4033697  91.2843532  49.8297596  69.5109331  91.9972379  50.5754709
  96.6253321  57.5668430  32.8045321  96.9384829  57.2186852  31.9696951
  96.8995504  58.4839106  32.7995610 102.9158358  46.5895700  67.6063490
 102.4349485  47.1830320  68.1832218 103.0325006  47.0854950  66.7959929
   1.0282882  31.9607067  12.6718223   1.3912043  31.2155175  12.1930587
   0.1653739  31.6630244  12.9599118  36.6873527  44.6443605  60.6308746
  37.2266579  43.9452362  60.2612686  35.8369946  44.5422935  60.2034378
  90.8294110  64.7258997  51.4940834  90.6754402  64.0108633  50.8766317
  91.4141278  65.3232956  51.0277605   5.1670257  -0.2346958  82.7710575
   5.6199113   0.4332672  83.2857907   4.7555868   0.2516066  82.0565927
  36.8548560  56.7227125  32.9909372  37.8120089  56.7313719  32.9950356
  36.6081715  57.6202393  32.7677155  77.3308365  24.0418029  78.0365324
  78.2249085  23.8544989  77.7505493  77.2799293  24.9975038  78.0531073
   7.8064817  19.2596257  27.9587770   7.6836580  18.9929676  28.8698435
   8.2751101  18.5284388  27.5563049  79.0972654  79.2791700  67.6116180
  78.9689867  78.6826897  68.3491707  80.0407330  79.4398403  67.5948048
   6.7558378  29.6316338  36.0076284   7.5899887  29.7072411  36.4709926
   6.1777133  30.2514100  36.4524651   8.6686500  65.8821906  -0.1515406
   9.3865927  66.0521723   0.4582864   7.8763135  66.0007681   0.3722650
  39.7438908  46.9709873  49.2471600  40.4352951  47.2861099  49.8293066
  40.1711845  46.3081694  48.7046385   0.2770147  51.3277674  64.4803572
  -0.0327656  52.1779537  64.1681814   0.1641346  51.3657188  65.4301214
  24.4966412  27.8778172  29.3601322  25.2372670  27.6671934  29.9287653
  24.8534799  27.8270555  28.4733844   7.5675732  48.1638861  53.7766314
   7.9610234  47.4989271  53.2115984   7.0901698  48.7364054  53.1761837
  47.2842479  88.9845842  64.3530267  47.3873150  88.1031602  63.9942783
  46.8228388  89.4692891  63.6686343 105.8748251  44.1486263  30.3472495
 105.8027532  43.7864447  29.4641519 105.4721041  45.0147152  30.2845192
  72.5934521  75.7277107  43.0299091  72.4431102  76.2892246  42.2694302
  71.8426911  75.1340246  43.0414391   4.6966201  44.9677896  28.4308815
   4.4764638  45.3116417  29.2966366   5.3957093  44.3349314  28.5951996
  89.9679045  56.5415049  52.8510141  90.6827573  57.1578121  53.0103350
  89.3214373  57.0467854  52.3580551  79.0541570  41.1205244  10.6815469
  78.3512465  41.6702032  11.0279572  79.6371190  40.9788609  11.4274156
  89.5878128  46.5451384  31.9260931  90.4621140  46.4752626  32.3094320
  89.6964125  46.2412262  31.0249424  -0.0970206  26.3477921  37.2978735
   0.4900024  26.9326591  37.7770042  -0.2232702  26.7761111  36.4512134
  50.1745558  29.9799466  46.3314724  49.7852802  29.7819495  47.1832323
  50.1703024  30.9358883  46.2825775  96.1885325  35.4455280  34.3133974
  95.6757156  34.6955848  34.6147871  96.6810588  35.1128912  33.5630631
  68.8275401  60.2749157  36.8919015  67.9695336  60.1126289  37.2839713
  68.6335937  60.7199001  36.0669112  90.3888838  63.3277225  49.0151691
  90.2974574  63.6053228  48.1036806  91.2665991  62.9488659  49.0632725
  82.0640294  21.5735030  40.3343248  82.8590719  21.6825175  40.8561087
  82.0208828  20.6338596  40.1570082 104.1886474  93.5536671  37.2226167
 104.9805553  93.3810234  36.7133927 104.0675778  94.5013237  37.1632648
  22.9471970  76.8107033  49.0976286  22.1006083  77.2522306  49.0299940
  22.8232169  75.9826708  48.6337090   4.3198746  90.4247189   2.3975602
   3.8949201  89.8407364   1.7693835   5.2080637  90.0783920   2.4836367
   9.9551553  61.9311476  68.8463402  10.0190735  62.0954418  67.9055119
   9.0900099  61.5384388  68.9626646  38.9077854  35.0227618  57.7312851
  38.3098507  34.3824053  58.1168413  38.6521053  35.0647140  56.8098211
 104.2867566  81.8278217  19.2152965 104.1652180  81.6507626  20.1480937
 105.1687096  82.1947670  19.1540837  69.5882951  22.9607493  12.0222074
  69.8362729  23.4506852  11.2381822  70.2308516  22.2533042  12.0757753
  33.0585957  89.2537117  58.8736296  32.5737977  89.3892670  59.6877718
  32.8781152  88.3442116  58.6359882  19.7762918  51.0253382  24.5576406
  20.0841212  50.2133751  24.9603724  20.1385069  51.0056591  23.6718392
  23.3778143  90.8531094  10.0610578  24.2952943  90.6879425  10.2782738
  23.4122944  91.4075756   9.2815667   2.1974389  57.4056292  67.0561600
   2.5282532  56.6301584  66.6029072   2.1065620  57.1294689  67.9681396
  95.3305547  96.1085129  39.5786047  94.6085123  96.2109947  38.9586139
  94.9895899  96.4557457  40.4028654  18.5929298  51.2986183   9.9942058
  18.6746573  51.2102270   9.0446055  18.5593438  52.2432947  10.1448143
  15.0728285  37.9858351  63.0899239  14.4349611  37.2778630  62.9997349
  15.3432810  38.1803060  62.1925592  14.2847133  46.5395594  24.2443109
  13.7569702  46.5869474  25.0414753  15.0577283  47.0702028  24.4369245
  12.8138208  38.4271145  48.5503864  12.5994861  39.2247081  49.0342617
  12.7400362  38.6783910  47.6297092  40.9389114  80.2023506  23.9033294
  40.5448532  79.7825432  23.1386638  40.5586290  79.7423458  24.6516681
  15.3913474  43.8347530  60.2056599  15.0061095  42.9594374  60.2462673
  15.2956665  44.1799641  61.0933018 103.2917706  75.5049086  42.6504469
 103.8417755  76.2744188  42.5035429 103.9102633  74.7772074  42.7148390
 100.4802630  64.4357204  41.2280560 100.9900497  63.6448956  41.4039612
 101.0155628  65.1483393  41.5771437  85.5798952  45.8795977  64.0881443
  86.2743036  46.0911608  63.4642267  85.1573960  45.1026773  63.7219143
  98.1730727  38.0746651  73.8000870  97.9523556  37.4234557  73.1341743
  97.7509586  38.8788462  73.4978533   4.8612186  78.4551239  34.8103118
   5.1904511  78.1268501  35.6470156   4.0858376  78.9663410  35.0419831
  98.4741036  50.5520868  20.2981091  99.4192896  50.6676865  20.2006817
  98.0987756  50.9975052  19.5385289 107.5903587  41.8521214  25.2274513
 107.3472087  42.0451593  26.1329055 107.9040370  40.9480906  25.2512240
  48.6753464  61.6964722  15.4708397  49.3071079  62.4146509  15.5073524
  47.8708935  62.0664215  15.8344698  55.2737014  71.9099808  26.1277509
  55.8942811  71.5853119  26.7802095  54.6901242  71.1693716  25.9629035
  34.5446682  35.8112097  53.1935453  34.0157676  36.1971354  52.4952936
  34.1934776  36.1921048  53.9984179   6.3197517 100.8775997  66.2929535
   5.5447930 101.4384937  66.2603045   6.2786573 100.3650856  65.4855680
   2.7179432  73.1680393  27.9253387   2.4577777  72.4702978  27.3239207
   3.6684567  73.0805922  27.9968119 103.7697787  70.1346111  28.9371371
 103.4805716  69.2516565  28.7069488 103.4646363  70.2599525  29.8356962
   4.8534873  69.7909832  46.0235071   4.3788365  69.0728712  45.6048727
   5.4493254  70.1112175  45.3462648  10.2506626  71.1966181  61.5955448
  11.1097872  70.8916235  61.3038015   9.6315312  70.5838823  61.1987257
  16.9834328  18.4690809  25.3036666  16.0803246  18.3841717  25.6093097
  16.9225895  19.0281999  24.5291233   5.5240393  63.7372446  60.3604031
   4.9035344  63.5941744  61.0750628   6.3791442  63.5396957  60.7425070
  27.8064346  60.9080267  83.9564514  28.2054186  61.0697508  83.1015301
  28.1341004  60.0464869  84.2145538  96.1089174  42.0380497  23.2183409
  96.6904036  41.2802553  23.1562853  96.1745159  42.4610376  22.3621798
   2.0173672  51.8731499  60.0753641   2.7558577  51.2656355  60.0330544
   2.2084184  52.5294352  59.4052744 104.6788169  67.0273685  17.3756218
 105.5217634  67.4226904  17.1533740 104.8602552  66.4966059  18.1512547
   0.5484003  69.3352604  31.2859058   1.2322675  69.6875334  31.8555188
   0.7347044  69.7128010  30.4262614 106.4071816  57.1449995  49.7206783
 107.1118767  57.7889347  49.7912836 106.2621809  56.8491125  50.6193781
  17.0683420  79.1380644  65.2556133  16.6770458  78.6753416  65.9965611
  17.7247655  79.7116232  65.6510496  88.0640761  48.9029455  16.5954030
  87.6896517  48.6138248  15.7632673  88.9199869  48.4761524  16.6340744
  15.1842308  48.8558197  29.9149179  15.9362435  49.2850971  30.3228760
  15.5692196  48.2381582  29.2932153  97.6169054  73.9402866  68.1947947
  97.0268921  74.3670559  67.5735235  97.1814827  73.1157017  68.4108973
  29.6864867  61.3325024  61.7428637  30.3921127  61.9390631  61.5183496
  29.0501165  61.8695641  62.2149134   2.7389762  52.0506954  28.6074710
   3.0004683  51.1410666  28.4645629   1.8257682  52.0849562  28.3226728
  91.5109519  48.5115337  11.3251245  91.9941739  49.2735100  11.6446900
  92.1834103  47.9390001  10.9560251  33.6609125  32.5561786  54.2268753
  33.9048362  33.1897306  54.9016714  32.7971959  32.2420096  54.4943142
  18.7794697  25.3904748  44.7552872  17.8379202  25.2379060  44.6750450
  19.1817689  24.6018696  44.3912935 103.7541498  51.5164995   5.5964941
 103.6471264  51.4498472   4.6476337 104.5310957  50.9910011   5.7873905
  56.4455660   6.0650485  56.6465378  56.5217527   6.0584968  55.6923962
  56.9470700   6.8325561  56.9215965  92.5673310  62.8950596  67.6572990
  92.2713320  62.7065277  68.5478497  93.1436340  63.6534405  67.7519655
 105.1483927  56.5276146  23.1895185 104.7663055  57.4035215  23.1345415
 105.0595881  56.2849855  24.1111898  89.7558383  70.3966379  37.3031354
  90.2984266  71.1146212  37.6292181  90.2521972  70.0358772  36.5684843
   7.3868877  31.9239950  25.5258036   6.5415037  31.7080164  25.1322150
   7.5271392  31.2411427  26.1817575  39.6780300  48.8937187  39.5649910
  39.1607165  48.4619617  40.2448463  39.1977620  48.7240362  38.7545705
  97.3702614  37.0676088  50.9653854  97.2560589  37.7563667  51.6202211
  98.2669197  36.7591476  51.0961008  23.2340026  43.7093163  22.1544862
  23.3068371  43.3712959  21.2619233  24.1378689  43.8753986  22.4222040
   5.7437879  46.8834305  26.1627054   5.5946970  46.1655426  26.7780399
   4.9940303  46.8492842  25.5686259  28.4694457  76.5626669  74.2578793
  29.1253042  77.2598648  74.2578363  28.3797073  76.3183117  75.1790047
  82.1574919  58.8211441   6.4321876  81.2987773  59.2418766   6.4749438
  82.2145812  58.4836006   5.5383003   2.3113427  67.3538589  30.8796716
   1.8917063  67.0621347  30.0703287   1.7762223  68.0905724  31.1748481
  21.3110495  59.3260336  66.3586998  21.7201304  60.1750040  66.1909676
  21.9389391  58.6868811  66.0218430  88.3907942  86.6504097  43.3105564
  89.2101185  86.2270927  43.0541658  87.8139107  86.5325260  42.5558758
  13.4840012  66.0187912  28.5667419  12.6295638  65.6462955  28.3489966
  13.6382914  65.7508135  29.4726181  35.1705146  44.6914291  11.6161597
  34.5138478  44.5684195  10.9306753  35.9603333  44.2774248  11.2682891
  23.6614418  80.9125805  22.5753951  23.7530351  81.8193150  22.8680849
  22.7161360  80.7656765  22.5430131  91.6548650  48.1670570   7.1609008
  91.8473963  48.3773994   8.0746400  91.6812090  49.0110731   6.7101538
  41.4830651  26.5469401  34.2749977  41.8804791  25.7349437  33.9604187
  41.1881628  26.3412707  35.1621079  42.2959089  83.3125877  43.2089853
  41.8257236  84.0507793  43.5965824  43.2099295  83.4550476  43.4549522
   2.9016340  72.5822830  72.9486322   2.2715843  73.2760525  72.7538252
   3.2631585  72.3407030  72.0958853  92.5687770  59.4229937  70.9521246
  91.8485133  59.1281366  70.3948879  92.8157465  58.6468792  71.4549971
  27.5231989  12.5754779  58.6733103  27.7707036  13.4791797  58.8689852
  27.0677157  12.6284640  57.8330946  26.7669654  19.8883128  37.0082664
  26.2791657  19.0647900  37.0179558  27.6355147  19.6560979  37.3367882
  86.3961307  47.0710230   5.8500326  86.9852607  46.5475893   6.3933349
  86.5991537  47.9774380   6.0811734   9.4593048  79.8908234  47.7287245
   8.7228984  79.3052292  47.9048395  10.0196040  79.8098564  48.5005665
  31.7916632  69.1880131  31.2399030  31.8495083  68.9572239  30.3127432
  30.8694386  69.0593529  31.4616632   9.0047592  34.3642092  58.2797194
   9.3423086  34.1301394  59.1443014   9.7537518  34.7520208  57.8271246
  19.4550622  44.2575502  38.4984303  19.0376437  44.7085857  39.2322969
  19.8340988  44.9598932  37.9699612  11.6911674  30.7307959  35.5997181
  12.0390165  31.5553737  35.2601528  11.3922656  30.2587843  34.8224831
 104.7397424  90.4312611  36.7204785 104.9938886  91.1931324  36.1997247
 103.8517420  90.6296825  37.0176554  12.4059892  42.4278879  56.3594007
  12.4038363  43.1238651  57.0165396  12.7652609  41.6676807  56.8168354
  35.0264120  84.5039463  44.4480038  35.9419346  84.4071770  44.7100925
  34.9556303  84.0028667  43.6355162  21.9209695  20.0307584  71.0030317
  21.7816949  20.1234150  71.9455004  22.8562927  20.1942611  70.8819199
 102.5275980  51.8046236  63.9949083 101.7721109  51.9440651  63.4239244
 103.2575224  51.6548491  63.3940697  25.9325242  74.3482018  70.9073544
  26.0053587  74.9358416  71.6594219  25.5434608  74.8874664  70.2188349
  49.6406412  54.1229534  56.2973785  50.3560925  54.1642570  56.9319296
  50.0710917  53.9371872  55.4628468   5.0834233  71.3689280  34.3896151
   5.8696151  71.9149351  34.3923712   5.0607967  70.9772110  35.2626991
  10.1090193  93.0371952  66.2954235   9.9566537  93.9790058  66.2179899
   9.6950966  92.7949142  67.1237946  32.8729534  34.6159625  70.9112883
  33.2425737  33.8662004  70.4449511  32.6588035  34.2758417  71.7800140
  19.8440492  43.8525772  47.3387909  18.9729142  44.0932274  47.6541376
  20.3729272  44.6391010  47.4725723   8.3933711  64.4200134  29.2953110
   7.6346725  64.4843817  29.8753667   8.0687904  63.9490652  28.5277915
  22.1711779  58.6819696  62.2546864  22.5473642  58.3677864  63.0768824
  22.8929996  59.1347980  61.8186235 102.3911659  65.5735111  13.1824899
 102.7062969  64.6705198  13.2216287 103.1003169  66.0913944  13.5634506
  29.6929383  78.5818338  57.8935671  30.5603862  78.8686943  58.1790113
  29.6359563  77.6701880  58.1797171 101.1883823  57.1322918  34.5735765
 101.2012116  58.0215025  34.2194986 100.5162827  57.1553946  35.2547383
  13.7253404  65.9556627  34.0988898  12.8967273  65.5730104  34.3873525
  14.1408241  66.2625885  34.9047422  97.0951740  44.4546652  30.1101685
  97.9931263  44.5616293  30.4239702  96.6571705  43.9588499  30.8019423
  27.8024936  51.7830753  37.9858494  27.5893903  51.7221689  37.0546627
  28.6400414  52.2458458  38.0101085   5.5570346  78.1017208  84.0820980
   4.8767719  78.7431335  84.2871857   5.9433722  77.8828812  84.9300861
   4.5220858  44.8775578  41.1075926   5.3232837  45.0887489  41.5868759
   4.6263513  45.3145742  40.2623844  23.1673074  56.4828205  57.3791695
  23.4257841  56.4507532  58.3002520  23.8235903  55.9521341  56.9276237
  19.1968191  76.3008595  37.1425104  19.3623435  75.3605413  37.0744181
  19.2546868  76.6200686  36.2419629   6.1537617  59.5543814   2.0843785
   5.2287114  59.5751667   1.8392631   6.3230163  60.4207850   2.4544181
 101.3361637  70.2374411  36.6015887 102.1717338  70.5120754  36.9792533
 101.2296567  70.7907629  35.8278155   4.4228974  63.7357569  71.3457918
   4.4229680  64.6418619  71.0372400   3.7302443  63.7075567  72.0058441
  15.1804745  84.9629021  29.5098901  16.0750794  85.2993679  29.5618916
  14.7380126  85.5523396  28.8991356   3.0355987  23.6799216   7.6384121
   3.8670808  24.1153169   7.8262973   2.4162421  24.3963051   7.4990416
 107.8465493  54.0689421  73.6081886 107.3980176  54.9067211  73.4934139
 107.1402311  53.4316111  73.7138033  94.9294392  76.1778688  42.6508713
  95.7207565  75.6483555  42.5525713  94.2171017  75.5951548  42.3877096
 107.2817286  94.4216156  20.3210163 107.1349431  95.2844143  19.9333835
 106.8165110  93.8170052  19.7428691  56.3578145  74.1067886  34.1543674
  55.8081452  74.4135332  33.4332538  55.7831590  74.1285133  34.9195671
  11.0998368  61.1555576  45.1318979  10.5704927  61.2874556  44.3453693
  10.8632553  60.2792025  45.4356432  48.4019136  31.5578270  28.2754588
  47.8562307  32.2161770  28.7056208  48.9048910  32.0503020  27.6268339
  27.2331786  78.4453630  45.6005573  27.6741576  77.6607752  45.9264374
  26.5546346  78.6263466  46.2509823 105.2411081  37.0344615  42.2556973
 104.9585004  36.3309407  41.6713810 105.4306803  37.7690053  41.6719675
  95.7074968  73.1750202  23.1660199  96.5427605  72.8643465  22.8166676
  95.0698821  72.5212622  22.8791833  97.5491230  62.2284222  52.8012562
  97.1943704  63.0024958  53.2385111  97.6697318  62.5012922  51.8917370
 104.2067493  97.9282665  27.0195675 104.6662379  97.1537971  26.6950774
 103.9420212  97.6944828  27.9092264  98.2936965  50.2278090   9.6323127
  97.9317192  51.1087370   9.7280610  97.5741104  49.7113180   9.2694557
   5.7803822  89.9825859  62.9292679   5.4648864  90.1610947  62.0433617
   5.1177001  90.3688431  63.5018873   6.3223624  45.4157543  34.7509623
   6.3263541  45.0292158  33.8752890   7.0566046  44.9976015  35.2007008
  14.5594013  62.6351118   2.4356647  15.1748407  62.5364971   3.1621224
  13.7941051  63.0574703   2.8257543  31.4604282  48.3900023  58.0264044
  31.5822482  47.4545717  57.8640270  32.3058486  48.6867189  58.3632374
  29.8207617  57.4507856  44.4260645  30.5584359  57.8917837  44.8474741
  30.2261281  56.7952394  43.8584614   3.9811528  65.2648354  65.3590679
   3.8412336  66.1662722  65.0691319   4.1227573  64.7724295  64.5505381
  49.0016365  67.6992655  58.5154152  49.4723082  68.4620619  58.1795025
  48.0867481  67.9785490  58.5502052 104.5893435  47.6944113  38.9811707
 103.9364703  48.3802652  39.1211414 105.4005991  48.1692457  38.8005447
  88.1397240  53.9037752  43.9921045  88.4148435  54.4282770  43.2401466
  88.3953742  53.0093241  43.7666321  84.2116896  70.7752180  60.5611134
  83.3340113  71.0074520  60.2578306  84.3195240  71.2623501  61.3779974
   9.3488234  71.9409418  70.5515862   9.1460234  72.8491116  70.7759333
   8.8401461  71.7707539  69.7587967   5.9793288  38.1212187  53.9808035
   6.5697086  37.5018787  54.4098711   5.1501292  38.0255437  54.4493151
 106.5339355  34.3409705  59.7917700 105.7536474  33.8171411  59.6101522
 106.9176297  33.9371943  60.5702162 105.7713559  46.0192680  17.5254905
 106.1999718  46.3988876  18.2925665 104.9157188  46.4471197  17.4929714
 100.6303922  52.3814201  41.5656233 100.4720311  52.1905947  40.6411028
 101.5125601  52.0488358  41.7311430  29.4503284  54.7804546  23.0891776
  29.7604847  54.6868658  23.9898872  28.5190201  54.9836349  23.1764483
   1.4279975  96.0185528  50.1667690   0.8589855  96.7230892  50.4767323
   1.9355939  96.4146996  49.4585037  36.0460615  50.0384140  31.4288831
  36.0158443  50.8942795  31.0013247  36.8291688  50.0726318  31.9782495
  17.4734032  29.7187829  40.3988314  17.8655672  29.1334581  39.7508860
  17.8291368  29.4216943  41.2363386   3.9828622  73.6915445  37.6095319
   4.1758716  72.7797461  37.8277183   4.4875062  73.8593626  36.8136668
  17.8442430  72.1793890  47.6699543  17.8721941  73.0848122  47.9792452
  18.7608290  71.9041252  47.6516867   9.8391330  54.3508244  29.4621968
   8.9033657  54.1495275  29.4551134  10.2106786  53.7401533  30.0987983
   9.0514338  42.4785185  38.5548210   9.1523105  41.5559101  38.3206201
   8.7627125  42.4638081  39.4673204  38.7288284  77.6044178  34.9436569
  39.2285156  76.9388819  35.4165268  39.0517616  77.5522041  34.0440917
  14.1455197  61.1699486  78.4411907  13.7259996  60.3944492  78.8138056
  14.5832586  61.5856838  79.1840076  48.8370419  84.2412949  24.4114041
  49.6977758  84.2475700  23.9926815  48.9839792  83.8126659  25.2545619
  23.5460424  63.4733343  25.7871580  23.0558348  63.6402178  24.9821258
  23.1321931  64.0370035  26.4407945  39.1508889  87.1245956  87.9260635
  38.6358953  87.3794937  88.6915970  39.7357297  87.8667164  87.7729225
  87.8893225  49.0380812  39.5698428  87.8939573  48.0815220  39.6045852
  88.8035409  49.2766094  39.4164038  89.0666990  57.3490381  22.5837898
  88.7782196  57.1512365  21.6927886  89.9056963  57.7956247  22.4703121
  36.7841005  62.5493574  32.2761440  37.1576071  62.6380444  33.1529880
  37.5363946  62.3688698  31.7124844   0.5569547  84.7864532  75.8789635
   0.6072038  84.6549320  74.9321747  -0.3037334  85.1806164  76.0206795
  62.8605898   4.4963592  39.7746754  62.4579485   4.8311847  40.5759287
  62.8897294   5.2517646  39.1875243   5.0040197  79.3666601   4.0709743
   5.6638587  78.7076521   3.8552156   5.3953987  80.1961136   3.7970075
 103.5140372  73.5353708  50.2132511 102.8503309  73.6488056  49.5329142
 104.3346382  73.4293079  49.7320080  23.6266430  14.3632071  53.5143471
  23.9735778  14.5229762  52.6366568  23.9053830  15.1238482  54.0242004
  93.3540050  62.3458338  38.4341764  92.4143295  62.4069834  38.2624173
  93.7568812  62.8922939  37.7594113   8.9371955  72.8343821  45.7941008
   8.4235841  72.6858187  45.0001478   9.2093831  73.7501907  45.7354164
 102.8134064  32.5810051  34.7822118 102.2251705  32.4122953  34.0461755
 102.6418213  31.8657637  35.3947639  71.1333768  81.1972523  37.2579122
  71.1868111  81.1838436  36.3022995  70.3469412  81.7092323  37.4466658
   6.7640239  49.7923374  61.4616728   7.5566244  50.2654123  61.2082624
   6.0727888  50.1772213  60.9228849 100.0979678  39.6336055  55.8255339
  99.9109338  40.5245209  56.1213779  99.3263994  39.1288781  56.0827589
   3.1975460  70.3563833  69.8606062   3.8726181  70.9490299  70.1911879
   2.6453337  70.1744127  70.6209850  17.4066341  83.6795139  42.1409512
  17.4997902  84.6319866  42.1222782  18.1982219  83.3700275  42.5812149
  11.1938345  49.6675587  51.2937355  10.8038092  49.9583673  50.4693937
  11.7529893  48.9307547  51.0473680  17.0532215  30.9944558  59.4733286
  16.5548515  30.1927757  59.3146849  16.6829848  31.6315031  58.8623238
  31.8362713  68.8042307  74.0956879  32.6975965  68.9878178  73.7206554
  32.0231366  68.3130693  74.8957348  39.9345684  81.5733910  54.6300840
  39.8359299  82.3013496  54.0164137  40.6415939  81.8469143  55.2144909
  35.8328557  71.5346479  47.1251678  36.6747260  71.1933565  46.8235016
  35.8232856  71.3522673  48.0647802  84.4106428  17.2734630  47.3388767
  83.7384645  16.7867279  46.8619108  85.2216522  17.0885956  46.8652582
  53.6558755   4.5259040  36.0256147  53.1736418   4.1124194  35.3095746
  54.4272336   3.9720767  36.1461115  30.7449198  71.4653015  51.8413782
  30.1262569  70.7747507  51.6034126  30.5780840  71.6267633  52.7699947
  11.9059789  93.1680107  60.0706720  12.1203887  93.1600571  61.0035133
  11.2933791  92.4409580  59.9595165  41.7810059  99.8474407  12.4528444
  42.0577431  98.9339828  12.5252521  40.8372259  99.8004055  12.3001933
  13.7357891  70.0352144  36.8707108  14.4180334  70.0017023  37.5412703
  13.0180311  70.5158281  37.2830987  16.3069105  30.3302431  25.8577609
  16.7324448  30.8307505  26.5539241  16.0313106  30.9906840  25.2220774
   9.4600606  71.2523508  66.0306978   8.7981534  70.5624580  65.9842443
  10.2690780  70.7932663  66.2564516  28.4178662  66.3971376  54.5334530
  28.0521107  65.7879829  53.8920593  29.3656683  66.2934494  54.4488859
  27.6775002  74.7962236  17.2992611  27.5667262  73.8734913  17.5284517
  26.9091511  75.0049496  16.7679405  31.4108229  44.1838932  40.9222937
  32.0466995  44.5796871  41.5183115  30.6393433  44.0250540  41.4661884
  25.7545972  94.9699116  50.5138922  25.0086069  94.4657898  50.1889515
  26.5218854  94.4969273  50.1917362 104.7570298  83.1136227  26.9689584
 105.3098441  83.3679295  27.7078485 104.5516629  83.9382744  26.5285039
  29.2929006  37.5416303  38.2332468  29.0800428  37.1984673  37.3653984
  29.4512916  38.4746480  38.0896378  19.1770005  76.8561554  63.4974337
  19.8530090  77.3495722  63.9619541  18.8369548  76.2434864  64.1495323
  16.4134943  28.0885839  30.4360151  16.9500959  27.3628402  30.1172900
  16.7554986  28.2731915  31.3107634  89.6673374  50.3840542   5.9058350
  89.5857398  49.8865461   5.0921661  90.6074790  50.5377531   5.9993398
 105.9633430  60.0330639  75.2411461 105.4977020  60.8477354  75.0521469
 106.8469356  60.3123188  75.4809666  85.8024923  45.7363224  21.2080503
  85.9063832  46.6836405  21.2976480  84.9282471  45.5574369  21.5543556
  28.7312627  69.0486574  65.4404593  28.7596679  69.1426992  66.3926029
  27.9372430  69.5140171  65.1773977   2.2911951  59.4631863  19.7524440
   2.5396302  60.1249790  20.3978467   3.1152999  59.0369511  19.5170593
   1.2631574  54.7478914   7.8985929   1.8512449  55.5030584   7.9089600
   0.3859709  55.1280642   7.8512102  26.3770866  61.6972065  79.8678064
  26.1196828  60.7824516  79.7529221  25.9042001  62.1671581  79.1809607
 105.3821663  60.9172869  66.3417292 106.1611051  60.5660772  66.7731667
 105.4906018  60.6794071  65.4209232  20.8296514  82.2216511  75.3482580
  21.6044021  82.7041435  75.6367016  20.4926825  81.8114185  76.1447477
  19.1917479  58.0121469  65.1576090  19.8807335  58.4829426  65.6265211
  19.6567976  57.3377323  64.6625042  28.8552904  94.6977997  23.5034752
  29.6123028  94.5687008  22.9320741  28.2752848  93.9634132  23.3022165
  98.0214469  51.8931055   6.5368462  97.6338820  52.7652264   6.4631677
  98.7658350  52.0108843   7.1269697  95.4879860  78.4721470  27.5537872
  95.5076734  77.5235653  27.4271441  95.9594850  78.6140299  28.3746338
   2.8170049  77.7255392  24.4209290   2.2976410  77.3899508  25.1515937
   3.6857405  77.3448610  24.5498204  20.8389854  56.2830400  63.9829159
  20.5168581  55.5942011  63.4015656  21.5751123  55.8817959  64.4448137
  34.9148250  90.3963470  46.2363291  35.8341861  90.1379681  46.1711836
  34.4577765  89.5938969  46.4881516  60.3850746  79.0509892  63.5475922
  59.6630478  78.5465050  63.1728935  60.1192188  79.9644327  63.4418964
  14.8902071  75.7357550  61.8957615  15.4140520  75.9393644  62.6705885
  14.2789352  76.4685059  61.8205881 107.0104973  79.6040821  49.3792009
 106.3604374  79.1660929  49.9285793 107.8113016  79.0946293  49.5032930
  18.4341240  67.8573799  42.9080105  18.0011439  68.3568001  43.6003542
  17.7431571  67.6865053  42.2680092  44.6501684  61.7610931  58.9578295
  44.4084835  60.8373785  58.8902330  45.3012848  61.7876196  59.6589565
  23.7168574  31.3315201  68.6694431  24.2186666  30.5413103  68.8694191
  23.9517760  31.9466424  69.3641901  19.6797681  69.2143345  47.6818895
  19.8804390  68.4365320  47.1613264  18.7236476  69.2595768  47.6861286
  89.7285406  69.5312595   2.4988104  89.1536419  69.1278028   3.1491560
  89.2069237  70.2420855   2.1261579   8.8651550  86.8212128  61.9279623
   8.4296441  86.2525558  61.2929916   8.1651890  87.3758984  62.2723532
  19.9400175  45.6094646  41.2329674  19.3530738  45.4862785  41.9789934
  19.4546926  46.1812973  40.6382465  26.3634348  49.2738628  47.2740889
  26.4653945  49.5679951  48.1792545  26.9373631  48.5110188  47.2040415
  80.4008643  61.5376854  66.9187498  81.3175647  61.2638187  66.9485760
  80.2606718  61.8066835  66.0108852  91.3438110  97.6903152  62.2773123
  90.4343120  97.5201797  62.5224543  91.7814473  96.8451405  62.3791742
  34.3568802  57.6179504  28.4881377  33.5093093  57.9940462  28.7256336
  34.8166561  57.5181341  29.3217301  15.0172710  95.4940796  39.8715568
  15.0505126  94.6982574  39.3407083  14.0861642  95.6225014  40.0526047
  14.0210938  73.2971287  62.8899145  13.4733474  72.9199934  62.2014570
  14.4973779  74.0051079  62.4561501  37.6890727  13.6990493  77.4638367
  38.3680855  14.2875808  77.7936792  37.5140799  13.1031745  78.1922197
  49.6285959   6.0714381  47.2889662  49.6043571   5.9551757  48.2387686
  49.4708689   7.0064204  47.1580124  30.7116485  66.3986444  33.2381082
  30.7000971  65.4788399  32.9734230  30.4960108  66.8803883  32.4395776
  84.2906579   9.9335711  29.1037059  85.1592310   9.7634833  29.4682336
  83.7067135   9.3579524  29.5975828 106.7147973  40.3011179  43.6773157
 106.5980123  39.4782352  44.1521358 107.0962555  40.8973885  44.3216610
   2.9869032  58.3342552  30.7440567   2.8068238  58.9003372  31.4946270
   2.1217610  58.0879068  30.4168391  15.8529365  70.4523897  38.5767722
  15.6892061  70.6293249  39.5031190  16.3641644  69.6431494  38.5742092
  89.1510872  47.4942160  23.1618571  88.4124748  48.0610752  22.9397035
  89.4239907  47.7862263  24.0316176  39.2226815  67.1561718  57.6338482
  39.3499923  66.2187195  57.4882317  39.3953395  67.5565386  56.7817163
  33.3241415  86.0913658  36.7377687  33.8666821  85.7796669  36.0133839
  33.0667543  85.2958584  37.2037745  36.4204240  82.4732018  34.0890574
  36.3525414  82.9312038  33.2512856  36.6216445  81.5680313  33.8515639
  23.1149054  93.3266926  32.1525311  22.9244614  92.3951054  32.0424771
  23.5916519  93.5691071  31.3586950 105.2950941  68.3536673  12.4925005
 105.5609886  69.1996908  12.8527415 105.0310365  67.8405046  13.2561564
 101.6960780  95.1254082  64.1498232 100.9166853  94.6211147  63.9164448
 101.8433039  95.7001209  63.3986473   7.9776192  72.5264931   0.5225848
   7.2976178  72.9032755  -0.0358653   8.2584327  71.7375803   0.0589099
  92.8719489  99.7874928  73.9160681  92.4891202 100.4839420  74.4495773
  92.1184532  99.3282795  73.5451317   5.4784149  83.0895996  21.3173699
   6.3503033  83.1158638  20.9232211   5.6427020  83.0225563  22.2579789
  49.7834512   5.3865760  10.3989279  50.2220996   4.9775260  11.1449158
  48.9443716   4.9304240  10.3348672  82.9783161  53.1742035  71.0457974
  82.1913477  53.3135735  70.5190259  82.8537925  52.3101746  71.4384478
  94.1944520  84.0228939  58.0700636  93.2395224  83.9622211  58.0957794
  94.4970946  83.2085514  58.4719133  33.5243583  71.8409204  61.1142826
  33.9633608  71.3844109  61.8319941  32.8001595  71.2642145  60.8710003
  23.9201164  47.0058537   5.2781188  23.0742121  46.8395853   5.6940913
  24.5419168  46.4801168   5.7813030  14.9443829  93.5183620  30.7267141
  14.2743599  93.8943768  31.2976050  15.2780282  92.7645493  31.2132072
  91.5044455  61.7411327  69.8832369  92.0462326  61.0579348  70.2781200
  90.8321862  61.9231272  70.5398750  15.6850028  67.7679539  41.4004755
  14.7571969  67.6787758  41.6183138  15.8855689  68.6868286  41.5784454
  47.6745319  68.3354378  21.4616060  47.1564341  67.6926327  21.9459724
  47.5692987  68.0852461  20.5436945  45.0023794  72.0934057  61.4221478
  44.9438334  71.7180824  60.5435467  45.1712084  73.0239296  61.2743330
  95.8659796 101.5412617  46.1548185  96.7061250 101.1118221  45.9936762
  95.2588336 100.8220100  46.3288593   5.5290067  62.5614166  86.9702244
   6.3826168  62.5388145  87.4027348   4.9627429  62.0301342  87.5299644
   2.4483992  54.7834969  69.2975426   3.3857173  54.6006584  69.2324638
   2.0444037  53.9239407  69.4166374  38.3601522  80.6937981  28.3361816
  39.2917776  80.8866501  28.2307625  38.2052159  80.7682037  29.2778254
  32.5816011  98.4768677  24.6142602  32.1653080  99.3307495  24.4967055
  33.5173726  98.6505604  24.5123124  21.9809389  60.3107643  39.7344208
  22.8777361  60.6404209  39.7919703  21.4838862  61.0341597  39.3524933
  41.1120892  73.5669327  19.6108353  40.3410721  73.3512926  19.0861785
  41.8335438  73.5807371  18.9819121  35.0523639  57.6913929  54.6197367
  34.5826960  57.1993113  53.9463139  35.4134011  57.0201874  55.1988459
  15.5730653  49.6912861  44.8661947  15.8628762  50.5263138  45.2335787
  14.7353840  49.8912668  44.4484282  83.0749575  73.7555313  59.5572090
  83.7396495  73.7113571  58.8698483  83.4727279  74.2947817  60.2407455
  87.1197240  83.3138943  43.3013868  87.4760286  84.2020988  43.3207321
  87.4876158  82.9254818  42.5076485  23.6176085  49.9848652  10.6963396
  24.0169024  49.9768925   9.8264354  22.6806974  50.0867987  10.5289018
  30.3964424  79.8395014  29.0080261  30.5781746  78.9658594  29.3543768
  29.9662471  80.2984524  29.7294974 103.1125058  95.4737186  48.8908148
 103.4265734  95.4717255  47.9866076 103.0437265  96.4009190  49.1184282
  23.4164691  83.9615059  39.9040937  23.7399840  83.1052113  40.1839590
  23.0530357  84.3517303  40.6989956  47.5638660   6.7339652  20.7097507
  47.1220561   6.5094703  21.5286732  48.4518941   6.3926547  20.8153224
  59.9521494  45.1501465   8.0893707  60.3403711  45.7805967   8.6960423
  59.1920853  45.6044006   7.7257955  28.5485053  71.6865444  20.9423399
  29.1784596  72.0566940  20.3239703  29.0653276  71.0873127  21.4809012
  55.9008460   8.0748612   1.7361623  56.4357058   8.5612161   1.1087686
  56.2531523   7.1851785   1.7122442   7.7696188   8.3232158  47.4971104
   8.1918725   9.1777080  47.4089622   8.2502731   7.8901713  48.2025766
  29.0656328  44.1969442  57.6985312  28.7349820  43.4628153  58.2161760
  29.2490005  43.8198996  56.8380404  48.3426762  89.9650669  31.1468816
  47.7102613  90.0271797  30.4310441  48.7998867  90.8059502  31.1361885
  15.5973911  92.4297047  51.0161638  15.6162500  93.2788563  51.4575577
  14.6664488  92.2217369  50.9366274   5.6441200  57.0661354  53.8019991
   5.6482667  57.8787947  53.2962322   6.0982436  57.2876692  54.6149731
  21.4095020  74.9077606  45.9885931  20.9670615  75.4942513  46.6021919
  21.7422748  74.1959667  46.5352583   0.8281801  84.6092129  42.4031830
   1.3472272  84.0717506  43.0014801   0.6016331  85.3860950  42.9144144
  38.0444098  39.5858932  14.0946817  37.3226237  38.9631367  14.0084875
  37.7315044  40.2285814  14.7312915  98.2081230  23.6491715  83.8671854
  99.1440423  23.7746273  83.7105024  97.8319796  24.5255457  83.7852809
  17.5871658  87.1353817  56.6231537  16.7423975  86.7109966  56.4731884
  18.0624712  87.0202541  55.8003187  36.9248462  76.7650461  38.2405090
  37.6101637  76.1040545  38.1422019  36.1128259  76.2614775  38.2977176
  30.1546224  22.3569911  38.2178760  29.8969271  22.7446406  39.0542674
  29.7307195  22.9063647  37.5585389   0.7578630  93.6912251  59.3983507
   0.4365345  94.5136547  59.0287685   0.3236957  93.0113029  58.8831377
   4.2854437 101.3490772   6.9457376   4.2205262 100.4023266   7.0709985
   3.6016005 101.5537453   6.3080066  95.3116290  35.7072306  27.6450872
  95.7017676  35.4421020  28.4779906  94.8571352  36.5259862  27.8433442
  29.4924545  90.3057289  15.0306439  29.8706889  91.1582851  14.8154366
  29.8662090  90.0864410  15.8841383  21.2931061  86.6038036  15.0728858
  21.9856024  85.9741020  14.8725116  21.3589096  87.2607708  14.3798506
  53.2583304  22.4187797  42.0763588  52.4698695  22.7055304  41.6155577
  53.9638754  22.5373977  41.4404583  24.2549682  79.6358824  31.3148904
  24.8112750  80.3918362  31.5027308  24.2009139  79.1656590  32.1468759
  32.2888780  96.6524410  36.2302351  31.5176702  96.9409657  35.7421541
  32.9363632  97.3422146  36.0846281  17.6185763  82.4186707  33.8244081
  18.2537425  81.8403530  34.2467117  17.2829902  81.9083500  33.0874014
  13.8594091  56.4018917  22.0278716  14.0580809  55.8334637  22.7719474
  12.9175007  56.5598202  22.0918965   7.8475654  85.2416992  84.7142315
   8.5094911  85.8772945  84.9864578   8.2081956  84.8450756  83.9212132
  59.4081481   5.8212703  52.1440554  59.0255006   6.6853755  51.9919634
  59.7455152   5.5548137  51.2888241  98.0231102   6.1110824  15.1006150
  97.9680928   7.0618766  15.1965582  97.1573742   5.8516829  14.7852659
  21.8224192  54.9996614  16.5963161  21.5847802  54.3999958  15.8890963
  22.1566010  54.4312334  17.2901785  31.0869265  51.3631058  27.5579643
  30.3986478  51.9959307  27.3529267  31.5686250  51.7598915  28.2837462
  36.3193178  47.7071285  53.1390572  36.6084838  47.3502827  52.2992516
  36.0969281  48.6183786  52.9482746  95.2276151  37.5199294  68.3777142
  95.0484566  38.4206080  68.1076908  96.1713688  37.5006962  68.5364294
   0.9986340  92.5863647  54.2126322   0.3906351  91.8830872  54.4406128
   0.6716286  93.3494949  54.6890116  10.6302440  57.6681232  13.6451137
  10.0369227  57.0418406  14.0598106  10.9878254  58.1771469  14.3726158
  75.5205361  92.5358486  51.0098124  74.7129266  92.4823761  50.4987955
  75.5013220  91.7599201  51.5700006  19.0903445   0.3457206  41.2486982
  18.5902854  -0.4704625  41.2454605  18.5097273   0.9839862  40.8342934
  41.9774546   6.4830153  33.8045669  42.2043499   5.8914035  34.5220232
  41.7249735   5.9027522  33.0863857  12.3078489  67.5354767  48.6301088
  12.0547688  67.1277189  47.8019047  11.8542147  67.0218515  49.2984200
  26.4499116  61.7789030  29.2613173  26.4146042  62.7005959  29.5171714
  26.4814448  61.3012695  30.0902343  88.4739212  80.7041264  23.9069915
  88.1956689  81.0440159  23.0565310  88.1850902  79.7915411  23.9063454
  48.0687714  75.0353575  55.7555199  48.5191154  75.5776215  55.1079321
  47.3289776  74.6582842  55.2793312  11.0177787  17.9156058  40.5637121
  11.6791113  17.9049819  39.8717880  10.3228529  18.4783500  40.2222109
  11.4174116  78.8663292  39.0478158  11.3090038  78.2209492  38.3492708
  10.5366421  78.9845371  39.4034910  28.4254813  60.2678204  66.8589687
  28.8006401  60.2964687  67.7391195  27.4792004  60.2526045  67.0023346
  38.4739542  84.7000408  77.7122450  38.8243747  85.3557110  77.1093130
  38.3483982  83.9202499  77.1715069  21.9845271  77.5416136  81.4549541
  21.3300705  78.2350826  81.5387535  22.6074696  77.8768301  80.8101273
  80.2180386  98.2191753   9.9597526  80.6622028  98.6836243   9.2503631
  79.8925924  97.4159813   9.5533007 107.7012324  97.4878788  29.3392253
 108.3156800  97.7405071  30.0283289 107.8171100  96.5419197  29.2500067
  25.5098820  40.9221268   2.5246173  25.2197909  41.8307686   2.4442980
  26.2530589  40.9603024   3.1266659   9.2385471  65.0443363  42.5412941
   8.8392037  64.8085880  43.3786583   8.8374114  64.4486237  41.9084835
   0.3900339  61.2803984  48.6249876  -0.0850562  60.7415390  49.2575645
  -0.2596452  61.9087982  48.3099318   1.1592745  69.5361805  55.2722216
   1.7352793  69.0884352  55.8918762   0.2890597  69.1819525  55.4551983
  38.9669718   9.8898929  44.5188999  38.0727187  10.0721496  44.2302370
  39.2245193   9.1120093  44.0241289  17.1627796  68.3256531  47.6203156
  17.4810708  67.5154114  48.0183506  16.2095487  68.2391882  47.6305771
  43.3077478  99.2530727  44.7488976  43.6023951  98.4807396  44.2662811
  44.1157532  99.6916580  45.0153637  15.4464269  80.8829689  73.0519438
  15.1169860  81.7636681  73.2310343  14.7279966  80.4471207  72.5935507
  30.5948758  69.0251303   3.0823845  30.1719522  68.2765722   2.6616341
  29.8693323  69.5722771   3.3831316   9.1408533  83.6734009  46.2147379
  10.0472498  83.6934853  46.5217781   8.6211377  83.8933086  46.9878912
  39.1302800  80.2432823  47.8389883  38.6534572  80.5585194  48.6067724
  40.0446892  80.4621220  48.0184221  14.4519174  75.0167513  52.3390293
  13.8732338  74.3556738  51.9591188  15.1829195  74.5157623  52.7007961
  91.3208095  74.9521494  44.9202824  91.6613666  75.5738401  44.2770481
  90.4968445  75.3398800  45.2152061  93.9849572  70.1391888  33.5969281
  94.9139718  70.2824163  33.7776184  93.5694818  70.9772730  33.7999582
  34.4355798  65.7731771   1.6963886  34.3992281  66.6276217   2.1263140
  34.8192573  65.1911402   2.3523274  13.9946508  46.8670750  80.4219818
  14.8657584  47.0111799  80.7916164  13.7350619  46.0058355  80.7492542
  39.3907499  62.6280451  23.3123732  39.5924354  61.9798851  23.9872384
  39.4165850  62.1355915  22.4919748  26.1128902  77.2562361  37.5312543
  26.9009209  77.2846031  38.0738735  26.4191794  76.9426441  36.6803265
  67.1980429  85.9560680  34.6904707  66.4737225  86.0216141  35.3127980
  67.4607420  86.8628216  34.5323181 107.1380242  34.5934139  83.7973118
 107.2295602  33.8082062  83.2575872 106.2289604  34.8656307  83.6718839
  66.3021787   1.6411441  15.4083645  65.5843600   1.8563693  16.0038877
  66.5722950   0.7601302  15.6673717  17.8294539  73.0949211  69.5763111
  17.7531826  72.9409981  70.5179691  17.4780869  72.3003578  69.1745043
  19.8797417  97.7853870  42.7415848  20.4589868  97.6698971  41.9883442
  20.4611421  97.7371216  43.5004520  31.0696244  74.3582916  50.8455992
  31.0125542  73.4052801  50.9145164  31.8041921  74.5118999  50.2514219
  29.0224981  38.7415123  64.7721434  28.7831426  38.8763499  63.8552141
  28.2816696  39.0915012  65.2670288  20.7321382  81.6534233  32.0613480
  20.5882931  80.7144642  31.9434881  21.3042855  81.7139149  32.8263450
 106.5795141  94.3403530  31.4708352 106.9057355  95.1604271  31.8413615
 105.7603614  94.1756535  31.9378400   8.9734662  90.5983543  56.5369272
   9.6998310  91.0241222  56.0815716   8.3372962  90.4079151  55.8475399
  11.1657393  91.8223572  55.5177736  11.5524578  92.6588917  55.7764053
  11.9153011  91.2717819  55.2913809  72.0061954   0.1094859  67.1430063
  72.5089558  -0.1796205  67.9045010  72.5172575   0.8323424  66.7789602
  48.4997368  96.0649967  36.8390203  47.5491953  96.1398411  36.7547345
  48.6284733  95.4193592  37.5338650   7.0439655  86.3571262  41.0059595
   7.0902061  85.6536484  41.6534328   6.3777018  86.0661697  40.3833294
  30.7554197  71.5871143  42.1140385  30.2031827  70.8053446  42.1240711
  30.8646965  71.8150282  43.0372620  45.9364232   2.8161471  60.8728027
  45.0876953   2.7967780  61.3149786  45.8412262   2.2021239  60.1446915
  22.3621559  85.2822495  42.0034218  21.9269776  86.1297894  41.9110632
  22.8697252  85.3603935  42.8111935  22.4897190   1.3990539  12.1711791
  22.1267720   1.9341796  11.4653885  22.0472570   0.5548041  12.0834327
 103.2157831  63.5996914  28.6487651 103.7693338  64.0821123  28.0346942
 102.3511366  63.5939550  28.2381749  97.6754908  94.2661762  40.5343819
  98.4033094  93.7702560  40.9093237  96.9774811  93.6205578  40.4239464
  95.3788058  74.0858555  66.3261890  94.7598795  73.3868742  66.5373421
  95.0099007  74.8657513  66.7408037   1.7656109  44.3500233  47.3567247
   2.3434640  45.0858688  47.1546030   1.9767420  44.1212893  48.2618952
  10.2721977  98.8111782  14.6415246  10.2715027  98.2138824  15.3895009
  11.1824179  99.0970993  14.5641851  12.3097861  85.4714584  31.2424517
  12.9224348  85.9079075  30.6505013  11.5439534  85.2847099  30.6994462
  10.8683622  87.2787571   5.8493716  11.0206592  87.6638508   4.9863896
  11.6026938  87.5852489   6.3813955  21.4572811  77.1821499  12.6305699
  21.6840506  76.2578773  12.7331841  22.2652316  77.6514912  12.8383362
   0.0715249  48.1806946  75.6350040   0.5881904  48.9567089  75.8520126
   0.6430017  47.4441004  75.8519697   0.8734237  73.3853149  47.1540260
   1.0710578  72.7275562  47.8207541   0.8738685  74.2160320  47.6295710
  20.5737543  54.0800381   8.3806098  20.8029246  54.8610735   7.8769225
  19.7341919  53.7984705   8.0171734  10.9940398  60.0791454  80.3516197
  11.4171028  60.4125834  81.1428642  11.6540468  59.5170212  79.9458647
  17.2849226  50.8019876  29.5483327  16.4981937  51.1554766  29.1332030
  17.7205098  50.3075361  28.8540626  21.5960097  78.0426550  37.6338696
  20.8750963  77.4280262  37.4969530  21.1762166  78.8317299  37.9764652
  12.0741737  83.9391518  67.0879793  12.3966539  84.2473793  66.2410831
  11.5118301  84.6471405  67.4022293  35.5977607  85.3437424  60.5812454
  34.9210739  85.2145672  61.2458086  35.1680994  85.8597469  59.8990679
   1.3625360   4.1983542  37.6606560   0.4330195   4.4200343  37.7162337
   1.5879977   3.8895252  38.5381651  99.7609244  64.2636919  54.2710638
  99.2085699  64.6570063  54.9466705  99.8129002  63.3389235  54.5125866
  14.7771255  37.3847424  78.7205988  13.8219587  37.4010597  78.6603999
  14.9589912  37.4413715  79.6586549  39.1439915  83.6059856  52.9619932
  39.2524505  84.5447826  53.1140709  39.6531582  83.4311676  52.1705294
   7.0292989  39.2958580  82.3261702   6.0889761  39.4725548  82.3544752
   7.4370471  40.1605068  82.3748195   7.4382430  53.3303070  29.3717885
   7.0340067  52.8832102  30.1153803   7.1622300  52.8230429  28.6084199
  42.8430414  75.3505564  37.9527926  41.9806862  75.2697992  37.5452948
  43.4250212  74.8470259  37.3835945  16.7317104  70.7148790  21.6724324
  15.7982576  70.6135798  21.4863253  17.1602607  70.5826855  20.8267951
  57.8172859  26.7774241  40.7696676  58.3801206  26.1965411  41.2815523
  57.9985245  26.5451472  39.8589349  88.0720337   1.9394629  46.5959215
  87.7949866   1.5995543  47.4467659  87.2785529   2.3212951  46.2206411
  87.5449999   6.7027991  56.6255903  88.3334311   6.3411181  56.2208700
  87.8063305   6.8997996  57.5251055   8.8434952  77.5486898   6.3856876
   9.5236874  77.1210432   6.9059640   8.9803797  78.4842062   6.5350378
  58.3239989  48.7548358  23.3914453  57.7594285  48.0335814  23.1134492
  58.7512104  48.4324080  24.1850263  76.4319094   0.3110450  54.9398613
  76.3006838  -0.4831559  55.4577875  76.9760045   0.8709567  55.4936504
  18.9407039  86.2175655  42.6048660  19.3181837  86.0547447  41.7404413
  19.1744256  87.1247673  42.8012753  36.3522561   0.1691382  38.0745888
  36.7021500   1.0570662  38.1479716  36.8995906  -0.3531987  38.6609530
 101.0823296  76.0832977  63.1491899 100.8663050  76.4885759  62.3093557
 100.3189246  75.5452824  63.3589077  59.7235044   0.7596820   8.0732113
  59.0854271   0.5219882   8.7459612  60.4090770   1.2290614   8.5485065
  10.4978633  77.2055531  54.7210503  10.6193554  76.6402531  53.9582157
   9.6404660  76.9588804  55.0678301  31.7885089  50.5722141  22.8170800
  31.4293122  50.9127474  23.6363769  31.0352087  50.5195951  22.2288609
   1.8159470  93.4116650  49.2461395   1.6274019  92.8806114  50.0198698
   1.7301144  94.3155193  49.5492840  73.3822130  12.8216969  70.8752483
  72.9913910  12.8429972  70.0017291  72.9128609  13.4976278  71.3641816
   1.1350114  92.5726414  64.4000101   0.2782714  92.1844673  64.5776320
   1.1495930  92.6968288  63.4510136  10.1052308  82.2456837  59.2802191
  10.6312788  81.9092560  60.0057030  10.6069589  82.9887199  58.9449692
 104.0158774  63.4908104  47.7210617 103.3620123  62.8764153  47.3875809
 103.5542322  63.9892769  48.3953381  26.0113645  78.9730644  50.2980661
  25.5582404  79.8159790  50.2779818  25.5207944  78.4525156  50.9341526
  91.6204218  96.5281296  56.2246752  91.7001752  96.0714149  55.3872490
  91.0310869  97.2602081  56.0430622  51.2699223  68.4414864  63.6962891
  50.8418655  68.3364391  64.5459747  50.5843449  68.2474422  63.0570984
  25.3479433  57.1409035  29.7036123  24.6689415  57.7285576  29.3721700
  26.1710501  57.5685787  29.4673562 101.5411337  10.9657615  40.1646566
 100.6336363  10.7816737  39.9221945 101.7720946  11.7428725  39.6557498
  25.5344558  56.1571789   4.6692187  25.3305578  56.6683769   5.4523754
  24.6812654  55.8804274   4.3349949 106.8577863  67.8669930  54.6156931
 106.2858912  67.3130703  55.1470518 106.2784676  68.2435322  53.9532423
  37.2972178  78.7023020  22.3433852  38.2269025  78.8033390  22.5476098
  36.9488811  78.1791687  23.0653477  23.7945151  73.5754538  36.3101006
  24.0685105  72.6921511  36.0632491  24.5390773  73.9301968  36.7959118
  24.8491764  69.2655849  19.1032135  25.5400825  68.9481449  18.5217404
  24.6285200  70.1323080  18.7621367  45.3526545  45.9822226  29.9290109
  45.9008121  45.3849649  29.4200492  45.5676174  45.7862568  30.8409429
  39.0154910  56.0477734  59.2316151  38.9290380  55.3371906  58.5961342
  39.7346067  55.7738256  59.8008728  96.5265099  99.4863605  19.4826078
  95.6589298  99.3376541  19.1065466  96.8689076  98.6082268  19.6495795
   2.0434974  41.5765476  42.5178242   2.4044344  41.4199781  43.3904266
   2.0115732  40.7098532  42.1127844  35.5563348  15.8721774  62.5671673
  34.8436596  16.0166305  63.1896257  36.1458896  15.2652495  63.0147076
  22.3572159  68.9133692  13.1729567  22.3259425  69.7432947  13.6488557
  23.2822299  68.7960577  12.9565811  11.3949943  65.9713650  51.0568714
  11.6058779  66.3746595  51.8989563  11.8976319  65.1567984  51.0488605
   2.7427283  82.9532051  52.5224876   3.3565181  82.2830582  52.8231573
   2.2584909  82.5329208  51.8117762  13.7801123  41.0406208  43.8687706
  12.8873014  40.9332180  44.1967773  13.7040508  41.6993666  43.1784773
  42.0898485  53.6388111  53.8189983  41.8849230  52.8844738  53.2665348
  41.4688396  54.3131447  53.5435820 102.2353617  40.5332565  46.1777210
 102.0149432  41.4566469  46.3002157 103.1892757  40.5231094  46.0991287
  64.6679052   9.3380969  23.9379883  65.2086028  10.0807231  23.6689472
  65.2768191   8.6006492  23.9783239  11.9788539  43.9395809  50.1272726
  12.4377728  44.7176981  50.4437542  11.0587358  44.1035318  50.3339911
 101.4174090  66.6598129  37.8322005 101.6480754  66.7572451  36.9083333
 101.1980490  67.5462723  38.1190753  31.6431093  62.7169895  68.6737776
  30.9744430  62.9433155  68.0273294  32.0402503  61.9140196  68.3365107
  35.8934999  70.6833792  38.3040094  36.0981560  69.9752188  37.6933885
  35.0894284  71.0718918  37.9594016  16.5756357  98.9152431   6.6255087
  16.4419854  98.5558987   5.7484430  17.4525094  98.6221600   6.8733591
  93.1891946  52.4539423  25.6868505  94.1007535  52.6460791  25.4669142
  93.2233397  52.1283579  26.5863299  24.7460198  69.9695063  62.0757055
  24.3348837  69.8410606  62.9305172  24.5284367  70.8709097  61.8383026
  31.8628979  76.9367266  47.9009914  32.2443771  76.0784864  48.0857182
  32.0506287  77.4556398  48.6831188 105.1755686  86.7288399   6.1389333
 104.9900238  85.9885502   5.5612016 104.5288799  86.6530609   6.8405616
  20.5767584  45.2233696  19.9850619  21.3358474  44.8277855  20.4134679
  20.1360703  44.4908714  19.5543969  32.5699019  93.1790352  11.7620897
  33.0535436  92.9502583  12.5558054  32.8915071  92.5663757  11.1006892
  17.8878951  74.9887943  23.7341952  17.5859499  75.3465271  22.8992772
  18.7851489  75.3104115  23.8221002 104.2486991  94.1727734  11.5559769
 104.3233053  93.3458233  12.0322347 104.0656353  94.8236847  12.2334933
  26.0587978  91.5062046  49.2188120  25.4533792  90.8188820  48.9408064
  26.2114453  91.3298225  50.1471519  19.6038520  68.7648630  28.1732798
  19.5338678  69.2597866  27.3569536  20.2843666  68.1140757  28.0012226
   2.4313319  69.5758390  13.6539519   3.1773812  70.1750517  13.6296988
   2.2101426  69.5062160  14.5826387   8.9030373  79.6756315  58.8958979
   9.4264418  78.8922691  58.7267160   9.5386803  80.3308010  59.1838980
  28.9108539  69.0849400  31.7660236  28.6391711  68.5963535  32.5430059
  28.1362557  69.0906715  31.2037110   8.0307323  55.5042219  11.2583756
   8.6210507  54.7605753  11.3798308   7.2687596  55.1347637  10.8121347
  43.7200161   4.6467059  42.7441216  43.9001181   5.2407687  43.4727430
  43.2496317   3.9145225  43.1427050 105.9208452  61.3668680  29.5126319
 105.2716668  61.8966579  29.9753642 106.4830772  61.0186481  30.2046347
  32.6130598  -0.0828225  38.8806462  32.8899800  -0.5143506  39.6889353
  33.0415898   0.7726901  38.9069343  64.0737963  59.7387028   1.2538904
  64.5873499  58.9474010   1.0916317  63.8768721  60.0795364   0.3813735
  35.5733589  35.5312961  46.2515116  35.5092928  34.8486655  46.9194555
  36.4527899  35.8927195  46.3619995  61.2607296   5.3003543  62.6123857
  61.4950260   6.2278979  62.6440239  61.2550124   5.0864547  61.6794109
  85.4594811  17.9750197  21.5313697  84.9622258  18.1850665  22.3218417
  84.9660166  18.3861678  20.8216667  26.9677782  84.8974323  63.3903217
  27.5758886  85.5741596  63.0928755  26.1065578  85.3127766  63.3453369
  57.2716045  83.8249207  65.7681799  56.8780661  82.9882431  66.0158300
  56.9965458  84.4317341  66.4554596  24.4392705  76.5156889  40.4230785
  24.8124337  76.8184996  39.5952559  24.5743728  75.5681133  40.4143047
  17.4497807  79.3787003  72.9751825  17.1721280  78.6382866  73.5145569
  16.7639184  80.0350094  73.0980062  31.3716289  24.9510329  14.3607819
  32.2668113  24.7949355  14.6616375  31.4592894  25.6267684  13.6885238
  15.5714571  86.8969727  20.1308894  15.2507722  86.8307304  19.2314422
  14.7790527  86.9036102  20.6678104   3.7424454  67.0399380  13.4922767
   4.2448622  67.4186611  12.7709043   3.0357996  67.6667833  13.6470258
  13.6293403  28.1141649  86.7999735  13.8755456  27.8956925  85.9011486
  12.6782552  28.0080782  86.8203090  50.3346491  69.9429703  32.6749158
  51.1571217  69.5108938  32.4445295  50.5039310  70.3403378  33.5291243
   8.1093031  97.6404381  57.9021978   8.9037710  97.6767921  57.3695326
   7.6988459  98.4963226  57.7788115  36.6232371  77.0621061  57.6128531
  36.5803385  77.2497129  58.5505056  37.3699665  76.4703512  57.5209093
  11.9484031  76.5705204  41.7446375  11.5094018  77.3031044  41.3123989
  12.6375949  76.3100338  41.1335802  53.9235993   7.4504989  65.1934099
  53.9480265   8.3867591  65.3910160  54.8295566   7.1598571  65.2982903
  38.9889717  88.3294201  54.3903780  38.4221077  88.5241699  53.6440754
  38.4265065  88.4480190  55.1557493  46.2809229  98.7209034  28.6290050
  47.1379852  98.7731171  29.0520239  46.2316275  97.8242588  28.2975960
  21.7460108  90.5621719  21.8065691  21.4726400  90.7295799  20.9046412
  22.5735855  90.0886631  21.7220402  29.3246412  89.0795231  39.8816037
  29.8439598  89.7520638  39.4408941  29.5610976  88.2651329  39.4376493
  27.1522244  26.5083926  65.5809069  26.2971087  26.2024444  65.8832455
  27.0856067  27.4630683  65.6002617  38.4277463  87.6172829  45.2569914
  38.2134652  86.6975498  45.1007700  37.8306794  88.1023979  44.6874285
   8.8224757  73.1098938  16.4757633   8.5063988  73.2650280  17.3658550
   9.6095932  73.6497784  16.4036095  56.6709852 100.7556629  69.1747379
  57.5565338 100.4150295  69.3012762  56.1022043 100.0998020  69.5779419
   1.7079175  88.7395954  22.2376513   1.9742879  88.9229774  23.1385684
   2.5250354  88.5341549  21.7833972  38.4087014  73.1432676  61.6275406
  38.8065767  72.3595524  62.0066357  38.3459306  72.9513454  60.6918859
  90.0796851   1.6935103  72.3833084  89.3396290   1.6516917  71.7776680
  90.5973156   2.4385016  72.0778942  71.1813211  82.1919823  53.0546427
  70.3466845  81.9121552  53.4305525  71.8382692  81.6688156  53.5139418
  75.2918013  19.2188781  39.4239402  75.0888546  20.0581401  39.0107965
  74.7315439  18.5878318  38.9721489  51.6077741  23.6891883  34.8348832
  50.9127065  23.0978530  35.1237321  51.6363569  24.3711131  35.5060005
  13.7217700  56.7407417  51.0040236  13.2813847  57.4201632  50.4934549
  14.0971708  56.1535549  50.3478861  86.9400986  24.5344394   7.2129959
  87.7817591  24.5381778   7.6688802  86.4930924  23.7544864   7.5417578
  80.0044727  69.7851086   8.2202041  80.4540920  69.9326468   9.0522569
  79.7263288  70.6571960   7.9403311  68.6715340 101.1162370  60.0660747
  68.8644337 100.3296607  60.5762952  69.5235681 101.4040511  59.7383088
  20.9391570  89.4780922  29.6814060  20.0005364  89.3050671  29.6087146
  21.3536286  88.6388302  29.4812012  42.2108078  97.1125412  35.0183558
  42.7033520  96.5162659  35.5823445  42.4369240  96.8420792  34.1284370
  41.9696474  85.0622177  50.9225607  41.2271547  84.7742844  50.3914976
  42.4967718  84.2727280  51.0453367  25.7891321  42.6539660   9.9956870
  25.2702093  43.4566116  10.0477588  25.3866172  42.1541786   9.2854583
  21.7854357  82.6138306  26.9466710  21.3654041  83.0208302  27.7043962
  21.4484882  83.1017399  26.1952472  49.5270109  89.5421696  71.5429783
  50.1954937  90.2212238  71.4521170  49.7119331  89.1357994  72.3896742
  46.0500145  86.1282635  35.6319165  46.3085461  85.2829361  35.9990788
  45.1640654  85.9841061  35.2994251  15.9996426  90.2804852  69.7353268
  15.3629363  90.9825802  69.8691368  15.5690515  89.6792793  69.1275644
  40.8016253  82.5703335  33.0653858  41.6553640  82.7119064  33.4744358
  40.3482437  81.9712734  33.6585116 104.1983851  10.8029502   6.8745434
 103.2816561  10.8071750   7.1499032 104.3256815   9.9406569   6.4789766
  92.0938436  66.1028433  23.4882116  91.2132696  66.3158655  23.1792760
  92.1821002  66.5843439  24.3107653  23.1379843  82.8385448  16.2454665
  23.0482316  82.4115372  15.3935027  22.2401619  82.9246616  16.5659809
  19.1399765  77.4977064  34.5731568  19.8188496  76.9774008  34.1434526
  18.3193457  77.0707369  34.3271971  28.6024714 100.9860229  19.0416384
  29.2940187 101.3572979  18.4937799  29.0682006 100.4583263  19.6903777
  35.8108601   2.0813411  28.5387039  36.1913380   1.2033122  28.5616779
  35.3821424   2.1789210  29.3889475  12.0427688  15.7624953  35.5702686
  11.6551288  15.3516143  36.3430190  11.3183697  16.2370913  35.1625514
  65.3104981   8.5460608  29.4639897  65.3788336   7.5912993  29.4632411
  65.7477077   8.8181060  28.6571026  81.0317381  37.2557967  52.8569031
  81.0430487  37.6604693  53.7242842  80.3753003  36.5624469  52.9246330
  11.0969639  73.4922218  60.1645994  10.3800797  74.1025257  59.9918699
  10.6897247  72.7762032  60.6521463  53.3694458  77.5323820  46.2200737
  53.6971617  76.6723347  46.4830494  53.2735825  78.0137062  47.0418787
  76.2469395   1.7168277  27.9374599  75.7424839   0.9581130  28.2309175
  76.5035113   1.5015738  27.0407605  45.8797550  88.6950493  29.1432619
  45.2408504  89.2788315  28.7343168  45.5711365  88.5954380  30.0438499
  25.2918553  91.7264462  54.1828346  24.6406651  91.4581585  54.8310661
  24.9108219  92.4994755  53.7663317  69.8512173  83.4089184  87.9357624
  69.2814970  83.9259911  88.5052299  70.6095886  83.9719868  87.7806282
  46.5997382  31.5698760  39.8481607  47.3305198  32.1877139  39.8265791
  46.9962057  30.7390254  40.1103210 104.5994099   7.8786605  55.1439047
 105.4582175   7.7701610  54.7353506 104.4694050   7.0738452  55.6455040
  31.9198465  82.6782513  15.4596913  32.2568035  82.5098515  16.3396537
  31.2343812  82.0216942  15.3359902  21.7431808  70.1006269  55.5145407
  22.4364614  70.7540274  55.6076097  22.0757675  69.4906569  54.8560953
  68.9377244  20.7551234  46.0227203  69.1260108  19.9158996  46.4428282
  68.0419715  20.9611171  46.2899733  33.2502174  54.8357058  40.5665350
  33.7315917  54.6403217  41.3704872  33.9307618  54.9857330  39.9103475
  18.2524121  63.3040524  16.7155564  19.1053581  63.6982727  16.5330601
  17.8864408  63.1143951  15.8516526  52.8598221  31.7668479  25.9281731
  53.4524818  31.0155909  25.9037328  52.0105024  31.4104789  25.6676221
  31.8655801  81.2891006  50.6185150  31.4422250  81.4164257  51.4675093
  32.7179003  81.7151070  50.7096004  98.0966077  72.0162106  70.8819723
  98.9926283  72.2404957  70.6308270  97.6388888  71.8916559  70.0505829
  87.7928933   9.0869468  49.6802759  87.7987488   8.1417029  49.5296049
  88.5449131   9.4129508  49.1858912  60.3613567  95.4611015  74.2661238
  60.2490711  94.9485874  73.4655285  59.4741154  95.5662823  74.6095896
  10.2874529  77.4993181  36.6752052   9.6950352  78.1988621  36.9507170
  10.4359019  77.6640368  35.7440424  99.7093527  81.4838123  54.4110537
  99.3133281  81.5757751  55.2776194  99.1744713  82.0384789  53.8431835
  27.0602202  83.3453941  43.0816650  27.7192235  82.7208138  43.3847284
  26.2360692  82.8598118  43.1165552  45.0830269  85.5469036  26.0852957
  44.2673826  85.7101440  26.5589070  45.1332712  84.5935154  26.0163617
  70.0569352   4.5154040  37.0165706  69.2829808   4.4773333  36.4546323
  69.9331220   5.3061908  37.5415111   3.7981054  59.1310692  37.7651167
   3.5782406  60.0384808  37.5541735   3.0230412  58.7952995  38.2154107
  20.1991105  88.9376736  26.5825367  20.9252620  89.5351410  26.7613125
  20.1710534  88.8737011  25.6278872  37.2196889  70.9471273  54.9282885
  37.7418065  71.1713934  55.6985664  37.7327728  71.2718391  54.1883326
 105.8293411  72.6577806  76.6518593 105.6091147  73.5892868  76.6574335
 106.0215447  72.4625921  75.7346916  80.4292365  19.3832623  87.1004133
  81.0801490  19.2412458  86.4131167  79.5987572  19.4624888  86.6310957
  64.0427121  15.0555270  80.6256008  64.6269687  14.6667808  81.2765694
  63.8817676  15.9424823  80.9475422  58.6756786  11.4792483  49.3477249
  58.0008515  10.8167308  49.1996956  59.4488581  10.9792941  49.6093798
  26.8839407  88.0505943  34.9006677  27.5169373  87.5328350  35.3981423
  26.8500638  88.8910007  35.3576016  17.1355653  85.9222221  48.4634876
  17.4093246  85.7509613  49.3645763  17.7714658  86.5587425  48.1368399
  75.1176127   1.5582889  69.9316788  74.4613060   1.3621276  70.6002712
  75.0194033   2.4961799  69.7675419   1.3679759  36.2459503  84.1631871
   2.0858900  35.6514679  84.3809560   0.6553999  35.6697594  83.8866418
  41.3966084  75.7026100  50.6546450  41.0181904  74.8247194  50.7030249
  40.6447744  76.2807035  50.5251074  99.2698463  21.5654026  87.5712656
  99.5036801  21.8672787  88.4490038  98.3407696  21.3437353  87.6338177
   4.9294323  81.8405342  13.1086159   5.6659043  81.3788795  13.5095096
   5.1618069  81.9033432  12.1821761  86.8449887   6.9710868  45.4773712
  86.5964182   6.4335006  46.2293339  86.0372122   7.0647662  44.9724388
  47.7490091  71.4717770  57.2493982  46.8043566  71.3686180  57.1344042
  47.8902960  71.3533449  58.1886768  61.2579060  66.5874624  49.0683699
  61.7374706  65.8098125  49.3538809  61.9378138  67.2401094  48.9009905
  67.3250341  81.0073471  59.0948582  67.9489660  81.5376759  59.5905304
  67.7901649  80.1886463  58.9227772  39.7642364  12.3204177  42.2180033
  39.0069445  11.7995589  41.9507027  39.3876531  13.1238692  42.5770092
  60.7399750  92.8182220  61.2109327  60.5547047  93.7509727  61.1019897
  61.6810417  92.7410126  61.0538912  95.8445911  89.7267818  60.7231474
  96.0508804  89.9802303  61.6228342  96.4260809  88.9880753  60.5430937
  18.6583114  85.4019356  45.0223446  18.7026680  85.7887363  44.1479015
  19.5374846  85.5208397  45.3817177  45.7379510   2.3575633  38.9639425
  46.6205331   2.1614974  38.6495590  45.8715888   2.7328055  39.8343277
  55.3304378  39.6477638  83.7747541  55.9214775  39.6811806  83.0225664
  55.8801738  39.8836647  84.5219922  17.4647474  97.4162674  60.5873108
  18.0057716  98.1936646  60.4488230  18.0913913  96.6946125  60.6398630
  96.7242901  43.0796630  20.7639295  97.6583831  43.0652816  20.5553800
  96.4994590  44.0096576  20.7920915  56.2330159   4.9348014  60.3511572
  56.3967141   4.8068183  59.4167805  55.7650217   5.7683413  60.4003620
  40.9915257  98.4625435  15.8926594  41.1818027  97.8034592  16.5602183
  40.2122116  98.1324863  15.4454875  63.3676100  97.1435928  16.7979562
  63.0446482  96.3477707  16.3753390  63.8787699  96.8283939  17.5433409
  40.5209637  91.7473507  50.5306196  40.5487585  92.3573780  51.2677288
  41.3698578  91.8520641  50.1009178  41.0193443  82.7087021  40.7617092
  40.1111794  82.8107548  41.0464096  41.5268326  82.7142525  41.5732908
  83.6926707   5.7388347  48.8479900  83.7135800   6.5589087  49.3412161
  83.3404168   5.9830230  47.9921103  30.2467847  80.0562859  55.5951405
  29.9873400  79.4876671  56.3201189  30.6633806  80.8076096  56.0172701
  23.9517164  90.0524330  28.2759213  23.4528136  90.6843281  27.7582002
  23.8382077  90.3417587  29.1812611  74.3954881   0.5171721  46.5854311
  74.0617116   1.4114612  46.5141821  75.0479134   0.4487842  45.8883667
  47.4513849   8.1210750  58.9870977  46.5336188   7.8612464  59.0672636
  47.4183401   9.0152781  58.6471796  84.5681771  10.8318179  14.5053077
  83.9209898  10.2714103  14.0771484  84.5016058  11.6688674  14.0457928
  84.0257577  65.8836848   4.7343236  83.3812837  65.2089793   4.5206720
  83.8341097  66.1190707   5.6421262   9.6780348  93.2925129  34.3022156
   9.7004914  92.4030304  33.9492917   8.9391220  93.2901764  34.9106860
  80.6537636   4.3240970  40.7032728  81.4733513   4.8172038  40.7401371
  80.6650122   3.9047950  39.8428679  34.3905067  61.1776829  11.6202080
  33.8287449  61.1448526  12.3945320  33.8833380  61.6732025  10.9771919
   7.6258862  67.1961546  39.3235612   7.6705366  68.1521940  39.3387270
   7.1855515  66.9639492  40.1411295  98.2007019  82.5218773  23.8292694
  97.6345722  81.7655563  23.6752796  97.5968925  83.2598019  23.9136267
  51.3055182  99.8422337  28.9077425  50.7172823 100.3609467  29.4565105
  52.0175076  99.5870113  29.4944024   0.9950602  62.7040768  22.7919316
   0.7559521  61.7802572  22.8668857   1.6233686  62.8470516  23.4997582
  59.5359977  11.5657943  86.7681980  58.7954744  10.9627669  86.8331623
  59.2998918  12.1590941  86.0551167  40.6510162  82.7682304  22.4512959
  41.3344240  83.4376049  22.4848557  41.0344791  82.0119572  22.8954101
  18.2945669  98.2657051  38.3787870  19.1092646  98.7071896  38.6187744
  18.0221486  97.8147125  39.1779304  63.3422955  11.3622992  25.9812546
  63.0820855  12.2540992  25.7505751  62.5740942  10.8285563  25.7782269
  76.7877396  15.6487029  63.8456869  75.8539422  15.7859271  63.6862373
  76.9622715  14.7709792  63.5060120  30.6945515  95.5712128  62.1178246
  30.6793237  96.5262794  62.1798515  30.1293826  95.2757931  62.8316450
  32.8003263  78.2756233  58.0921412  33.6858034  78.1391144  58.4290791
  32.7878308  77.8100109  57.2559118  57.1113881  10.6490272  53.5711050
  57.0469221  11.1614936  52.7652121  56.3004645  10.8405345  54.0422344
  41.5618601   6.9284671  78.0917120  41.0972347   6.5719359  77.3345852
  40.8730226   7.1136897  78.7300110 100.0768336  14.8614924  37.9499626
  99.2642888  14.5902007  37.5228786 100.5003222  15.4385989  37.3144746
   8.4606850  82.9536152  33.4176517   7.8351426  83.6639977  33.2752204
   9.3168521  83.3812809  33.4001112  83.1331023  29.2285865   8.0979747
  83.3640440  28.7639277   7.2936177  82.2847804  28.8638823   8.3501148
 102.8143887  80.8466244  78.6591196 103.1879596  81.7167664  78.7988758
 103.5111390  80.2427292  78.9161873 107.5691401  66.5031004  57.0383501
 108.3691885  66.4636755  56.5143251 107.0745450  65.7256269  56.7792273
  10.1598895  90.7421875  39.1078401  10.4648995  90.8977222  38.2139683
   9.4954085  90.0589943  39.0187049  35.5754733  78.7193680  50.6330585
  35.2133083  77.8816891  50.3443289  35.2468562  79.3544579  49.9967384
  29.7378016  74.1995764  53.3916092  30.1767635  74.0089083  54.2205763
  30.4198456  74.0908337  52.7288723  22.1790099  71.0503864  40.9064198
  21.3952684  70.6118345  41.2375546  21.8937278  71.9458532  40.7248020
  26.5631572  92.8130375  86.5438084  26.2416498  92.3451267  87.3144715
  26.5308372  93.7365185  86.7935388  51.9870718   4.2246669  26.6224313
  52.1210822   3.4304278  27.1395850  52.4360343   4.0504401  25.7952023
  31.3135648  83.5649300  30.5320930  31.2449956  84.5165443  30.4548502
  32.0493889  83.4254169  31.1281872  69.3135357  52.8404522   8.4888315
  69.0881348  53.7610149   8.3547056  69.0712309  52.6645470   9.3979943
  62.0517238  20.2434867  61.2372303  62.5008567  20.9922355  61.6295099
  61.9473299  20.4824393  60.3162336  51.0785198  96.2566090  54.8285675
  51.9079971  95.8274555  54.6187592  51.3313818  97.1208858  55.1531172
  37.9049349  50.6198788  62.1949005  37.3495817  50.4830170  61.4273834
  38.4455299  51.3763857  61.9675446  80.7504138   6.9025462  54.5523357
  80.7562932   7.8591578  54.5192432  80.3878840   6.6949027  55.4135513
  35.5273914  86.1994076  26.9923615  35.7213283  85.3623867  27.4142790
  34.7935009  86.0087872  26.4081550  37.8559113  96.0343933  69.3216324
  37.4813128  95.8362961  68.4633398  38.7945366  96.1261177  69.1579151
  96.3572463   5.8769076  47.7107191  95.7707366   5.2280372  47.3218727
  95.8027514   6.3681930  48.3168602 107.5762471  30.1819747  23.3560038
 107.8664406  31.0783904  23.5246754 107.3253258  29.8455756  24.2162991
  39.5227599  82.9759979  72.8709412  38.6079955  82.6982594  72.9188585
  39.4942093  83.8166618  72.4140978  68.3089972  80.4710293  25.7944751
  68.6133766  81.0769653  25.1188779  68.7214518  79.6365976  25.5712533
  53.9431906  95.2556705  82.5603867  53.1706762  95.1029968  82.0161915
  54.5234585  95.7819176  82.0103073  67.7046665  15.1471465  21.8195367
  68.6046442  14.8272841  21.7566252  67.3158630  14.9369376  20.9704924
  81.8501170  25.4199253  87.6529104  82.5412782  24.8979174  88.0603847
  81.1114611  25.3534781  88.2580579  60.9350499  26.1081260  36.1148143
  60.8460601  25.2046340  36.4181733  61.5068992  26.0485881  35.3495169
   6.2765664  70.3682327  28.0076718   6.0037130  69.4771099  28.2260418
   7.0356607  70.2530050  27.4360681  62.8786850  86.4904785  61.3098812
  62.3335075  86.8440151  62.0127535  63.7754202  86.5880966  61.6301441
  92.1100720  17.4436324  59.3925238  91.6475638  18.2792132  59.3282843
  91.5727433  16.9173472  59.9845839  30.3529954  86.7663765  19.9130738
  30.0220633  86.9120312  19.0267909  30.6060123  85.8433056  19.9255669
   9.6133512  88.7816143  35.2348590   9.0646946  88.7282181  36.0173917
   9.5539248  87.9113007  34.8408389  40.0544691  92.0151711  15.7828665
  40.8691263  92.5082874  15.8798480  39.4517279  92.4238396  16.4040947
  20.7795143  66.1088991  36.9602752  21.7199540  66.2208319  37.0991111
  20.7141423  65.6459332  36.1250377  64.6836710  93.1020927  45.3108740
  64.6944523  93.4391499  44.4150448  64.1768169  92.2919655  45.2558804
  12.8070223  91.4481449  50.6664467  13.1964433  90.7547569  51.1991644
  12.7680182  91.0790253  49.7841406  54.7530317  91.8435478  33.3760047
  54.8658562  92.7717781  33.1713533  55.5840492  91.4402199  33.1250525
   0.3937893  99.1596603  55.3386927  -0.5080459  99.4475651  55.4802275
   0.8340813  99.3335247  56.1706448  25.9765100  45.4888725  65.1657772
  26.8926072  45.3225803  65.3879166  26.0144901  45.9820843  64.3463087
  36.1559677  72.0588160   9.0698731  35.7235312  71.9617176   9.9182838
  35.5303741  72.5495863   8.5369503  62.3603185   1.7676490  52.2092438
  62.6725729   2.4352687  52.8199959  63.1179937   1.5752070  51.6568613
  43.9177704  88.4611702  22.5250745  43.8395882  89.3344498  22.9091406
  44.8558378  88.3509064  22.3698139  34.0417886  95.1662445  43.5713291
  33.1713700  94.7757053  43.6492968  33.9742064  95.7536221  42.8185606
  55.2158260  82.3387814  17.6421022  54.4448090  82.2664452  17.0794868
  55.7571220  83.0070877  17.2218645 100.6555899   3.8117354  12.9629493
 100.0791749   4.2438167  12.3326480 101.2519034   3.2913249  12.4246013
  25.2539301  90.3566551  63.2287598  25.4364109  89.8683167  64.0315485
  25.6250787  89.8171329  62.5306225  75.1319218  79.4902658  60.3208780
  74.9452639  79.2562437  59.4116926  75.1314306  78.6548758  60.7881641
  32.1805024  94.7507095  31.1541343  32.8889537  94.1869640  31.4648080
  32.0480037  94.4887924  30.2430511  35.7695532  75.1733398  49.7556782
  36.2630129  74.3637371  49.6242285  35.9742165  75.4355288  50.6532335
  40.3594351  99.4074535  57.2762775  40.4271698  98.8191700  58.0283213
  39.9842167  98.8660908  56.5817451  99.1355761  10.6681292  43.4652472
  99.3450936  10.9038680  44.3690014  98.1789073  10.6530421  43.4372950
  77.8604659  21.6319697  68.7942743  77.7742299  21.5773337  67.8425312
  77.0207556  21.3175052  69.1292906  52.2187789   1.8628543  28.2285833
  51.3043173   1.5946334  28.3182740  52.7165051   1.1608642  28.6477542
  97.0268564  71.3735294  36.5655446  97.7079002  70.7019186  36.5287852
  96.9293396  71.6656113  35.6592274  53.7653931   1.0503428  55.9921217
  53.4818848   0.2786868  56.4824295  53.6026569   0.8251994  55.0761175
  51.6908932  86.8024826  10.3767478  50.8541298  87.2449493  10.2343428
  52.3482990  87.4862957  10.2484941   1.6244952  46.5753494  87.6746379
   1.5315548  46.8578087  86.7647975   1.8677370  47.3705708  88.1486491
  43.6155749  48.5463340   4.5963174  43.6407232  47.8309829   3.9608079
  42.7441693  48.4881312   4.9881059  11.9175029  91.0301018  64.4048643
  11.8720210  90.2237797  63.8910580  11.0054541  91.3038063  64.5022821
   0.5704812  98.8034344  42.2882271   1.0853864  98.0265522  42.0701361
   1.1969399  99.5258713  42.2450352  83.7882861   2.7385562  22.4312592
  83.7915905   3.3453124  23.1715703  82.8950890   2.7821010  22.0898819
  76.1197957  26.5418189  10.8434486  75.2674206  26.9728511  10.7809937
  76.5049561  26.8882220  11.6483617  52.7582979  92.8099632  18.3282590
  52.8124905  91.9440556  18.7326038  53.6623764  93.1240082  18.3126259
  35.6521130  87.4294567  48.8970137  35.2097106  87.6138115  49.7255802
  35.0013471  87.6374149  48.2265759  90.8413987  78.2742596  64.7704363
  91.5326802  78.7128401  64.2744446  90.0729350  78.3193779  64.2015266
  46.5559435  84.0035439  54.1380644  46.6950226  84.4683647  54.9631834
  47.0973492  83.2176113  54.2117119  93.1306656  21.3162177  45.9978819
  92.6837595  21.7946570  45.2995920  93.0177792  21.8646663  46.7742157
  31.1483550  49.0131950  32.7289534  31.6704583  48.7715626  33.4939742
  30.3803205  48.4436655  32.7735472  38.2451987  72.0981264  36.0391378
  37.9485703  71.1894274  35.9890127  37.6928091  72.4935436  36.7134809
  41.0355997  82.7721786  78.5533857  41.9180346  83.1392860  78.6060238
  40.7679844  82.9209995  77.6464844  51.9145441  97.8600979  24.7093177
  52.2391844  98.5703373  25.2628493  52.5614548  97.1620178  24.8114538
  26.8161416  50.3899813  35.1387501  27.5834107  50.8070374  34.7468424
  26.0877347  50.9687281  34.9135566  11.6629660  51.9422007  28.2528758
  11.2865663  52.2520065  29.0766311  12.0069063  51.0729456  28.4586406
  56.6706371  75.9988880  70.9300327  57.2973490  76.5814829  71.3590431
  55.8188725  76.2688160  71.2733603   0.3399026  92.1636868  51.1937571
  -0.5472017  92.1137524  51.5498209   0.9003881  92.2742367  51.9617844
  42.8221130  85.3724957   3.1838933  43.2000923  84.5625019   3.5263529
  43.5787249  85.9034348   2.9351515  17.1726620  70.3325415  12.1863437
  16.9001901  69.5359325  11.7309237  18.1061995  70.4128933  11.9906795
  24.0427637  77.5180721  74.2571783  24.6163654  77.5607109  75.0222921
  24.3598628  78.2135963  73.6810493  88.1397351   9.5729011  81.0099888
  87.8128680  10.4173129  81.3203812  88.5927495   9.7774547  80.1919651
  47.7193642  80.8867645  22.9015517  48.6649227  81.0168648  22.8292990
  47.3514891  81.3979149  22.1807027  62.4461889  74.4104290  58.6174059
  62.9312325  75.2355623  58.6065054  61.5444279  74.6652508  58.8126755
  69.5721467   0.6917136  48.6505938  69.4345911   0.9764235  47.7471256
  68.7833413   0.1949161  48.8678885  34.8020744  84.5933151  53.9469719
  35.2663827  84.3237591  53.1545115  34.8860383  83.8463116  54.5395613
 105.4477627  85.4318810  64.6016693 105.8929403  85.4595947  65.4485941
 105.5848051  84.5379162  64.2881918  40.6246185  64.2491913  26.4659810
  41.3528204  63.6281729  26.4831066  39.9336910  63.8221455  26.9724226
  42.4706268  88.7017727  48.4908915  43.0661869  88.0142212  48.7889194
  43.0298710  89.4701862  48.3767986  74.0533304 101.2975693  45.8903027
  74.3399382 101.1622143  44.9871016  73.3424234 101.9350052  45.8230162
  33.9500451 100.3527355  41.2431908  33.7850618  99.9665546  40.3830338
  33.7614179 101.2840462  41.1277771  54.2047453  84.3843842  30.1988506
  54.3276262  84.5921612  31.1251116  53.9308596  85.2113438  29.8021722
  44.4106770  80.6017685  70.7921362  45.2839708  80.2180099  70.7126045
  44.5111752  81.2920380  71.4476252  66.7147883   7.8667682  66.3682652
  67.0199092   7.9549830  67.2712326  67.5164374   7.8440707  65.8456993
  84.2718752  17.2542136  59.5988369  84.6861704  16.5843814  59.0548468
  83.6927422  16.7642158  60.1825666  68.7209090   1.0111468  40.5262089
  69.0308364   1.3100570  39.6713257  68.4162577   1.8069690  40.9622002
  14.8326770  22.9966491  23.9636350  14.0199653  22.9229873  23.4633303
  14.7617237  23.8387435  24.4131589  63.0713042  22.5117438  45.0683641
  62.8948172  21.7202990  45.5769777  62.7621969  23.2273429  45.6238842
  23.3655334  80.9186268  44.3764067  23.5348153  79.9817467  44.2772675
  23.2369280  81.2347317  43.4821081  85.5584963  15.9073394  57.4665642
  86.1461934  15.2285140  57.7982855  86.1274441  16.4942687  56.9685221
  84.3310412   6.2745517  33.5804558  84.2375859   6.7235606  32.7402878
  83.4894904   5.8383983  33.7138462  93.7711962  23.8327258  28.5214210
  94.0773352  23.2850402  29.2443013  93.5397299  23.2110923  27.8313279
  65.7505496  17.4078887  43.6660290  65.1955565  16.7416137  44.0713644
  65.3702029  18.2399886  43.9474106  89.7900840  22.9402958  88.2624155
  90.5551477  22.7532850  88.8064160  90.0657113  22.7116285  87.3747377
  73.2538756   7.4912208  65.1092863  72.9434165   6.9591659  64.3766451
  72.7171834   8.2830470  65.0745964  30.5986285  88.5570621  22.1038723
  30.9211183  88.4802628  23.0018330  30.4799843  87.6526165  21.8138170
  69.8093184  26.4446109  74.0784502  69.4818672  27.0619529  73.4243059
  69.7619136  25.5913012  73.6473560  50.6020697  31.3688319  77.5950813
  50.6491574  32.2302382  78.0098057  49.8418208  31.4230292  77.0160151
  89.8398789  14.7966998  22.3229361  89.3668135  14.9328177  21.5020132
  89.3494996  14.1071361  22.7704501  99.2459544  28.7305873  13.3821285
  98.6311968  28.8169997  12.6535416  99.0155800  29.4451278  13.9759243
  78.2353075   5.7198470  41.1995077  77.8197535   5.2622455  41.9303608
  79.0945490   5.3064673  41.1155462  86.3192654  82.8176498  75.5563450
  86.1761379  82.3142338  74.7548962  86.6205502  82.1711349  76.1946869
  67.3830732   8.9581817  78.0804396  68.2463583   8.5496180  78.0168200
  67.3333891   9.5332282  77.3168421  58.6335516  93.1500435  34.9664283
  58.5532284  93.6686420  35.7669544  58.5275936  93.7850285  34.2580533
  53.8635540  97.8056526  14.0262020  54.3764210  98.3754349  13.4530139
  54.3543959  97.7879715  14.8477829  49.3955231  80.6698036  49.4276953
  48.7006760  80.0891495  49.7379494  49.1826153  81.5222836  49.8074007
  64.2154503  85.9286213  35.5493689  64.3343973  84.9885464  35.6847668
  63.2704353  86.0631847  35.6205893  86.8442496   4.5827239  72.7545309
  86.4760741   5.4662364  72.7638674  87.2169360   4.4878047  71.8779898
  44.1279364  91.9086838  31.2540579  43.8865566  91.8150997  30.3325319
  43.5362673  92.5822544  31.5894103  79.1095456  30.2815288  28.7799525
  80.0026759  30.5723613  28.9642501  78.7181004  31.0052627  28.2908630
  62.9823049  33.0092471   9.6659428  63.6964115  32.3719733   9.6785188
  62.3844203  32.6857322   8.9920706  41.4552975  65.9818172  52.7741003
  42.4075460  65.9492445  52.6824665  41.2395620  65.2160311  53.3063269
  14.6063817 100.8048058  64.5641851  15.0715351 100.1106834  64.0972137
  14.1289258 100.3488541  65.2572775   5.6616157  86.6246223  48.7944317
   5.1427531  85.8603001  48.5437775   5.5026466  86.7246819  49.7330189
  31.2775239   8.9215033  63.4800816  31.0932212   8.3022540  64.1863346
  31.7484023   9.6376555  63.9062738   4.1435138  19.1533988  40.5942726
   4.3629877  18.4528201  41.2084818   4.6048299  18.9191287  39.7889543
  60.2967008   7.0246928  36.1776090  59.7065052   7.1581691  36.9192886
  61.0854157   6.6446155  36.5645242  87.8079605  91.4037037  35.7019830
  88.5114765  92.0087528  35.4669785  87.6396656  91.5800095  36.6276312
  76.8553400  91.9895363   0.8310876  77.2072315  91.3863564   1.4857481
  75.9278917  92.0701885   1.0537245  48.3605099  86.7523670  14.3664801
  49.2916107  86.8105507  14.1522515  48.0135965  86.1046982  13.7529600
 102.3403176  25.2341216  10.8374727 102.3835143  26.1404937  11.1422098
 102.9443177  25.2018207  10.0955999 102.4791487  15.6396239  26.8162704
 101.7947348  15.1093047  26.4081383 102.8318604  16.1678451  26.1001635
  73.9004803  88.2359982  60.6887722  74.2980576  87.4179173  60.9869480
  74.3117189  88.4072971  59.8415565  43.6074062   0.6226390  39.6143532
  43.8653960   0.2499621  40.4574347  44.3188461   1.2223571  39.3898177
  50.0669765  89.4548893  24.9203825  50.5593920  89.0370560  25.6269097
  50.3417540  90.3714275  24.9464130  96.1617812  23.5043185  16.2806606
  95.2369507  23.7508433  16.2688220  96.5157994  23.9396804  17.0561385
  18.2712615  85.4087067  50.9479713  18.7027538  86.2444401  50.7701921
  17.8487575  85.5332947  51.7977953   1.0070221   5.1841777  59.1584396
   1.7297022   5.4213469  59.7395802   0.6101886   6.0208266  58.9159822
  69.0342911  11.4237731  13.8330936  69.6479376  11.3349956  14.5623326
  69.5604762  11.2437671  13.0540180  73.0072268  12.4788039  40.2295303
  72.6415952  13.1869166  39.6993184  72.5370439  12.5351279  41.0613871
 106.0854491  12.3868316  62.7940178 106.9475850  12.6549380  63.1119347
 106.2675818  11.6790717  62.1758509  54.2696857  84.9094677  33.0185437
  53.3872700  84.5385551  33.0181694  54.1542101  85.8019733  33.3446217
  64.1071018  11.1165374  56.1089325  63.5249384  10.4272597  56.4286518
  64.4611677  10.7701629  55.2898502  73.8281568   4.1058009  53.7816191
  73.1670817   4.6028846  53.2998276  74.6400484   4.2545360  53.2969093
  47.4616385  94.0698910   5.8014464  46.5162039  94.2059898   5.7392824
  47.7103806  94.4894695   6.6250420  81.2794723  80.4663406  83.2295686
  80.7765939  81.1084591  82.7285319  80.6248053  79.8444782  83.5472452
  83.6844119   8.9221614  36.4864278  83.3692225   8.0694144  36.7859554
  84.6322735   8.8857310  36.6147184  81.6459942  97.4939251  41.3999748
  80.7343674  97.7769375  41.4711761  81.7939472  96.9634438  42.1828747
  59.1944965  -0.2521188  44.0925884  58.7150463   0.3833049  43.5610008
  59.2545875   0.1552909  44.9566698  67.7038916  24.5923560  66.4761925
  67.0904358  24.1391509  65.8978176  67.8425654  25.4427093  66.0591793
  58.3470583  95.5246830  35.9986162  57.4453783  95.6867409  36.2759995
  58.6766672  96.3855171  35.7406235  47.4571832  29.4423716  55.9609509
  47.7640220  29.1862147  55.0912046  46.5257784  29.6278613  55.8413267
  58.6602100   5.5438655  43.1422806  58.7585171   5.0375026  43.9486074
  59.1747721   5.0635760  42.4936056  27.4226761  85.2452087  56.5001345
  26.7512035  85.9265804  56.5332174  26.9309783  84.4282627  56.4161444
  50.9556743  26.0134643  63.1413794  50.2546867  25.9970324  63.7929773
  50.7919641  26.8080848  62.6334429  21.7342925  65.7089567  19.1787529
  21.5621495  66.4550543  19.7531521  22.5998521  65.3975725  19.4434822
  94.7793873   5.8444064  57.8911638  95.3620537   5.4463046  57.2444439
  93.8985785   5.6274836  57.5856304  38.2345835  20.1594489  46.5782642
  37.9060600  19.5254367  47.2157001  37.7609909  20.9670108  46.7777491
  36.6315699  89.1428852  40.7582998  36.2297392  89.8437405  40.2449226
  37.1675777  89.5985413  41.4073801  32.6645041  78.7879086  19.3800998
  32.1336341  77.9914284  19.3856430  32.2330451  79.3589020  18.7444592
 106.0146006   7.0944636   3.7825409 106.5896376   6.5587943   3.2360813
 105.4564007   7.5592177   3.1591168  78.1602868  13.2913917  77.4613953
  78.5776814  12.6364177  76.9019079  77.2492560  13.3111518  77.1683693
  36.9664717  78.4158659  25.5733895  36.5815592  78.8229084  26.3495278
  37.8645086  78.7463474  25.5500484  62.8562546  69.6112299  61.1499310
  62.7973890  69.5227480  62.1012163  63.0144501  70.5441523  61.0054922
  90.0357628  97.1854019  51.6089964  89.2434216  97.2677612  52.1396971
  89.7148132  96.9978714  50.7269192  51.4079857  95.2525902  29.0631413
  52.1235418  95.0024033  28.4786606  51.7615509  95.1239777  29.9433017
  48.1218386  81.0951519  66.2152386  48.4212971  80.9004116  65.3271866
  47.2302723  81.4240932  66.1006165 104.0437373   9.4374698  42.4465895
 104.7874077   9.3149035  43.0366373 103.5739621  10.1898520  42.8064156
   1.2599826  79.7438533   9.9336130   0.6365681  79.3286425   9.3376428
   0.7130718  80.2163417  10.5612070  57.8847059  19.1465037  73.8408327
  57.8649004  19.7986834  73.1404734  57.9306181  18.3063262  73.3845139
  35.9214722  26.5026610  42.9845810  35.7406329  26.7112201  42.0680475
  36.7651016  26.9182914  43.1628418  52.8224516  98.6103725  19.1865969
  53.7724495  98.5356236  19.0963221  52.6571608  98.4538555  20.1163340
 101.1384686  30.9974902   1.5644573 101.7294320  30.2650207   1.7390396
 101.0469969  31.4380591   2.4093042  32.9061770   8.3157771  42.8925848
  32.1255039   8.0630248  42.3997355  33.1355228   9.1801207  42.5512075
 101.9002923   8.5173648  55.6249332 101.8937930   8.6266654  56.5758514
 102.8142556   8.3290999  55.4117298  43.4058619  84.4671440  18.7840521
  42.5805473  84.9425316  18.8794565  44.0085506  85.1071930  18.4054494
 104.5742377  11.6694968   9.8683125 105.3810938  11.9901507  10.2712953
 104.8683747  11.1789458   9.1008049  72.1265554  82.1191978  26.6381526
  72.6414633  82.4937725  25.9234571  71.2858438  81.8982029  26.2374091
  46.5402651  75.0763750  36.0696459  46.0158777  74.7967577  35.3192711
  47.0503139  75.8174086  35.7426023  82.2014618  77.1005297  51.3821840
  82.3529530  77.9670525  51.0048008  82.9384422  76.9666576  51.9781446
 107.0996531  17.7488463  65.6246901 106.8751582  16.8377059  65.8134937
 106.2555369  18.1964629  65.5668688  47.9873848  83.7979794  48.4101200
  47.7541447  83.0611992  47.8453350  48.0336857  83.4209824  49.2887306
  54.2299509  87.7776527  21.2784123  53.6048985  87.2383976  20.7939148
  53.7477160  88.0652523  22.0536351  18.0020897  22.6324408  62.0031834
  18.7833587  22.6669829  62.5551462  18.3375160  22.4567454  61.1240625
  50.1024008  88.0619240  60.5379438  50.8104324  88.3019638  61.1356926
  49.6347809  88.8818741  60.3790331  84.3950844  85.0513172  48.8061762
  83.8918877  85.5751896  48.1828117  85.2657318  85.4490757  48.8054228
  71.3802338  86.5515327  28.6352921  71.7272711  87.1280766  29.3160200
  70.4435539  86.7470932  28.6104012  86.2294205   2.8907912   5.7927483
  85.6991824   3.4344047   6.3754714  86.4179762   3.4560149   5.0436121
   8.3983469  97.1154308  28.1662464   7.8216875  97.6847839  27.6568055
   9.2724842  97.2829723  27.8140497  77.2864398  30.0301116  59.1351795
  77.2624978  30.3527873  60.0360346  76.6004141  29.3634456  59.1012478
  75.8330568   9.2751162  55.3418541  76.5046366   9.6444457  55.9152746
  75.1215847   9.0297645  55.9333229  16.3216726  62.1420609  86.1803031
  16.0862009  61.5490089  86.8937981  15.8915130  61.7720066  85.4094270
  73.7886127  16.6478484  75.1848459  73.9718922  16.8779700  74.2739773
  74.4670280  17.0992320  75.6870842  57.7514172  77.1506500  38.6277556
  57.5754356  77.7142954  39.3811250  57.5971889  77.7116632  37.8676844
  54.5065165  90.6226158  79.1431904  53.5592604  90.6355858  79.0061855
  54.8239470  91.4072227  78.6961317  31.6911054  89.7127342  19.8474240
  32.3787045  89.1015339  20.1117635  31.0369730  89.6530628  20.5436897
  36.7084527  84.6943951  51.8443346  37.3608780  84.2623138  52.3955822
  37.0877385  85.5518627  51.6516447  96.2850094  99.7677994   9.0071726
  96.9885731 100.3406429   8.7020522  95.4940319 100.3024578   8.9384347
 105.9432658  15.6255572   8.4563518 105.1801260  15.5275577   7.8869206
 106.6215809  15.0925105   8.0416352  59.9802884   0.8184092  60.5888939
  59.0939053   1.0427993  60.8721066  59.8653944   0.0520461  60.0269985
  87.2376116  11.7168086  27.7810335  86.4692935  12.2820514  27.7009344
  87.6473769  11.9847434  28.6035490  47.3459180  30.2575057  42.4667263
  47.5393661  29.6859305  41.7236805  47.7104147  29.7983211  43.2233810
  48.1849527  77.4133158  60.5268669  48.9580536  77.3279381  61.0847712
  47.4804592  77.0044279  61.0295916  93.9797123  23.2010310  31.3166213
  93.6751135  22.2940200  31.3444567  94.9340685  23.1324618  31.2894583
  70.4598188  66.4537954  38.3862543  70.0423050  65.6160021  38.5862899
  71.2998438  66.4180517  38.8437629  14.4164459  28.5032790  44.9242544
  14.5839588  28.3273833  43.9983845  13.9730922  27.7163547  45.2411509
  69.4304609  86.4552784  43.8381863  70.2149200  86.6111183  44.3640852
  68.8445997  85.9707165  44.4197321  95.1237353   7.0394271  32.1615171
  95.0018033   6.0971206  32.0457077  94.7722920   7.2210830  33.0331373
  77.6727208  36.8075507  62.8882217  77.5430926  37.1372359  63.7774563
  77.5747879  35.8587115  62.9679108 103.5665854  23.5115474  20.0296998
 103.1317481  24.1293662  19.4419563 104.2194136  23.0774730  19.4804943
  88.9763490   6.6505980   8.2279909  89.9252919   6.5393454   8.2859588
  88.7976674   7.4474311   8.7273520 106.1267791  11.1803591  47.3452616
 106.5085898  11.4418948  48.1831455 106.0152609  12.0014882  46.8661547
  93.5939411  30.8299160  39.2271948  93.5363285  30.2733088  40.0037909
  92.8202586  31.3913155  39.2769575  12.0422637   1.8303579  33.9043069
  11.2960601   2.3988904  34.0945196  12.4275601   2.1987985  33.1093025
  95.0754134  14.0585017  36.5142131  95.0447039  14.9113309  36.9477701
  94.6255819  14.1971886  35.6807566  10.6219494  37.4034476   2.3675351
  11.4290464  37.7865171   2.0238999   9.9667454  38.0937314   2.2653149
  78.3174340  21.7246342  54.5760250  77.5144998  22.0602298  54.9746513
  78.3720509  22.1739745  53.7326145 100.2472381  44.0199566  30.3544354
 101.1005394  43.8786125  30.7644749 100.4135929  43.9254570  29.4165516
  27.5016880  47.6318455  43.6310148  27.1606922  46.7631960  43.4179449
  26.9226933  47.9535675  44.3220234  22.8519845   1.1213613  83.3875847
  23.0193949   1.5407510  82.5436020  23.1207871   0.2115213  83.2604313
  28.1039548   8.6955881  39.8004603  28.8139677   9.2663515  40.0942993
  27.8445172   9.0536922  38.9515281  76.9157569  16.6157353  35.3148913
  77.2838895  16.4748633  36.1871672  76.1998407  17.2356200  35.4543161
   1.2705918  26.8547106  30.9936595   1.9684023  26.2803054  30.6784630
   1.4902163  27.7158141  30.6379890   6.3875514  38.1396055  22.3738194
   6.6563463  37.3236394  21.9517040   5.4866040  38.2755351  22.0804787
  96.9322459  17.6641941  36.5569162  95.9969680  17.5237584  36.4093828
  97.0298676  18.6159575  36.5860319  24.1624045  18.2325172  11.1758268
  23.4772825  18.6978149  11.6557586  24.8468900  18.0765224  11.8265021
  11.3825881  79.3611002  49.3846178  12.0645785  79.9889374  49.1459799
  11.4882648  79.2397976  50.3282022  15.4502988  58.7114763  50.2431154
  15.6989741  59.1818047  51.0388422  14.9591863  57.9522800  50.5572128
  33.3678889  62.3157787  49.3995428  32.8838873  63.0486059  49.0188313
  34.2881227  62.5341558  49.2521811 107.2306787  15.6289876  36.0007262
 106.6147159  16.3464975  35.8523989 107.8600348  15.9799945  36.6307569
  19.7045529  36.6382384  37.8008127  19.8646832  36.3208938  36.9120574
  18.8586843  37.0830965  37.7475214  -0.2529611  43.7240934  23.4414172
   0.5584861  43.4873724  22.9922533  -0.1444250  43.3813620  24.3285418
  20.9200191  32.8546810  60.0209188  20.4059124  33.5271955  59.5740938
  20.3085303  32.4589705  60.6419897  94.5238431  89.1828258  34.6114588
  94.4068321  89.9249274  34.0183091  93.8002666  88.5922808  34.4018722
  91.0570852   1.7077163  22.0670509  91.7371706   1.4004046  22.6664472
  90.9429530   2.6320535  22.2879720  79.5007579  18.9484072  30.8888149
  80.0430695  18.1731820  30.7433724  79.0767590  19.1058016  30.0451994
  87.8546159  28.2650137  34.4860315  88.7494020  28.5048985  34.7269559
  87.6502744  28.8242435  33.7365413  77.4255101  33.8526678  11.1683738
  76.9401829  34.3455291  11.8300235  78.1771485  33.4941149  11.6402948
 102.2276185  20.9473658  33.9318180 101.5320263  20.2963710  34.0244865
 101.8130760  21.6769123  33.4712219   7.7232039  30.2582145  30.6021523
   7.3888212  29.8924279  31.4210677   8.6632001  30.3599381  30.7514572
  15.0153828  32.4420691   4.0602645  14.5070100  33.2475042   3.9650574
  15.0362146  32.0665312   3.1800550  18.1573498  61.5866899  12.9882908
  17.5316954  61.0386801  13.4620774  17.8845239  62.4836016  13.1815469
  78.0103032  62.2035503  12.2211003  78.1086342  63.0961609  11.8897295
  77.5129310  62.3028612  13.0328822  82.7691666  52.2855043  55.7481670
  81.8694870  51.9864464  55.8799696  82.6839964  53.0687666  55.2045870
   4.3893051  33.7924719  28.0426621   4.7333193  34.6810818  27.9517937
   5.1530647  33.2620001  28.2696080   1.4488861   9.6059227  13.1846917
   1.8655819   8.7611705  13.3549547   0.5497307   9.4961369  13.4940434
  91.2642447  29.1435504  56.6754532  91.7293112  29.1762686  55.8394670
  90.3389482  29.1050148  56.4334345  82.1947964  92.9807431  56.9638729
  82.6505597  92.2464276  57.3753262  82.4705454  93.7464393  57.4677610
  87.9614345  12.0854962  45.7560873  88.1042616  12.3286271  44.8413658
  87.3565785  11.3447368  45.7153893 102.1549038  42.2411251  25.8978152
 101.8663655  41.6822672  25.1762509 102.0545707  43.1329489  25.5649376
  19.2226171  30.6332994  35.9026504  20.1719451  30.5483341  35.9909034
  19.0192282  31.4774680  36.3054442  96.9035844   0.5355885  72.0268011
  97.0414404   1.0136588  71.2090731  96.8293874   1.2181853  72.6937246
  91.1041216  24.6688485  14.7301090  91.8190162  25.3024864  14.6696019
  90.7694642  24.5992255  13.8360238  14.0349066  58.1663227  26.1505342
  14.2879069  57.3256683  25.7690573  13.0782795  58.1413031  26.1722112
  48.5134776  90.8148713  15.3538823  47.7275499  90.5269761  14.8894858
  48.7099775  91.6746981  14.9819720 100.7581623  93.2667143  16.5060961
 100.1992520  93.8418973  15.9835887 101.5066918  93.0805696  15.9392750
 105.7574808  30.7014322  31.1360812 105.6476725  29.8793769  30.6581736
 104.8864872  31.0984135  31.1330748  40.6754971  14.5125878  18.2063234
  41.5039682  14.7553778  18.6197436  40.8440447  14.5919120  17.2674251
  67.3105590  27.7733731  74.5217514  67.2905843  27.4453974  73.6227179
  67.9130141  27.1857214  74.9777555  15.8141398  45.1448744  87.0968248
  14.9203014  45.0089675  87.4111674  15.9306383  46.0948744  87.1094879
  11.7900074  35.5271435   6.6250992  10.9764981  35.9327221   6.3252014
  11.7612839  35.6091213   7.5783491  41.9761330  66.0979527  87.2809129
  41.5365422  66.1918359  88.1260031  42.2082817  66.9923204  87.0310256
  10.8309245   1.8082748  67.7567101  10.9923458   2.1259923  66.8683195
   9.9354798   1.4709736  67.7314377   6.5393227  82.1819115  39.2206001
   6.4155185  82.3378563  40.1568604   7.4198174  82.5097179  39.0375614
  71.3903062  42.8175020  10.6896770  71.2742726  43.7464428  10.4900765
  71.3953773  42.7768230  11.6459990   7.7983338  14.2431951  51.9919920
   6.9619483  14.5481908  52.3436594   7.5996554  13.9841819  51.0921764
  72.8229147  99.0209634  64.9194241  72.1819864  98.8324726  64.2339182
  73.5314474  98.3966500  64.7630692  75.2272002  30.5642080  18.2893622
  75.5393235  30.5774212  17.3845768  74.8008816  29.7123432  18.3832395
 104.5212339  12.3630905  34.0409064 104.8782383  11.5157568  33.7748146
 104.0360169  12.6697695  33.2749152  20.9026265  48.5344887  25.9536147
  21.6394186  48.1245947  25.5004501  20.1433563  48.0099058  25.6995344
   4.9787036  35.2575135  36.1351967   5.3222626  34.7673225  35.3882623
   4.6098542  34.5882893  36.7116690  59.3363758  81.3347299  32.8233910
  60.2866896  81.2201817  32.8271866  59.1626318  81.8690676  32.0484543
   5.0771093   4.4928312  62.4430752   4.9576017   4.2785779  61.5178490
   6.0254854   4.4777268  62.5718641  66.3057830  80.5989630  11.9674003
  66.1853685  81.3973052  11.4532208  65.5614968  80.0461752  11.7292917
  99.7047756  30.7892156  18.9345324 100.5261956  30.5112553  19.3397963
  99.2127864  31.1981750  19.6465230  96.7886833  43.7323332  50.3134108
  97.4401872  43.5393572  50.9876060  97.1815388  43.4111357  49.5017910
  15.7456112   9.2019510  15.3772748  15.1808238   9.0148753  14.6274412
  15.6833029   8.4195375  15.9251595   2.7744754  37.5880378  86.7422390
   2.7650292  36.6595739  86.5096518   1.9682105  37.9381018  86.3632647
  22.6394486  30.9914398  20.8704543  22.3411059  30.4678845  20.1267385
  22.3543262  30.4987025  21.6399670   1.2933333  29.8232889  40.5760717
   1.4265852  28.8780832  40.6471920   0.8654305  30.0672698  41.3968039
   6.7845023  32.7584791  48.9844656   7.2729260  33.4882832  48.6035967
   7.1677297  31.9784808  48.5832500  94.3836768  69.4124276  12.5697863
  95.0931414  69.9183685  12.9659092  93.8712533  70.0584466  12.0836675
  12.4845374  69.2275286  51.1353207  11.7015231  69.7775602  51.1595297
  12.6407707  69.0741396  50.2034950  35.0384378   7.2749984  25.8184743
  34.8771501   6.8594986  26.6655731  34.1701603   7.3616266  25.4250002
  46.2129879  55.0596195  84.6919715  46.6509843  54.2266389  84.8667130
  46.2809467  55.1716735  83.7437850  92.4219469  63.2307386  15.9121823
  92.3796408  63.3834028  16.8561816  92.1992962  62.3055315  15.8089685
   9.0437597  51.7798948  43.1060648   9.1228604  52.4211264  43.8123226
   9.5970130  51.0494089  43.3827209  97.0707552  51.3184977  48.3475494
  97.4973039  50.7887030  49.0210533  96.8421797  50.6930637  47.6599312
  96.8125586  19.2982316  11.3518679  95.9011928  19.3311667  11.0610735
  96.8487326  19.9003541  12.0950854   4.3474385  27.4118781   9.8045313
   4.4622481  26.5708542   9.3621171   4.4353625  27.2068191  10.7353652
  90.0292476   1.2223373  82.7219754  90.0727363   1.3833748  81.7794221
  90.6280573   1.8648134  83.1026077  17.6592767  43.3993864  41.9377136
  16.9019866  43.6317062  41.4003372  17.3565507  43.5104322  42.8389645
  88.1737916  34.1225648  50.2310848  88.8227717  34.7363520  49.8871040
  88.5489158  33.2581472  50.0628805  96.3482932  38.5533190   9.3007445
  97.2569291  38.8499236   9.2493701  96.0718648  38.7809515  10.1884401
  15.4509604  65.5636930  45.9549713  16.4080036  65.5565310  45.9391642
  15.2186430  64.9644518  46.6643143  42.3184109  56.7337751  57.1956539
  41.8122673  56.2671137  56.5306139  42.4568701  56.0877895  57.8883028
  66.5827894  93.9895814  71.2483412  67.2068477  94.3645948  70.6269294
  66.7433667  93.0467456  71.2095552  26.6612673  45.3184891  42.7414036
  27.1039772  44.9235821  41.9902086  25.7522225  45.4179287  42.4585867
  18.0456114  49.6998549  41.3678694  18.0609715  50.6071281  41.6725922
  18.3365262  49.7480917  40.4572248  88.1565408  19.3767309   3.8229015
  88.9020519  18.8804233   4.1607222  88.5476295  20.0356007   3.2491651
  26.8843937  43.4940577  35.3692341  27.3333907  42.6823187  35.6052804
  27.5116873  44.1851950  35.5815077  83.3314554  40.3310680  55.1663876
  84.2586247  40.1225376  55.2808809  83.3257953  41.2391233  54.8636723
  80.1358726  84.8206205  41.0620117  79.3929990  85.2003009  40.5927420
  79.7383972  84.3176419  41.7728281  80.6286804  59.0038013  11.3501012
  80.8303348  59.9395037  11.3551986  79.8221509  58.9353848  10.8391607
  11.5108669  44.8324871  32.6871848  11.7732608  45.3358030  31.9164371
  11.7518139  45.3873539  33.4290075  55.7302507  11.7471205  81.0940736
  55.6954904  11.9326149  82.0324844  55.6974824  12.6086651  80.6782537
  11.0753751  41.3936949  84.0041924  11.4340353  42.0608187  84.5894623
  10.8600938  40.6602859  84.5803928   3.3023047  46.6405249  24.4449258
   2.5583330  46.6653013  25.0466943   2.9053766  46.5949392  23.5750985
  63.6937809  83.9549583  86.6429373  64.0844154  84.3811529  87.4058230
  64.3071294  84.1316765  85.9296301   1.6320148   2.1704881  86.5060997
   1.5973225   1.3546826  87.0055866   0.9409674   2.0792420  85.8500862
  49.6110400  63.2694413   9.9883348  49.1897353  63.6972834  10.7337839
  49.6922191  63.9599027   9.3303854  96.2195496  31.1106753  25.2132273
  95.8034341  31.0903454  26.0750079  95.8066289  31.8489361  24.7652316
  44.2584228 100.0287812  84.5380816  44.5213812 100.3568643  85.3979918
  43.9400297 100.8027642  84.0735346  22.7088475  49.1903305  49.7516680
  21.7936826  49.1985369  49.4712448  22.6894879  48.7894630  50.6206656
  33.6503319 102.0129483  83.3592990  33.8891581 101.0860866  83.3481383
  33.1523156 102.1416944  82.5520593 101.4123019  98.8159759  54.5998573
 100.6906637  98.1890268  54.5508289 101.8200000  98.6459706  55.4490376
  95.5673329  15.0457442  10.1953328  95.9909789  14.1971457  10.0663447
  96.2099938  15.6838489   9.8854280  18.1947291  30.6497121  15.9446049
  18.4342217  31.3081026  16.5968299  19.0154612  30.1983523  15.7473600
   7.2811276  23.0738449  15.0976384   7.3722732  22.1736121  14.7853816
   8.1578863  23.4477544  15.0097871 105.1383836  57.5685310  16.6510725
 105.5325262  57.1811342  17.4326146 104.8114968  58.4190941  16.9441903
  93.2397095  24.1938496  38.1093287  93.0824117  24.9433231  38.6835933
  93.8385240  24.5260715  37.4405384  80.6472965   7.6183592  81.6891664
  80.5465849   7.2308003  82.5585830  81.5707948   7.8658043  81.6427517
  91.6701369  48.4847021  35.2118087  92.5543694  48.1713343  35.4019809
  91.2436454  47.7476120  34.7747278  13.8988018  51.0591841  10.8664310
  14.7450209  50.6266403  10.9806836  13.3071601  50.3589678  10.5909479
  12.7789497  30.7112932  37.9229021  12.5680864  31.6317368  38.0796003
  12.4027944  30.5223966  37.0632172  19.5955551  48.8396597  45.5509281
  18.8642490  48.2331944  45.4341936  19.7093356  49.2458725  44.6917009
  14.9739838  33.6154604  13.4093773  14.0575230  33.8779521  13.4955776
  15.4469156  34.4369578  13.2762957  25.3244781  56.6066122  17.2875416
  25.6129837  55.8299923  17.7669787  25.9879780  57.2684956  17.4822438
  12.8417158  48.9695311  38.1259227  12.9108286  49.7401381  38.6895037
  12.2222853  49.2269659  37.4430871  72.1674840  26.4379239  41.4944220
  73.0170337  26.3065243  41.9154119  71.9315926  25.5740786  41.1562490
  19.1218805  41.9102812  27.1413255  19.2911172  41.4386082  26.3257790
  19.9403799  41.8404627  27.6326680   0.2693941  13.1519413  69.9073076
   0.7894576  13.5940206  69.2362404  -0.5092068  13.6998260  70.0064754
  16.7420590  91.7814677  80.9050631  16.9385314  91.9695609  81.8228060
  16.6424489  92.6430028  80.5000072  25.3312135  42.6629829  50.4341650
  24.5484710  42.2679567  50.8182335  25.0266051  43.0480528  49.6124840
   1.2075186  42.5388098  38.1398892   0.3343604  42.2228289  38.3722281
   1.0962632  42.9370117  37.2765875  21.6993189  41.5020514  18.0766761
  21.7257190  40.5458403  18.1111503  22.1742392  41.7260695  17.2763658
  10.2430677   0.1226551  14.3445885   9.4047725  -0.1555195  14.7135222
  10.1936579   1.0784908  14.3316007  23.5415006  48.7013531  34.8782277
  23.8578320  48.3151722  34.0615106  22.7242851  49.1371250  34.6363616
  37.4568918  65.9353941  64.7198742  37.1618903  65.0633650  64.4576329
  38.4014369  65.9253209  64.5650691  12.8917789  24.9295902   7.8884012
  13.4212708  24.1324854   7.9106474  13.4982944  25.6270432   8.1372631
  31.4757359  82.9987162  83.9286065  30.7392478  82.4702924  84.2361563
  31.1773518  83.9033216  84.0228891  78.8999321  97.0322142  33.1135869
  79.3580546  97.4593527  33.8374019  78.0713840  97.5060911  33.0416131
  29.5367670  24.2800212   7.7623868  29.0168023  24.5366144   8.5239828
  29.6564436  23.3354974   7.8612900   5.2173221  17.0812583  33.3920002
   4.6825501  16.3328862  33.6569333   5.4192102  16.9172311  32.4708223
 104.5558489  14.7853923  22.4623680 104.7301282  14.3465161  23.2949805
 104.7089927  15.7126892  22.6437449  32.2859302  91.9297641  86.8152085
  31.9080320  91.3276237  86.1742343  32.0070743  92.7973264  86.5222832
  -0.2678818  49.7336197   7.5127876  -0.0172630  50.0282288   8.3883601
   0.5585279  49.4874859   7.0972174 107.2703950  37.5324678  48.6839724
 107.3782320  36.5836811  48.7503338 107.8858586  37.8888631  49.3246126
  47.8221846  20.9960413   9.1725308  47.3599577  21.8284416   9.2709571
  47.8605938  20.8537817   8.2267404  74.1333286  17.7082765   7.9066539
  74.6956674  17.4756682   7.1678036  74.4915168  17.2152317   8.6447871
  98.3084659  32.5795722  28.2293987  97.9539029  31.7090774  28.4103918
  99.2553477  32.4475026  28.1824493  19.5497119  41.5551615  63.0814362
  19.1509330  40.6994057  63.2391787  19.3558121  42.0591116  63.8717937
  19.5432007  36.8152523  29.6147943  18.9825320  37.5271416  29.9231696
  19.6706176  36.2602639  30.3841996  15.6333053  23.9450693  30.4965544
  15.6795192  22.9995131  30.3550601  16.0810423  24.3227029  29.7394824
  82.9890029  13.5871530  34.1835785  82.6763789  14.1562831  33.4803057
  82.5580708  13.9202631  34.9707031  20.0316429  66.9120913  85.4893350
  20.4081404  67.6888924  85.9029302  20.5298221  66.1809617  85.8547120
 106.0097628  19.9622726  46.7150402 105.4608602  20.6880522  47.0119953
 106.4753298  19.6768463  47.5011730  13.5279369  75.5445188  82.0410132
  13.7947273  76.1571639  81.3556528  13.3543372  74.7259420  81.5762216
  92.8873352  39.6834278  17.6620567  92.7632729  40.2491140  18.4241855
  92.9697005  38.8028789  18.0282295  97.8387753  44.3226433  12.2160316
  98.4106849  43.5552216  12.2015333  97.9869096  44.7155285  13.0762231
  98.3008889   2.8161922  22.8745818  99.2338477   2.7431813  23.0758023
  97.8613774   2.4352247  23.6347961  37.3446894  40.2405310  25.4425049
  37.9133654  40.0679922  24.6921229  36.8719482  41.0386133  25.2062559
  24.6039951  97.2363799  87.6886343  24.1434967  97.7760881  88.3311996
  24.0117991  97.2006410  86.9374624  33.3331749  81.2946575  77.2745543
  32.9062503  82.1491068  77.2122556  32.6125681  80.6649011  77.2554487
  21.0162973  84.9466317  77.6046687  21.2367081  85.8768242  77.5557428
  21.8556297  84.5087212  77.7460426   1.5320504  12.0111728  63.5057592
   1.7399894  12.9183054  63.7296009   2.0696443  11.8251693  62.7359343
  18.7295783  21.4379740  50.0208855  18.4423661  21.0831189  49.1795683
  17.9486763  21.8561411  50.3835964 106.1000245  38.4945202  35.8403373
 106.0038125  39.4371343  35.9761858 106.9636765  38.2879615  36.1976480
  88.1370501  60.9436846   4.2146948  87.8964226  61.5906763   3.5515746
  88.1288473  60.1079893   3.7480289 102.6802931  17.2660780  34.0604711
 101.9661276  16.6616178  33.8584137 103.1582658  17.3562193  33.2360625
  69.1504781  20.5887532  26.5462708  68.5735218  20.0204897  27.0565939
  68.5658280  21.2444711  26.1662030  70.4954569  28.2936430  21.4423609
  71.2415020  27.7912712  21.7698836  70.8541385  28.8139415  20.7234240
  38.5316342  77.0851653  87.3904691  39.2582011  76.4640658  87.4411411
  37.9644328  76.7347353  86.7036547  45.6969357  37.2048998  12.3513854
  46.3502884  37.2840142  13.0464387  45.9230757  37.8971314  11.7301702
  92.0679764  43.1941891  36.0389376  92.4166064  43.1280327  35.1499438
  92.7644364  43.6206865  36.5382123  79.6519582  15.9621787  34.6901989
  79.8873989  15.0886738  34.3774843  78.7159149  16.0385692  34.5052099
  88.4788458  21.7578292  59.7226048  87.8052918  22.3602462  59.4069290
  88.0860154  20.8898163  59.6305704  23.7383628  47.4872589  21.7704892
  24.5460582  47.8729773  22.1097279  23.2884502  48.2139826  21.3395810
  97.3424987  48.9592075  13.2884836  97.7427677  48.5993099  14.0799963
  96.4011530  48.8560247  13.4279597  16.5119433  38.4649944  50.7729864
  16.3130367  38.0497217  49.9338102  17.4252069  38.7404084  50.6934214
   8.7690306  46.3985443  51.9851398   9.6576083  46.7528200  51.9512129
   8.5629004  46.1813593  51.0759830  13.3619666   9.1908675  33.3331108
  12.9447436   9.1969687  34.1945744  13.2651711  10.0880134  33.0137467
 105.1143945  31.5903139   7.0425057 104.4836025  31.1844540   7.6371586
 104.5866911  31.8919349   6.3030565  79.0922036  94.8853988  48.1200552
  78.9491530  94.8450560  47.1744633  78.7622382  95.7468004  48.3756733
  10.6324923  48.0525780  35.8412266  10.3934813  48.9060354  36.2027836
  10.3407276  48.0881596  34.9302721  30.4491138  14.1523612  35.3002286
  30.1229000  15.0353646  35.4737878  29.9067187  13.8341892  34.5785594
  11.6551435  54.7434187   4.4990528  12.3993850  55.0924683   4.0086454
  10.9866607  55.4257679   4.4377214   8.2464594  38.3859015  42.9163218
   8.9126152  38.0483985  42.3175240   7.4436069  37.9305840  42.6626587
   1.1669698  32.0423794  53.8045740   0.4659815  32.6828861  53.9253950
   0.7925132  31.2167072  54.1116190 107.7104900  28.4481120  35.7025909
 108.3138229  29.1443944  35.9622264 106.9786436  28.9068341  35.2900314
  58.4930833  12.1773665  37.4708509  59.3678626  12.0804446  37.8471470
  58.6490592  12.4880641  36.5790153  18.2223260  64.9207973  46.0707808
  18.2347333  64.7316027  45.1325464  18.7732017  64.2412996  46.4594364
  14.4057238  39.4754672  31.2414646  14.9439776  39.9640751  30.6187487
  13.7353754  39.0566587  30.7015896  22.2203565  37.2880864   9.2064238
  21.3563085  37.6901102   9.1167909  22.5493217  37.2249293   8.3097494
   7.1676189  72.6232004  50.0030327   7.4092782  73.5332584  50.1751709
   7.5771987  72.4216604  49.1616917  21.2230778  13.5306215   5.5317849
  21.7423034  14.1315269   6.0661525  20.4514956  13.3410835   6.0656095
  26.3187933  30.4691100   6.1330044  26.1014915  29.5521283   6.3008034
  26.3699555  30.5324793   5.1792753   3.4908658  76.3296652  38.0706048
   3.9361489  75.6565857  38.5853100   3.3702421  75.9313202  37.2086287
  19.7004652  65.4501343  42.0272160  19.5936513  65.4703045  41.0762072
  19.2210734  66.2179661  42.3384190  25.9027171  18.3276880  34.4723248
  25.7385635  17.9549205  35.3385401  25.3775549  17.7921367  33.8776660
 101.1369012  63.9617682  44.5876455 100.7282297  64.5985413  45.1739407
 101.7642311  64.4740486  44.0774965  11.8415928  95.3713267  86.7039826
  11.6608929  94.4340604  86.7754949  11.1787033  95.6972879  86.0952496
  16.0333657  46.3707495   7.5019962  15.3658414  45.6875467   7.4397165
  16.5300190  46.2953377   6.6872078  24.6089029   8.5892969  58.4890366
  25.3670120   8.8902521  58.9899683  23.8543034   8.8468856  59.0186262
  56.7148654  64.2376995  10.2522898  57.3748986  63.5932922  10.5078924
  55.8944623  63.7450123  10.2317083  89.7984604  64.6926308  11.6202140
  89.3918804  64.5372105  10.7677066  89.6391694  65.6199598  11.7960465
  32.4892783  81.2662983  46.5995646  33.1485271  81.9410229  46.7619324
  32.0237041  81.5690136  45.8199310  46.2135267  21.8834615  16.6857326
  47.0626307  22.3163271  16.5969586  46.2819386  21.1059833  16.1315858
 107.8736805  65.4603338  65.0300884 107.3179221  66.1945057  64.7686338
 108.2266777  65.1221991  64.2071152  77.1491766  22.4717832   3.1635356
  77.5897121  23.2662821   2.8619877  77.7556562  21.7641139   2.9453111
  39.0236884  93.9411443  87.7927338  38.6277422  94.1592448  88.6364691
  39.2591676  93.0166238  87.8705035  30.1680350  30.7492304  30.8751893
  29.6793461  31.5616846  31.0068393  30.8366752  30.9740710  30.2281976
 106.9506529  32.2821212  15.8302224 106.0894708  32.2356582  15.4149652
 106.8329879  31.8475914  16.6749537   7.0551491  23.8695240  30.4077864
   7.9763943  23.7116027  30.2013898   6.6694355  22.9954004  30.4657745
  87.5456111  57.2324991  80.2809048  87.6128332  57.8948784  79.5931816
  86.7344825  57.4470520  80.7416344  46.1928248  41.2148642  85.9667049
  45.8883840  41.2635093  85.0605142  45.7462603  41.9371056  86.4084956
 107.3334403  30.2226210  49.6715832 107.9664371  29.5136881  49.5577335
 107.8632501  31.0198092  49.6669674  25.4011083  17.0377791  44.3715668
  25.4767013  17.9645169  44.5988894  26.2517667  16.8135452  43.9943027
   4.1569585  76.4220142  33.3437467   4.3969417  77.0951271  33.9805794
   4.0860584  76.8924952  32.5131750  27.9574585   9.3727845  52.4744940
  27.8886008   9.5766687  51.5417957  28.1019998   8.4269863  52.5028801
  37.3643899  50.3308201   3.4286919  38.1659174  50.8196497   3.6153159
  37.5206137  49.9325752   2.5724047  69.3419774  98.6601580  35.2867246
  70.2986925  98.6686254  35.3159904  69.1319673  98.3223883  34.4160700
   1.0550988  23.1079340  14.6228695   1.4090019  22.7887845  15.4530060
   1.8103480  23.1358695  14.0354586  92.1649782  37.0568657  60.5285454
  92.2135453  36.1443853  60.2435017  91.3133423  37.3608494  60.2146292
  23.2970762  34.6323633  40.8388567  23.2227492  33.6830974  40.7408571
  23.9303041  34.8933291  40.1701593  14.0111148  24.1920853  21.3992977
  13.3856916  24.3297052  22.1107316  13.6061263  24.6111512  20.6399560
 105.9319886  53.8084936  57.6570892 106.8673715  53.9769793  57.7706766
 105.8697731  52.8581905  57.5606871 100.3602723  12.2932124  21.4338636
  99.9737511  12.9464495  20.8506703  99.8266063  11.5094686  21.3027978
  14.9952734  25.3219843  25.3102279  14.1471827  25.1487589  25.7188439
  15.6191087  25.3031898  26.0359740  13.4233284  41.1401463   9.8795074
  14.0052330  40.4745913   9.5125550  12.8924096  41.4295387   9.1374767
  50.1217270  55.3802776  10.7868242  49.5377350  56.0952044  11.0399413
  49.6654320  54.9409533  10.0691760  93.1566505  84.1492081   8.0149800
  93.9483849  83.7713909   8.3979207  92.5063769  84.1037750   8.7159175
  86.2012593  46.3359308  39.4682288  85.7149784  45.7600975  40.0582933
  85.7718317  46.2272120  38.6196971  33.4683228  56.6904879  44.7121906
  33.3373356  56.6145277  45.6573391  34.4002581  56.5131950  44.5845318
   2.6983580  36.3093877  42.5462246   3.0938873  36.5809917  41.7179632
   2.1042536  35.5983114  42.3061371  29.1004824  68.3635979  85.8853782
  28.4642565  68.2271915  86.5874047  29.8738861  67.8735262  86.1644986
  96.4165692  27.6858282   1.8994063  97.1126906  28.0988717   1.3884851
  96.5953008  27.9469919   2.8027782  17.0764589  97.7881377  67.7077383
  17.0173228  97.3848575  68.5738212  16.2466216  98.2535976  67.6031011
  21.5572643  49.8702812  33.5080194  21.8163896  50.6283188  32.9841208
  20.6907392  49.6348810  33.1764269  19.4777226  80.1489299  79.3042320
  19.2155576  81.0431355  79.5230806  19.1473532  79.6182721  80.0291401
  92.0220427  52.6346540  13.6979616  91.9658856  53.2380867  12.9570532
  92.5204472  53.1138659  14.3599129  26.1623740  98.7394810  55.0723028
  26.7402482  98.9023972  54.3268156  25.7466006  99.5847511  55.2422619
  28.3807576  92.3747628  83.2301193  27.4836325  92.4349492  83.5584125
  28.7925786  93.1932443  83.5071063  55.4400535  99.8137990  10.1310015
  54.5035704  99.6769931   9.9877709  55.7817980  98.9420737  10.3298390
   9.9501890  24.4178796  15.0461471  10.7106352  24.9992156  15.0442791
   9.7784382  24.2511559  15.9729350  10.1938224  30.1174688  59.3435526
   9.7903067  30.8855772  59.7478008   9.5443708  29.4222665  59.4491005
  94.4827823  36.3224936   4.2520031  95.4024665  36.1718822   4.0335298
  94.0218584  35.5709863   3.8791534   4.7146890  25.9830141   6.4255440
   5.0541168  26.8276024   6.1294210   5.2231836  25.7827377   7.2113901
  89.9888174  43.4498787  20.7691336  90.9429364  43.4132576  20.8365607
  89.6791021  43.2784939  21.6584778  98.0487863  72.4135876  25.6177378
  98.1661282  73.1793785  26.1799002  97.7805583  71.7161560  26.2159634
  24.6271586  22.7854776  21.7226744  24.6724963  23.0703759  22.6353693
  25.0872755  21.9462037  21.7106080  87.4040027  81.7216975  21.1818337
  87.6231714  80.8978326  20.7465839  87.2096260  82.3265214  20.4658461
  90.0844518  59.7212553  18.6556745  90.5909375  59.0075397  19.0433776
  90.1469211  60.4328918  19.2927766  11.5381587  50.9867287  24.7482657
  12.3418534  50.5573225  25.0413799  10.8634377  50.3125238  24.8284435
  66.9205141  92.1228784  76.0355109  67.2629404  92.9911082  75.8230167
  66.0600447  92.2920840  76.4191693 106.3769952  86.3419812  76.3526731
 105.7325546  86.0564821  75.7050484 105.8568708  86.5736979  77.1220940
 106.3980302  37.3547363  12.6791728 105.7910119  37.4102736  11.9411516
 106.7664234  36.4732194  12.6204801   6.3824099  55.7362270  21.1610913
   6.8911600  55.6804800  20.3522038   6.9967902  55.4792404  21.8486428
  17.3951518  99.9880784  76.4368540  18.1553030  99.8620790  77.0047682
  17.7543712  99.9761098  75.5496961  27.2819591  46.6648197  47.1372890
  27.2092676  46.2574100  48.0004025  28.2179785  46.8341732  47.0304394
   1.5643471  25.1050901  48.5100889   1.2041419  25.2687049  49.3817091
   1.1361401  25.7514572  47.9487705  11.1754978  42.5236273  22.0831156
  11.8290114  42.1180534  22.6529074  10.3546727  42.0875120  22.3117661
 100.6459210   8.1762344  39.8795247 101.3838689   8.7812638  39.9543881
 100.4176585   8.1907290  38.9500523 100.9350507  36.6866136  44.0086699
 100.5212496  36.5211964  43.1615353 101.4694605  37.4677706  43.8657236
  91.6626863  12.4588931  35.3945327  91.5298991  13.1490135  36.0444045
  92.6034526  12.4734473  35.2185225 104.1007353   8.9207202  22.8779817
 103.4457238   9.0753609  23.5586262 104.3500046   9.7962540  22.5821161
  34.7926307  38.3107328   4.0390694  35.5351257  37.7477765   4.2581859
  35.0348735  38.7127829   3.2048601   6.9016975   9.6226490  60.5321598
   6.5051222  10.3769398  60.9680557   7.2333717   9.9712664  59.7046995
  11.1652589  55.4080963  43.2820511  10.6204832  54.9549818  42.6385164
  11.9752622  54.8989010  43.3111334  49.7737702   1.8830286  82.6108134
  49.2599948   2.0742403  83.3954817  50.6272348   1.6067968  82.9447716
   4.8248154  30.1811838   9.6431494   4.4322565  29.3121099   9.5604628
   5.7483476  30.0102568   9.8278195  99.1984890  29.3433213  50.3142786
  99.1442810  30.2478051  50.0057268 100.1201681  29.2230916  50.5429363
   6.9439411  34.9428725  25.9620500   7.1602362  34.9718761  26.8940401
   7.1786648  34.0559196  25.6891894  28.9904499  52.4499464  56.4565420
  29.2159653  51.8882704  57.1980858  28.0552244  52.6236534  56.5633583
  33.9916492  49.1033745  63.5199451  33.6176038  49.6049404  62.7955437
  34.7057390  48.6049509  63.1226015  87.5530569  62.3421812  42.4964094
  87.2790329  61.4465523  42.2989511  87.6683847  62.3533916  43.4465694
  44.0135757  98.9007009  29.9323416  43.8388530  97.9821111  29.7276592
  44.9274055  99.0327094  29.6799016  75.6536080  12.4169193  83.4639495
  75.7324325  12.5915323  82.5261181  76.1548718  11.6130434  83.6008650
  33.1134224  45.8518791  15.3874969  33.8354683  45.2862597  15.6612778
  32.9608870  45.6191730  14.4716311  86.7483203  27.5628304  51.8581343
  86.6615598  27.9618144  50.9923887  87.6576988  27.7272558  52.1075869
  98.6228089  26.6423917  38.7460375  98.7116317  27.3549414  38.1130958
  98.9820276  25.8771014  38.2971191  17.3778033  47.1363211  17.7555525
  17.1855628  46.7680454  18.6179030  17.2123384  48.0740309  17.8532696
   5.3301436  13.1488812  61.0290194   4.8145843  12.6316524  61.6478157
   5.2988207  14.0399456  61.3772392  51.2810469  14.6105027  26.8630457
  51.9642019  14.7797036  26.2142730  51.3101578  13.6636174  27.0001268
   1.1072731  86.1733025  86.9884129   0.9180713  85.5949515  87.7272936
   2.0506549  86.0863584  86.8516439   2.6007846  32.8024101   1.4660086
   3.3714855  33.3695650   1.4418280   2.2452852  32.9188275   2.3470865
  15.9742784  92.4885600  87.3975007  16.2106240  93.4111493  87.4934230
  16.7542124  92.0108979  87.6799406 102.2717140   7.0515245  69.1434193
 102.1960501   6.1070430  69.2792940 103.1862841   7.1851933  68.8945675
  19.9678481  12.7221096  23.6055136  19.1471910  13.1532168  23.8440490
  19.8048627  11.7923129  23.7640858  12.0375192  14.3224609  57.2071218
  12.3680210  15.1633811  56.8911266  12.6573050  13.6779010  56.8655968
   0.4496969  25.4700065   7.4163747  -0.1715938  24.7421932   7.3936665
   0.0914582  26.1100030   6.8013114  82.4993507  63.7470245   3.4344804
  81.8022672  63.6974049   4.0885770  83.0650060  63.0000448   3.6301395
 106.2944568  17.4840224  42.0012236 106.7928370  16.6675806  42.0368910
 106.7728240  18.0819297  42.5755978  19.0960050  49.6281290  27.7845979
  19.4169712  50.2274084  28.4584475  19.8632789  49.4438696  27.2427726
  25.4478669  92.9945660  38.0717683  24.5462251  92.9840279  37.7505779
  25.3679562  93.2005405  39.0031219  15.8108854  67.8190327  28.0615330
  15.3307295  67.0049000  28.2127428  15.8760822  68.2229090  28.9269066
  94.7850470  33.6602354  61.5873623  94.2510061  33.0119014  61.1283445
  95.4690246  33.1464219  62.0167828   4.1240969  32.9607940  53.9467335
   4.0767083  32.3432612  54.6765566   4.8891804  32.6800132  53.4446955
  63.5347509  93.3876269  69.6966952  63.4507847  92.5538343  69.2341262
  64.0697718  93.9301293  69.1173213  12.9699087  70.9031677   1.2445325
  13.3673680  71.5978861   1.7695291  12.1104193  70.7642937   1.6423044
  38.8887930  62.7116966  30.2467799  39.8410463  62.6146555  30.2521753
  38.7436104  63.6390877  30.0594139  21.5170717  37.6310277  43.5268593
  20.5777431  37.6109505  43.7098598  21.5751457  37.6244950  42.5714445
  86.5760748 100.4657173  63.4973526  86.3212911 101.1760330  64.0862179
  87.4593560 100.2268124  63.7783718   0.2584225  58.8961697  50.2276897
  -0.0215391  59.0121651  51.1356544   1.1905310  59.1137791  50.2347946
  18.3453643  41.5667057  52.4878454  18.4742928  42.0283747  51.6593122
  18.4566212  40.6420803  52.2666550  39.0664482  89.8853970  37.7055907
  38.7112093  89.1091156  37.2726703  38.3155870  90.2740765  38.1543398
  21.5298080  28.1650639  20.9938669  20.9891868  27.4922705  20.5799699
  21.2482691  28.1692433  21.9087172  18.1315696  42.8419685  33.5366344
  18.3658791  42.0494127  34.0195251  17.2950888  43.1139755  33.9141870
  93.3396940  51.6767740  38.9086676  92.6681892  51.1407661  38.4867549
  92.8811888  52.4768400  39.1653728  51.3331318  51.5392971  34.2603755
  51.2572289  51.4782810  33.3081412  52.1200752  52.0647621  34.4047356
   3.8877195  47.0867634  18.4610510   4.1821319  46.9153786  19.3555796
   4.5529270  46.6777754  17.9074633 107.2809711  48.9970446  41.5095043
 107.6157868  49.2329073  42.3746634 107.6332459  49.6683693  40.9251595
  27.7169657  24.1355515  12.7294075  26.9819236  23.5330725  12.8432703
  27.4668741  24.9149704  13.2255864   0.9790181  74.7818851  29.6794629
   1.3264924  74.5957851  30.5517364   1.4715081  74.2035341  29.0970564
  97.7646879  62.0765591  23.7912059  98.2905571  61.4506149  23.2933259
  97.8340093  61.7794228  24.6984720  35.6768823  56.4452124  23.6712003
  35.2601576  55.9654665  24.3870330  35.3130460  57.3285389  23.7311196
   1.5166479  29.5880771  59.3811941   2.2172345  28.9374614  59.4271278
   1.3320819  29.6756887  58.4460497  25.1651597  54.9055338  26.2096691
  25.1578641  55.8131552  26.5136361  25.0294542  54.3863821  27.0023227
  18.7533820  39.5438409  19.8317933  18.6881566  38.8318491  20.4682255
  19.2600811  39.1734266  19.1091025  14.4385517  48.7005329  14.6255922
  14.2981446  48.3911514  15.5204678  13.6239552  48.4904242  14.1689503
  14.9449694  41.6449261  38.6682343  14.0668738  41.3153934  38.8595200
  15.2890825  41.0414457  38.0097294  27.0011902  30.4620838  73.6402941
  26.3972282  30.2369714  74.3479586  27.6096654  29.7242236  73.6009169
  36.5542698  53.3350229  64.0222216  36.3374901  52.6920176  64.6973372
  35.9873533  54.0824461  64.2124701  25.5559945  58.7856197  56.2679529
  25.3769112  57.9643774  56.7259026  24.6924686  59.1119385  56.0148382
  23.1164384  51.1653996  43.7150240  23.1501961  50.8104229  42.8267241
  22.7696729  50.4486799  44.2463446  14.7307324  40.5729198  50.5085993
  15.3395104  39.8351526  50.4722261  14.4873810  40.6373358  51.4321041
  56.9682884  59.0305376  24.6847439  57.1829462  59.9512959  24.8342848
  57.7961397  58.5676193  24.8135996   6.2676603  65.6840467  44.0307140
   6.8459642  66.0255814  44.7127342   6.3087863  64.7335100  44.1356993
 105.0045623 100.0714111  65.4426622 105.2160962  99.5275402  66.2014055
 104.5338709 100.8202934  65.8085346  33.1327152  64.7209501  37.3020935
  32.8496337  65.4155874  36.7074704  33.7366033  65.1536751  37.9056668
  26.4254403  51.1005306   9.6754086  25.9507608  51.0746288   8.8446009
  26.2358832  51.9681120  10.0326169   5.3052920  58.6304665  79.3569851
   4.6770811  58.9644527  78.7166452   5.2646369  57.6791906  79.2587328
  23.7721610  73.7287569  20.1507282  24.2334414  74.4893456  19.7972322
  24.2506170  73.5086393  20.9500146  79.9133158  57.1725750   0.9029661
  79.6261024  57.9332352   1.4080751  80.7830620  57.4120808   0.5829546
  95.3931097  34.3125153  48.5865879  95.5676941  33.5422850  49.1274214
  95.5287318  34.0103197  47.6885271  10.6120193  55.6540012  71.3639307
  10.5006158  56.2723064  72.0860958  11.5355504  55.4052496  71.4019156
  85.3352853   6.0426889  75.9456318  86.0931881   6.5065943  75.5898136
  85.4562457   6.0786425  76.8944770  51.0399389  42.7358389  27.2348213
  51.2542629  43.6687326  27.2362304  51.3524771  42.4170017  28.0815196
  15.2252388  53.6730337   9.5882034  16.1257005  53.5076189   9.8675585
  14.8939109  52.8138971   9.3267894   3.6303535  46.9294310  52.9003048
   3.7054229  47.1174097  53.8358593   3.9766523  47.7113771  52.4703503
  37.8591013  35.6088138  39.2013741  37.2449732  36.3428044  39.1829371
  38.5399699  35.8815956  39.8163867  86.9357244   3.9417177  37.2747374
  87.7992980   3.5321012  37.3265719  87.0291225   4.6127510  36.5985537
  12.6309633  47.3707676  50.7059002  12.8537536  47.1138859  51.6006660
  13.2672632  46.9100761  50.1589823  95.1065163  14.1923916  53.5485125
  94.6643810  14.1669333  52.6999235  94.3952410  14.2222226  54.1883755
  17.3077488  49.3171930  14.5214283  16.4316761  48.9473248  14.6306396
  17.1799421  50.2626514  14.5989358   5.1235348  55.2852488  63.9031982
   6.0211015  55.5911303  64.0337420   5.2208900  54.4159174  63.5145855
  34.0778708  78.8644218  23.4226894  33.1859636  79.2093182  23.4648728
  34.1682100  78.3362961  24.2158818   9.1141063  35.8592725  15.6329286
   8.7172967  35.0541639  15.3004062  10.0274432  35.6255102  15.7984662
  11.1097825  58.9668894  20.2424574  10.6679225  59.0119076  21.0903764
  10.8223283  58.1348848  19.8664558  17.6789176  52.3153162  25.6136131
  16.9460452  51.7033911  25.5452251  18.3657074  51.9280958  25.0708294
  24.8726726  49.7959852  32.1646428  24.6805096  50.5093145  32.7732992
  24.2754364  49.9400187  31.4306140  23.5805416  57.6554155  42.8444767
  24.2112565  58.3347082  42.6057482  23.8338566  56.8975258  42.3175287
  17.2944260  17.7089262  21.8305469  17.5193679  18.2956529  21.1084771
  17.8068876  18.0331528  22.5711489   0.6461783  12.0560479  19.4450831
   0.2331596  12.3043942  18.6180568   0.0686974  12.4153900  20.1185966
  31.7514467  40.3432941  24.4535685  30.8347821  40.0757122  24.5195675
  31.7148709  41.2509727  24.1518736  27.2314477  58.4798574  17.1923220
  27.1763253  59.1376877  17.8854680  27.4307299  58.9811802  16.4016318
 103.9832310  32.3161292  46.3224220 104.7210680  32.5276613  46.8943357
 103.6906524  33.1630588  45.9857655  60.1280355  50.2410698  28.6922145
  59.2301226  50.1791906  28.3664036  60.2027464  49.5272589  29.3255568
  42.4950647  32.9530573   6.0187441  43.0892277  32.7179193   5.3060633
  41.9842863  32.1590614   6.1765629  84.2601633  75.7332795  84.0284517
  83.3388233  75.8424228  84.2639309  84.7340965  76.2783735  84.6565369
  21.5070772  51.9702721  40.5975294  21.8656611  52.8573942  40.5718851
  20.6064582  52.0669317  40.2880526   4.9990192  74.6229839  35.2528429
   4.6109644  75.1152468  34.5294333   5.9402156  74.7756720  35.1687813
  88.9608951   5.9443317  78.3804714  88.5569187   6.7141853  77.9800230
  88.5575898   5.2013622  77.9314989  37.7473450  68.8261747  36.3404560
  38.5839176  68.8297510  35.8753014  37.3908234  67.9514837  36.1854005
 103.4877415  36.7455363  29.1828060 103.8583873  37.3942161  29.7811937
 102.7890394  37.2133017  28.7253761  12.4439240  51.2099409   8.4313869
  12.7198565  50.4840469   7.8717738  12.7159286  51.9952679   7.9565078
   8.8554382  79.6543217  37.0155668   7.9469448  79.9328899  37.1307588
   9.3410701  80.4688644  36.8855453  27.3844361  76.1600304  35.0305986
  27.2046447  77.0501566  34.7279787  27.3777294  75.6301165  34.2334914
  37.4572754  37.0002747  26.0260963  36.7058420  37.2580767  26.5600610
  38.2074976  37.0766211  26.6156459 107.8814793  81.2767220  11.5272021
 106.9964029  81.1259365  11.1953366 108.1288360  82.1299171  11.1706746
  30.6728077  45.4052830  26.8701768  31.1540771  45.9726667  26.2679410
  29.7582102  45.6685448  26.7679954  50.7678509  63.4764624  16.4001715
  50.3140163  64.1804743  16.8634593  51.2235403  63.9167166  15.6827068
  24.1502619  27.1419287  20.9851980  23.9377832  26.5420794  21.7002249
  23.3257890  27.5894952  20.7950377  42.8572369  67.2468567  11.7336535
  43.2196712  68.1299400  11.8045998  42.3462343  67.2619820  10.9244084
  10.9319985  50.5786467  14.7276974  11.1591339  49.7052717  15.0468445
  11.1379766  51.1617041  15.4583454  73.7153482  73.4270239  28.4925485
  73.1424141  73.6464691  29.2272735  73.5820007  74.1369438  27.8644896
  16.6018867  45.5809450  33.2506418  17.1513653  44.8619652  32.9385853
  16.2005496  45.2452087  34.0521669  27.7273250  38.4133077  72.3436165
  28.0828595  39.2276239  71.9876385  26.7903900  38.5833645  72.4408960
   0.3919383  33.3456135  23.0346870   0.6094968  33.9301085  22.3085594
   1.2201364  33.2207990  23.4980893   3.3967465  56.3163137  26.5725183
   3.6066371  56.6185284  25.6888628   4.2033678  55.9048605  26.8828392
  11.7087972  62.1312428  28.2482028  10.8067501  61.9374228  28.5031056
  12.1085739  61.2724876  28.1105494  21.4513254  41.2309551  36.1434484
  21.9817281  40.4835558  36.4196730  21.3933325  41.7843866  36.9222832
 107.3805687  76.3081312   1.6635048 107.6861921  75.7143641   2.3492631
 108.1419183  76.8515825   1.4604253  75.0583850  16.8620287  84.1373813
  74.7754933  17.5803457  84.7032690  75.9650164  17.0744978  83.9157781
  39.5283628  45.0139236  23.7088490  40.3464699  44.7984123  24.1566086
  39.3474913  44.2508364  23.1600213   8.9822447  39.4803667  47.8426027
   9.4368505  38.7012911  47.5222826   8.4381455  39.1611505  48.5625267
  15.9082949  28.8615108  23.1548262  15.9171450  28.3265328  22.3611307
  16.8181050  28.8638163  23.4522676  26.8708754  33.8663411  34.5812058
  26.1410022  33.9057350  33.9631724  27.5445986  33.3626866  34.1244125
 101.6823808  40.9723806  37.6412082 102.1369515  41.8139648  37.6777101
 102.3288922  40.3373909  37.9494929   2.1736082  42.7875280  31.8499756
   1.5252376  43.3967018  32.2031832   1.7172067  41.9469643  31.8128061
  12.0156682  28.7833619  21.3145852  12.5527310  29.5710969  21.3998365
  12.0451510  28.5732388  20.3811979  29.2070317  59.8027706  31.3723898
  28.8345528  60.6278896  31.6833138  29.7090077  59.4710016  32.1168232
  26.3521004  53.7082291  23.2263446  26.2006187  53.0827951  23.9349508
  26.4287090  54.5548153  23.6664033  10.7113075  59.7441149  32.3618436
  10.2486646  59.9540186  33.1730986  10.0171828  59.6327353  31.7122173
  27.9076481  45.8766651  26.3921189  27.4502563  45.1318932  26.7824221
  27.6122522  45.8888102  25.4817224  35.4092383  54.8892069  31.5419126
  35.6888008  55.5313540  32.1943879  35.6549668  54.0437031  31.9173741
 104.2417828  67.8363609  22.1568489 104.4524319  68.7243891  21.8682933
 103.2978887  67.7572584  22.0188689  40.6904825  89.0262001  86.9400216
  40.8383846  88.6870521  86.0572219  41.5434921  88.9578336  87.3688943
  16.5925109  84.4353097  74.6826642  16.2471354  84.2292374  73.8140553
  17.4896419  84.1018432  74.6690017  12.6100409  49.7382975  29.0713120
  13.4715593  49.4738770  29.3939543  12.1086395  48.9238691  29.0321088
  21.2240338  71.8539429  30.1059794  21.0468531  70.9401655  30.3292608
  21.7100382  71.8093920  29.2825437  22.8535438  63.7142324  39.4936895
  23.2538867  64.3346500  40.1028204  23.5365582  63.5396910  38.8461876
  17.9602742  64.8856688  71.2535143  17.4161887  65.6081057  71.5670252
  17.6858008  64.1337967  71.7784739  12.5491202  52.8626966  12.3850548
  13.2489586  52.9232407  13.0352795  12.9068935  52.2979879  11.6999757
  32.0481110  29.5460629  32.8972006  32.5290251  29.8066020  32.1116638
  32.3692393  30.1342034  33.5807204  90.0970888  86.0141080  82.2876847
  89.3014765  85.4925840  82.3937207  89.9194860  86.5704554  81.5292883
  13.4217596  87.3943901  42.6989508  13.7462258  86.4992046  42.7969122
  13.2517362  87.4862671  41.7614603  96.5458234   7.6026474  73.7807637
  95.9060295   7.9143082  73.1406349  96.4933189   8.2336603  74.4986087
  50.4097915  94.4178765  87.6903050  50.1994848  94.2088884  86.7801800
  50.3093695  93.5876744  88.1560447   5.3849393  48.3723450  10.6816983
   6.1738861  48.9070749  10.7703459   4.6885809  49.0019798  10.4949450
 106.7291459  53.9474297  28.7864542 106.1694179  54.4989920  29.3330050
 107.3422202  54.5586348  28.3780384  19.4648516  59.4377422  32.0219803
  19.0483069  59.5608997  32.8749490  19.1833460  58.5669422  31.7414570
  22.3205638  70.8100367  24.7737098  21.6414309  70.7664299  24.1005754
  22.7849507  71.6272640  24.5928311  46.5272760  48.1572294  17.8319180
  46.4449930  48.0053473  16.8904328  46.8057108  47.3131704  18.1872606
  44.0488291  78.1247711  13.7128687  44.2832136  78.0706787  12.7863860
  43.2576990  77.5916767  13.7913013  51.8741512  86.5130806  19.7484410
  51.0356665  86.9725609  19.7030795  51.6369724  85.5914497  19.8512542
  28.1962419  71.1457491   9.1964078  28.9887500  71.5599108   9.5379275
  28.0426407  71.5786266   8.3566111  16.9692254  60.2254343  48.5456181
  16.5132964  59.6023464  49.1114140  17.2899246  60.9011316  49.1429567
   8.4415829  78.0783939  23.4156537   7.9679507  77.9721212  22.5906634
   7.9280204  77.5813818  24.0524125   7.8977865  47.1019363  24.3736625
   7.2492892  47.3491526  25.0328779   8.5700768  47.7807379  24.4326782
  79.2702953  40.7527447  55.7918310  78.8014356  39.9866533  56.1227512
  79.3833224  41.3141441  56.5588284   6.4318508  64.0276575  23.3896899
   6.4202636  64.9804878  23.2990766   6.5654153  63.7039566  22.4988413
  10.8390272  36.0211730  46.6285515  10.4967034  36.3608932  45.8017302
  11.7322767  35.7455254  46.4227486  11.9789934  58.5306740  37.9075694
  11.5237892  57.8088093  38.3410859  11.5524232  58.6045694  37.0538664
  85.3076347   4.5925699  80.3094434  85.6294771   3.7097107  80.4916757
  85.0561710   4.5700012  79.3861407  28.0606341  72.4845600  41.5350103
  28.9429879  72.1820259  41.3201761  27.7736497  71.9045162  42.2402954
  40.0209808  39.5215631  16.8255579  39.7873998  40.3728914  16.4555383
  40.3533792  39.0199280  16.0811746  62.8348684  55.1097250  20.2396226
  62.8339720  55.2584076  21.1852026  63.6523771  55.5042601  19.9359012
  15.7096601  70.6167841  41.3615799  16.6187036  70.6971931  41.6503811
  15.2303886  71.2454796  41.9012690 100.5577437  74.7448438  79.6775198
 101.3024537  74.1714781  79.8588735 100.3162305  75.1013964  80.5323732
  21.6507077  29.3400049  34.8695660  22.1210670  29.3067980  34.0365648
  21.0260868  28.6163211  34.8209429   4.6948397  63.9996910  36.2372613
   5.3698140  64.5090389  36.6858220   4.9664155  63.9980268  35.3193974
   9.8834407  82.4259281  30.9921527  10.3287160  82.9124451  31.6858816
  10.3103602  82.7143002  30.1854205  88.2494489  89.3926430  11.7726696
  87.9003588  88.5097885  11.8948734  89.1691701  89.3241215  12.0288932
 107.1673379   7.2532058  12.3719788 106.4975425   6.6277957  12.6485074
 107.9773693   6.9247651  12.7621162   5.6226730  42.8324938  38.9124393
   4.7999099  42.8384256  39.4015789   5.9468955  41.9361401  38.9999676
  26.9078946  53.8407803   0.6755736  26.3055801  53.3182287   1.2050913
  27.1859717  54.5483446   1.2571740  33.8297608  11.2828010  20.7765317
  32.9432344  11.3707011  20.4264235  34.3802120  11.1513846  20.0045443
  60.1493120  60.0402021   0.4728906  60.2131891  60.9952259   0.4637258
  60.6167889  59.7613239  -0.3144637   7.7124959  63.1389475  41.2043571
   7.3970473  62.4340439  41.7699003   6.9171709  63.5297966  40.8425236
  52.5577589   3.5648673  44.2412186  51.9148727   3.8858359  43.6088276
  52.3223802   3.9968913  45.0623035  13.8692355  65.7927990  55.6456995
  13.8727427  66.7496967  55.6695366  13.3347392  65.5741882  54.8823166
  71.6596586   1.3323294  85.4404279  70.7939836   1.0566221  85.1390588
  72.2053350   0.5513273  85.3482216  18.7042308   5.3739953  24.1277122
  19.4633055   4.9548781  24.5331478  18.7338889   5.0907111  23.2138729
  35.1054859  67.6382351  25.0599098  36.0476565  67.5887680  24.8983574
  34.7609806  66.8111134  24.7231269  31.6854453  41.1451817  31.1529469
  32.2169995  41.0169220  30.3673077  32.0016551  41.9688177  31.5242457
   4.8946717  58.3196115  44.3777418   4.3070969  58.9862537  44.0219593
   5.2204049  57.8522730  43.6085081 101.8138663  52.2044277  25.4610491
 101.8701879  51.7913866  24.5993876 102.6810579  52.5844955  25.6016159
  38.3868477   6.5262931  46.0963154  37.8983094   6.2613719  46.8756628
  37.7261101   6.5785258  45.4057169  11.8447733  70.1622915  13.8659370
  11.5947402  70.8480597  14.4851613  12.0281100  69.3995523  14.4144332
 100.7636283  33.6333394  13.9696074 101.0006009  33.0713964  14.7073698
 101.5674905  34.1106892  13.7642431  95.6402664  84.6772957  28.1571794
  95.9590773  83.8015938  28.3756590  96.3659493  85.2594662  28.3823371
  18.7516105  60.3826094  57.9683447  19.3477166  61.0618830  57.6529360
  19.3220973  59.6453285  58.1855774  15.3992236  51.2945509  16.8292081
  15.9102678  50.7051468  17.3838902  14.4976306  51.1868811  17.1321452
  25.2873421  71.8267727  56.9838285  26.1496568  72.1012402  57.2957802
  24.6696305  72.3380518  57.5065708  18.0768967  66.6259861   5.5055887
  18.7569129  67.2564936   5.2683753  18.3901942  66.2305069   6.3190210
   4.6510607  48.6950350  50.8325720   4.2783359  49.0807247  50.0397587
   4.8691279  49.4460249  51.3845634  95.4297559  46.8156338  62.5240326
  95.2319185  47.0627689  63.4273672  96.3710133  46.9653463  62.4354219
  20.5587125  17.7695394  20.0199652  20.6120205  17.6903713  20.9723949
  20.2904367  18.6759901  19.8696148  29.5583868  49.2733431   3.4225464
  28.6106205  49.1395807   3.4134638  29.7215724  49.8800755   2.7004126
  42.0063496  53.4278202  25.2352881  42.6110411  53.6580372  24.5298934
  41.4357853  52.7607965  24.8534918  44.3737173  71.5448618  15.8112562
  44.3240166  71.8611050  16.7133379  45.3097820  71.4260340  15.6503379
  22.4839330  12.7117538  24.2305946  22.9051995  13.5698962  24.1820407
  21.5751839  12.8764725  23.9790535  96.8067543  36.3755536  44.6941757
  97.2723119  36.6279125  45.4915476  97.2774450  36.8221998  43.9904785
  19.5717800  28.9453840  18.3370960  19.0222669  28.3052278  17.8849161
  19.1656339  29.0438724  19.1982460  23.5842967  58.7236547  36.6073155
  24.1615963  57.9601431  36.6045642  22.7389431  58.3858109  36.3115597
   6.9845295  76.6758204  29.2078876   6.0802799  76.4145565  29.3819714
   7.2233438  76.1976719  28.4138012  60.3531218  38.5503745  16.2990475
  61.0325956  38.9516902  15.7572949  60.7019424  37.6868224  16.5200293
  66.9943857  26.8356037  28.7236667  66.8062639  26.8084979  27.7855253
  66.5627241  27.6325297  29.0315771  43.6768866  53.0593348  31.2784886
  43.9125872  52.3141479  30.7258821  44.4930410  53.3000469  31.7168713
  -0.2120239  53.3612490  24.0631390  -0.3450587  53.2005501  23.1289506
   0.7137454  53.5930920  24.1368341  12.6357186  39.6462917  38.7631893
  12.7878428  39.7097015  39.7060943  12.6262319  38.7059045  38.5848165
  51.1560106  43.5287428  19.8443174  51.0993528  43.1074333  20.7019424
  51.8802357  43.0823898  19.4055700  19.7072601  47.5845289  58.7375879
  19.5761263  47.2302628  59.6170902  20.6578469  47.6453066  58.6431265
  39.4581199  14.5752442  12.3890483  38.7360716  14.5790613  13.0174303
  39.0366745  14.4372141  11.5407777  26.6784525  76.2832975  49.8462105
  27.2746944  77.0033789  50.0516462  25.8539128  76.5277529  50.2664518
   4.7805238  68.7987900  21.3719225   4.6121415  69.7369576  21.2840319
   4.2038172  68.3904266  20.7262588  29.3444848  69.2455339  51.1984348
  28.4383655  69.1702175  51.4976168  29.8387933  68.6730957  51.7851257
  93.8556198  35.7887435  45.4180908  94.6829061  36.1933637  45.6790733
  94.1137616  34.9825859  44.9712038 101.2042103  51.0667467   8.9818633
 100.4054747  51.1875868   9.4953334 101.0466413  51.5568876   8.1749147
 101.5483008  60.1605988  28.6060810 102.0788721  60.5288839  27.8996181
 100.6456695  60.3563643  28.3547568  14.6218622  12.7961826  18.8801992
  15.4699647  12.7530122  19.3218875  14.1274476  12.0589888  19.2384350
  41.0898256  38.2414174  14.7137475  40.5024624  38.1619453  13.9621329
  41.1471987  37.3539448  15.0677729  32.9183602  75.7505035  74.3924046
  33.3281183  76.2647629  75.0880051  32.4412155  75.0608015  74.8537874
 102.9343732 100.0512955  17.1648860 103.5601219  99.4246919  17.5282586
 102.2294577 100.0881333  17.8113914 100.3230916  55.0342751  15.5031526
 100.4981885  54.6680593  14.6362865 101.1724256  55.0218868  15.9444129
  79.3091535  85.6895106  84.8740819  79.9425506  85.6301897  84.1588759
  79.7383070  86.2400454  85.5290386   6.5048212  45.1057434  10.4150438
   5.6451964  44.7250319  10.2352130   6.5895993  45.8166313   9.7796834
  93.6372654  37.9391694  28.4344220  94.3240837  38.6016631  28.5093451
  92.8957526  38.4054947  28.0485082  88.5808615  74.7819328  23.3424306
  89.1738419  74.9236155  24.0803552  89.0854482  75.0506163  22.5746846
 106.4172944  21.1256719  42.5700474 105.7403613  20.4564548  42.6707554
 106.3158255  21.4354539  41.6700649  32.3412371  45.5622149  71.1575079
  32.3128891  45.2434254  70.2553988  31.7586803  46.3217211  71.1615610
  -0.0770500  46.9923544  36.9051957   0.3177160  46.9824266  36.0332489
   0.4129419  46.3337135  37.3974633  31.0627198  29.2889214  46.0361195
  31.6413498  28.6712193  45.5890560  30.2667832  29.2992377  45.5045080
  13.8997817  32.2998285  79.4590044  13.1738770  32.3220491  80.0825405
  13.7304163  31.5259504  78.9217329  98.9249317  63.0166292  57.7651930
  99.4859533  62.4823380  58.3273506  99.0013466  62.6152182  56.8995953
   4.1827023  56.6879463  39.9461532   4.0203172  55.7480240  39.8661232
   4.0775383  57.0257568  39.0567374  19.6674359  74.5470047  54.8173046
  19.7317445  73.6044836  54.9714375  19.2737103  74.8942709  55.6176853
  32.3766494  85.4583645  66.1632919  33.0468583  85.8784580  65.6242371
  32.0152593  86.1689758  66.6930628  19.8600578  51.9309855  44.1198778
  20.4122305  51.2873030  43.6760187  20.2248073  52.7776575  43.8623190
  19.3738508  89.2426205  54.1159344  19.9583054  89.6189785  54.7739601
  19.8983192  89.2183685  53.3155727  24.7545671  49.0183783  14.2517912
  24.8976445  49.8922062  13.8882101  23.9589071  49.1047668  14.7768581
  37.0259285  60.8517075  23.9532256  36.6839743  60.2814722  24.6417975
  37.9719043  60.8624792  24.0989804  10.4791462  55.9253597  27.1765542
  10.7948446  55.3673124  26.4658141  10.4507685  55.3482199  27.9396629
  96.1331682  31.1250401  38.5756493  95.9106557  32.0206308  38.8298869
  95.3030614  30.6504321  38.6192441  96.0830673   4.7836290  74.6165341
  95.1565560   5.0034653  74.7138899  96.4967378   5.6036125  74.3468445
  38.4413242  67.2347593  49.0093040  39.1260815  66.6443014  49.3234634
  38.8437939  68.1028843  49.0339375  33.3209515  22.1863890  22.2582698
  32.6431704  21.8866944  21.6524434  34.0065312  21.5210485  22.1988249
   6.7749959  26.2653971  15.8509314   6.4568001  25.3728700  15.7153642
   6.9380593  26.3211131  16.7924929   5.4899508  86.3383770  55.4084301
   6.3881999  86.0088444  55.3802919   5.5002195  87.0032978  56.0969067
  52.3575449  62.9787493   6.9305605  52.3820734  63.6797857   7.5818455
  52.8224087  63.3376598   6.1747080  14.8572198  48.0055367  87.4268041
  14.6430675  48.1729733  86.5090169  14.2040912  48.5022961  87.9196307
  48.5229158  88.3167934  33.3243775  48.2978725  87.3880005  33.2703090
  48.2840157  88.6713696  32.4679685  24.5581746  63.7420321  11.4090240
  25.1418018  64.4999456  11.4433479  24.5926547  63.3730221  12.2915637
  59.2220688  81.6511631  19.7853351  58.2886934  81.4490509  19.7205603
  59.3193960  82.4839783  19.3236196  40.1476812  63.1203413  53.6261606
  41.0495329  62.8025532  53.6699009  39.6218443  62.3313904  53.4946775
  23.1029582  54.5235205  70.0399876  22.4629068  54.6491432  70.7405472
  23.5413885  53.7017441  70.2606583  57.0868349  63.4037447  15.0446451
  56.8733072  62.9218817  14.2456186  57.8914547  63.8763905  14.8315132
  54.7336435  65.5790949  18.1081629  55.1990366  64.7993422  18.4108591
  54.5407629  65.4006863  17.1877289   1.9792859   4.8666035  87.1204447
   1.9774691   4.1097961  86.5343784   1.0619489   5.1360403  87.1665419
  50.6772566  65.0519896   7.8975576  51.3058853  65.7247877   8.1590968
  50.2472782  65.4141474   7.1228355  94.0114848  34.9985123  57.4303627
  94.3279592  35.7261181  57.9657745  93.1818513  34.7460818  57.8356028
   5.9748212  30.7533299  75.2602881   6.9143240  30.9355007  75.2797764
   5.6561796  31.0468327  76.1138433  26.6315293  54.7977114  19.2045724
  27.0666194  55.6502914  19.1984236  27.3406839  54.1678381  19.3333817
  23.6485481  29.7670364   2.6033977  23.4014511  28.8772011   2.3516665
  24.4294238  29.9551296   2.0827396  35.0146174  59.3461657  14.2362607
  35.5151772  59.7834682  14.9250543  35.6723356  58.8756371  13.7241673
 105.5585982  92.1335506   0.0709666 105.4212452  91.1941624   0.1930427
 106.4828695  92.2117519  -0.1653359  66.8106365  41.4874506  24.6603656
  66.1582804  40.9423399  24.2204571  66.3130760  41.9717598  25.3192329
   4.5045874  49.9276018  31.4555216   4.6210459  49.2754126  32.1464062
   4.2887887  49.4151974  30.6763530  39.7362518  51.9483662  29.4517136
  40.4175138  52.6206446  29.4643164  39.1447330  52.2199249  28.7498641
   7.6847851  79.2209816  65.9017992   7.8607643  78.3124113  66.1462641
   7.9572260  79.2796898  64.9860668  13.4077966  47.0676279  19.9196041
  14.2753887  47.0776987  20.3238511  12.9718006  46.3086987  20.3071165
  36.2357998  66.7208290  58.8459015  36.0127187  65.8430529  58.5361004
  37.1526694  66.8369484  58.5967064  23.3258176  61.4756393   7.9464620
  24.2045999  61.8550158   7.9397047  22.9811454  61.6851807   8.8145208
  73.1567621  43.8668346   4.5766005  73.9909649  44.3221474   4.6907163
  72.8005648  44.2202187   3.7614483  67.1313334  91.9269466  25.5228615
  67.6362896  91.7032433  24.7410631  66.2176752  91.8471622  25.2488160
  42.4998760  54.0784073  20.8946562  42.2066069  53.2043839  20.6371570
  43.3876085  53.9449739  21.2268591  47.8303099  20.0688767  25.6536078
  47.6195860  19.7359419  26.5259504  46.9790411  20.2308393  25.2469778
 105.0595434  53.0493021  44.6713018 105.3523843  52.1686268  44.9055910
 104.4739754  53.3045626  45.3841734  15.6547153  31.2221003  14.4239473
  15.3761208  32.0691085  14.0758204  16.6099262  31.2770891  14.4518661
   6.7643923  39.2353010   6.5798587   7.3549819  39.7443366   7.1351212
   6.8053204  38.3480835   6.9367957  39.3477225 101.5311241  31.7937708
  38.9161515 101.4744091  30.9412694  39.0959454 100.7247066  32.2438073
  32.1615934  62.2030640  31.2967157  31.6563964  61.9985437  30.5098367
  32.9564118  61.6760111  31.2147665  79.1029024  94.7991222  88.2265493
  79.6240759  95.1951211  87.5281234  78.2366419  95.1954740  88.1331207
  19.6335208  21.5614271  31.9832063  19.4831264  21.5848231  31.0381842
  19.1020429  20.8277559  32.2922230  57.4634552  88.1730431  84.7311175
  57.4620104  88.4972923  83.8305109  58.3306479  88.4007900  85.0662857
 104.7325016  48.5371304  15.8994651 105.3635604  47.9791355  15.4448915
 104.3115048  49.0399170  15.2021849  46.1375093  80.7828331  34.3927693
  46.5296459  79.9129343  34.3170834  46.7584705  81.3644600  33.9541888
  34.1902518  65.3982353  27.1174002  33.5197783  66.0318375  26.8619657
  34.9793887  65.6865501  26.6587377  51.0415840 101.5490913  55.6896925
  50.2568531 101.4238167  55.1560879  50.7693434 102.1572304  56.3769245
   6.7679870  77.6709223  55.3338528   6.5448439  76.7977238  55.6562853
   7.6037592  77.5531769  54.8823547  19.6421850  73.4433460  44.1724253
  18.9712727  72.9784298  44.6723890  20.2971292  73.6925411  44.8244858
  92.3589782  59.7798491  35.5705070  92.0802931  59.9118471  36.4766765
  91.8391280  60.4058695  35.0664377   9.0583414  71.1444378  48.1942892
   8.9161879  71.6375256  47.3862743   9.0655285  70.2281332  47.9175854
  82.4929039  60.8179426  23.4340882  81.7822305  60.8317184  24.0751696
  82.8098361  59.9148273  23.4472179  41.1934853  61.7041016   9.7245306
  41.1322355  62.0142412   8.8210416  42.1094608  61.8444729   9.9643689
  35.1675415  71.8945074  11.6070485  35.2741504  70.9451675  11.6671979
  35.3518462  72.2126913  12.4908030  29.1688943  95.0139236  40.3865051
  29.0717697  95.6975365  39.7235751  28.4309602  95.1500130  40.9807825
  26.1018682  71.8332005  38.9917874  26.2562299  72.5692177  38.3995986
  26.9750834  71.4876652  39.1770864  52.7205467  86.5123558  16.2064958
  51.8264341  86.3161469  16.4863062  52.6609516  87.3789692  15.8044171
  64.5914268  37.5059938  26.0355234  64.9513054  37.1038675  26.8261027
  64.0320396  38.2120323  26.3592958  61.2544775  80.5467892  29.1156888
  62.2114182  80.5684948  29.1103506  60.9961128  81.2205124  28.4867358
  80.9670258  83.7654305  22.1003604  81.8303680  83.3933830  21.9202256
  80.3853512  83.0069733  22.1517277  12.2559857  87.3790169  10.4672468
  12.4415791  87.7305412  11.3380039  11.3602817  87.0471287  10.5288506
  31.6301823  64.3879223  41.0365963  30.9911585  64.2742252  40.3330660
  31.1010242  64.5624399  41.8149042  31.5473461  83.9031124  11.5031707
  32.0473576  84.1113853  10.7139683  32.1380734  83.3594990  12.0244718
   4.9157450  39.4002151  42.9501390   5.0358850  40.3207397  42.7168369
   5.7635373  39.1299105  43.3028650  11.5512884  66.0790968  16.6097105
  11.7884159  65.6642914  15.7802904  12.0995533  65.6421328  17.2614002
  21.4813089  75.2309179  16.7981362  21.3743567  76.1687994  16.9568002
  20.7836413  75.0113773  16.1806452  51.6413355  74.2135191  20.6897163
  50.7015228  74.3843508  20.7513404  51.9329977  74.1480160  21.5990448
  44.4483328  90.8858871   7.2827333  44.1735315  91.0884285   8.1769902
  43.6746979  91.0646057   6.7481512  43.2922888  92.7166176  22.2759962
  42.4019575  92.4717617  22.0238185  43.2195759  92.9694557  23.1963301
  38.3551931  68.6121273  25.8166790  39.3035388  68.4926224  25.8675456
  38.0910635  68.1071711  25.0475979  47.4006557  12.4655020   5.5350500
  48.0605030  11.8710744   5.1779944  47.0639229  12.0128965   6.3083500
  46.5493011  88.3499718  22.2318649  46.6988468  87.7232647  22.9397559
  47.4032640  88.7580585  22.0888853  27.6856232  65.2592754  27.7049351
  27.1896625  64.9119711  28.4463096  27.0886993  65.1828575  26.9605732
 103.4390483  39.9957776  65.6658506 103.7872468  39.1043162  65.6828117
 103.5167609  40.2658987  64.7508526  95.9257702  64.8168278  40.4768229
  95.0429622  64.7958612  40.8462048  96.0518710  63.9426136  40.1079226
  28.8385177  49.2614365  38.0778265  28.6802173  48.8141251  38.9091420
  28.6870170  50.1866198  38.2710147  91.7485039  40.9066629  29.0895820
  91.0939221  41.6050434  29.0850282  91.7796366  40.6016541  28.1828117
  73.8042927  69.2874575  14.9836409  74.7086668  69.4198608  15.2679110
  73.3008242  69.9347115  15.4774165  33.0465269  80.5172253  32.8355789
  32.8360868  81.3799286  32.4782419  33.3701491  80.6961250  33.7184691
  43.5658598  77.7347803   2.9448944  43.2123137  78.2517624   2.2210392
  44.1795063  77.1290350   2.5292712  42.0683146  79.3444872  11.6330099
  42.7054453  78.6791325  11.3730240  42.5784159  79.9826002  12.1318495
  83.6030952  71.7808294  28.2384372  83.7656037  72.6610947  28.5774899
  82.8379552  71.8798637  27.6718831  30.4767776  53.5647058  31.1978674
  31.1211538  53.1564569  30.6196427  29.7286010  52.9678679  31.1819792
  15.3822017  67.2551537  31.1719275  14.8338258  66.5088463  30.9299755
  16.2757158  66.9124508  31.1514306  46.1141153   4.2683356  34.0434599
  46.0254618   5.2209704  34.0142179  46.6123887   4.0498679  33.2559156
  20.3146219  80.6991482  37.6567173  20.0223041  81.1025429  38.4740663
  21.0698390  81.2223339  37.3881078  30.3559184  77.1447754  19.2803824
  30.7706356  76.2823248  19.2598629  29.4173288  76.9600821  19.2461884
 106.0082388  97.7638715  87.4109084 105.1847362  97.5347274  87.8416832
 106.6655063  97.7058976  88.1043538  14.5663285  99.8873425  49.5705843
  15.2630115  99.7702408  48.9247131  14.5948243  99.0908432  50.1006937
  28.9476037  87.4816132   2.6005927  27.9947543  87.5424099   2.5326696
  29.2532682  87.4878693   1.6935301  35.2794027  95.9218216  12.5928891
  34.9597716  95.5752182  11.7598653  36.1307526  95.5020142  12.7161229
  61.4934969  64.4671297  33.5574579  61.8021297  64.5400858  34.4605947
  60.9794998  65.2619600  33.4150505  34.3977618  56.8359184  60.1280975
  34.2605853  56.1130810  59.5157957  35.1246738  57.3329639  59.7528934
  26.7391920  41.0037327  53.7654829  25.9093070  40.6214190  53.4802485
  27.3991060  40.3565502  53.5166836  18.1317723  45.4487419  36.1425996
  18.2885480  44.5047903  36.1672568  17.1806836  45.5318546  36.0736442
  40.5129862  66.9623995   5.4302329  40.0472975  66.1286163   5.3656358
  40.2302980  67.3303938   6.2674302  26.8786359  61.7379093  38.6466360
  27.1534133  60.8644342  38.3677530  27.4775457  61.9613028  39.3591213
  32.0350766  88.7709141  52.2263575  32.8525591  88.9874649  51.7779636
  31.7029905  88.0029869  51.7613411  20.3165531  63.0473423  31.1219645
  20.2485561  62.7221203  32.0196486  20.8968472  62.4241734  30.6847596
  25.0451660  82.3407841  61.9185543  25.1728296  82.7460003  62.7763033
  24.3083501  81.7426777  62.0434952   7.4445730  85.2928925  59.8322105
   7.4819720  84.5970249  59.1760063   6.5541083  85.2462864  60.1802540
  28.5784626  71.2528419  49.3287945  28.3702064  71.8239164  50.0682116
  28.8840747  70.4404163  49.7322798  34.3199110  73.1873941   4.3283585
  33.4513712  73.2493734   3.9308310  34.6292305  74.0922642   4.3703353
  33.8366199  67.2873735  32.0771503  33.9866853  66.7283201  31.3148046
  32.9561639  67.6394176  31.9463992  28.7250924  42.7247334   9.1564304
  27.8827786  42.8266191   9.5995557  28.8366413  43.5380077   8.6641115
  32.8891039  81.0337353  42.9885626  33.0185556  80.2418423  42.4666595
  33.7749267  81.3331795  43.1932116   7.5036609  69.1951942   4.1063192
   7.0649648  68.9214373   3.3008167   7.5808388  70.1458740   4.0258056
  94.6822127  35.3729664  87.5702790  94.0520390  34.9483143  88.1523292
  94.4808873  35.0223862  86.7026433   5.8943516  67.4274111  41.7303896
   6.0487163  66.9088030  42.5199795   4.9976224  67.2121286  41.4739466
  32.2086883  92.3087120  22.8929925  31.7300725  91.7103386  23.4666800
  31.5441847  92.6490498  22.2939658  96.2768654  89.1130066  -0.0501533
  95.5496578  89.0439987   0.5684246  96.6799764  88.2448483  -0.0437316
  29.1579723  83.4821892  10.1111567  29.9638414  83.5065651  10.6271160
  29.2290354  82.6800346   9.5937252  47.7755292   3.0706637  48.3571339
  47.5447269   3.8165229  48.9108992  46.9346043   2.6825278  48.1154156
   6.5251255  77.9868507  44.7006559   6.6793180  77.9374981  43.7572432
   7.3845804  78.1824303  45.0739050  11.2847316  51.7106009  22.1221781
  11.3967407  51.5046358  23.0502224  10.4409456  52.1602631  22.0767784
  82.4054909  71.5619326  41.0282040  82.1189213  72.4272394  40.7360601
  82.6273251  71.0979033  40.2209234 101.7796095  19.5182644  79.1024071
 101.6771134  20.1777016  78.4162068 101.4568551  19.9458633  79.8956406
  13.7707317  75.7315350  14.0271282  13.4241962  76.5829706  14.2939675
  13.3131063  75.5319691  13.2104385  37.3491454  83.8256264  45.5403709
  37.3283911  84.5675373  46.1448240  38.2610869  83.7755489  45.2538633
  28.4287739  96.4442539  28.1783962  28.1739402  95.5362606  28.3422470
  28.4505153  96.5184784  27.2243261  21.7675821  43.3181988  86.7821289
  22.6860658  43.0487572  86.7874787  21.3049690  42.6006638  87.2149934
  71.3109907  19.4424766  30.5066538  71.3817056  20.3184836  30.1273704
  71.0044893  18.8931411  29.7851896  30.6708360  76.1125040  33.5888410
  30.0654483  75.4174614  33.3306646  31.5383911  75.7610607  33.3886695
  34.6775293  61.4120626  30.7197046  35.3450036  61.9266701  31.1734509
  35.0997615  61.1362362  29.9061489  33.0834746  74.9620152  12.1801853
  32.6603532  74.1194248  12.3452199  32.7491403  75.5368471  12.8686762
  81.3110344  82.1313190  15.8167899  81.4016406  81.7129803  16.6729546
  80.5269567  81.7339993  15.4378557  59.2914295  58.5672188  22.8918266
  58.3800650  58.2762814  22.8601575  59.4666719  58.9020014  22.0123696
   3.7819135  51.0680151   0.2055221   3.7019697  50.1622629  -0.0935633
   4.1207102  50.9965563   1.0979025  39.2811823  97.1815395   9.9891448
  39.6908689  97.2337627   9.1256279  38.5070920  96.6348743   9.8543233
  25.7250381  32.1074939  47.0385313  25.8441281  31.4867878  46.3196611
  25.9330893  31.6047215  47.8260374  22.8689289  42.4097824  31.2698984
  23.6413836  41.9617748  31.6146159  22.1622586  42.1617413  31.8659902
  24.5596886  67.2959614  52.3699474  23.7851214  67.7325392  52.7244616
  24.4503498  66.3773203  52.6156521  28.7219381  71.2760353  37.6356530
  28.4098792  71.6907215  36.8313599  29.6297812  71.5677977  37.7188921
  32.1977782  38.4726763   9.2319930  31.4961123  38.1676388   8.6567992
  31.9207263  39.3473935   9.5046580 104.9187420  54.4545603  25.1306534
 104.9405966  54.4761610  24.1739464 105.7734282  54.1043949  25.3819060
  41.8897629  48.7644529  29.9442291  42.0771599  48.2848454  30.7511282
  42.5406647  49.4660425  29.9259496  23.2159781  83.5272694  53.2638025
  22.5515795  83.4544373  52.5786018  23.9376473  83.9993954  52.8484440
  48.4939814  35.3161192  49.4141054  48.2457352  35.9008002  48.6980391
  49.4279146  35.4803705  49.5446062  31.5612507  54.2306900  17.5017774
  31.5280342  53.8319111  18.3713210  30.6886125  54.6032906  17.3756647
 100.9475239  29.6558033  82.8456455 100.5441507  29.1116272  82.1693355
 101.3283642  30.3912388  82.3657322  32.7614737  59.7643137  24.4662142
  32.8920674  58.8466692  24.2272568  32.8679204  59.7816277  25.4173183
  59.3730164  93.3536625   4.3456748  58.8386059  93.9865589   3.8660109
  59.3394899  92.5592232   3.8127697  30.7594395  72.3868465  34.3536353
  31.4804363  71.7875481  34.1606545  30.1632380  72.2912931  33.6109066
  42.3000574  84.1021061  24.7668409  41.6142988  83.5689831  25.1690149
  42.0085192  85.0046253  24.8960495  98.8207660  92.1335793  22.5544167
  99.7242312  92.1736145  22.2407627  98.5484515  91.2315559  22.3858213
  98.2032923  48.3058453  29.5343733  97.7248089  49.0818071  29.8262024
  98.9334343  48.2296085  30.1486301  32.8729749  81.4385605  24.8386621
  32.2252488  82.0542049  25.1816893  33.4178925  81.9652748  24.2539620
  50.9734392  89.5663166  16.4245939  50.2331638  89.7695351  15.8528209
  51.7438507  89.6768093  15.8673739  51.8383690   0.7534831  24.3335009
  51.4992913   1.6234820  24.5441341  52.7455088   0.7696670  24.6385717
  31.6928077  36.0923600  22.1439266  32.1040034  36.8482161  21.7246032
  31.1239433  36.4705110  22.8144693   3.6433962  87.6457787   4.4569618
   4.4282931  88.0575180   4.8184007   3.9522025  87.1851921   3.6767507
  42.1882105  55.3702831  30.3715348  41.9098711  55.0732374  29.5052075
  42.5365877  54.5849228  30.7935238  94.2944225   1.8132053  64.4918817
  94.0172537   1.4268099  63.6611551  93.5457095   2.3391472  64.7730320
   4.8215863  64.1480112  41.2281609   3.9158419  63.8389397  41.2099028
   4.7964913  64.9901676  40.7738733  36.0726237  65.1701880  46.8510532
  35.2164149  64.9318504  46.4956236  36.0974956  66.1254549  46.7955971
  18.5883951  55.4291248  19.1324496  17.7073014  55.3168154  19.4892275
  19.1527629  55.4910088  19.9030936  14.1718864  35.7730603  10.5347669
  14.6689737  36.5772963  10.3852975  13.2840610  36.0729933  10.7297969
  57.5985432  98.0693626   3.3158174  58.4659815  98.4439945   3.1627235
  57.1890831  98.0519867   2.4507920 104.4159598  40.2338362  20.7954502
 103.6021159  40.1348591  20.3013921 104.6464778  41.1573887  20.6947494
 100.4821332  35.9987198  81.5613925 100.7982524  35.7732426  80.6864869
  99.5402916  35.8315979  81.5262001  80.0444031  76.5734594  79.2359644
  80.3799295  77.4425524  79.4558090  79.7720241  76.6462153  78.3212256
  49.6484566  46.7928839  27.7448368  49.4987202  46.9353294  28.6794591
  48.7990665  46.9628620  27.3375535  49.8435187  81.6923588  85.9714484
  49.1530478  81.1072581  85.6597818  50.1874387  81.2615150  86.7539596
 101.1509593  23.2590090  86.3898293 101.5603908  23.5573946  87.2019633
 100.3724225  22.7810656  86.6756320  99.5505117  50.5153990  34.1892838
 100.1485215  51.1468697  33.7894630  98.7398938  50.6024408  33.6877322
  32.4100184  36.6845202  34.5787120  31.9190073  37.5028157  34.6530771
  32.2289419  36.2213707  35.3965974  28.9188123  43.7389565  30.2311635
  27.9755187  43.8737154  30.1402259  29.0221477  43.3458328  31.0977697
  56.4122232   0.5837189  58.1602901  55.9949287   1.3533054  57.7732080
  56.5633841   0.8271490  59.0735954  44.9549580  77.5920391  55.4079628
  45.8714247  77.3847055  55.2254009  44.4935083  77.3702097  54.5992041
  46.5780067  66.3355350  23.1842685  46.1389971  65.7100058  23.7606525
  46.8247652  65.8208370  22.4158740  48.2621606   4.0174907   6.6437000
  47.3169013   3.8694804   6.6721624  48.5995694   3.5596507   7.4136150
  16.5197420  35.0995064  37.9663801  17.2014797  35.5737400  38.4423709
  15.7873213  35.0522327  38.5808372  36.7650127  75.1297474  62.3566341
  37.3336601  74.3697786  62.2328711  36.7484188  75.5583525  61.5009165
  30.5132675  51.8122292  47.1473503  30.2114677  52.6833582  47.4047995
  29.7887588  51.4484501  46.6384459  21.3634014  61.9545269  56.5115404
  21.0490632  62.8543091  56.5999222  21.2434340  61.7488813  55.5844212
   6.2062800  94.5807743  48.9685869   5.3588772  94.2686558  48.6512184
   6.0487139  95.4920673  49.2154741  98.4043129  26.3195740  78.4989643
  98.5164102  27.0546995  79.1016751  99.1196664  25.7214247  78.7150973
  32.0154119  74.0350962  58.3270454  31.8153715  73.1045866  58.4288454
  32.0430183  74.1719437  57.3800802  69.4918346  81.5856361  34.5104456
  70.0969172  80.9768581  34.0867829  69.8627234  82.4510098  34.3378091
  77.2616243 100.8527558  76.9444865  77.1815586 100.4332822  77.8011435
  77.2845363 101.7899316  77.1379059  83.8019808   2.9682963  10.3363454
  84.6238097   2.6722854  10.7277691  83.4127816   3.5387271  10.9991825
  72.9897221   1.5029090   5.8255827  72.3929270   0.7629054   5.9371775
  72.9272040   1.7229789   4.8961228  37.0530295  79.1422081   9.4160432
  36.4986753  79.2747307   8.6470443  36.9779277  78.2072973   9.6071923
  40.4528046  67.4028111  23.3080316  40.2475071  66.5950489  22.8372765
  40.8262634  67.1077251  24.1385055  40.6006908  69.8346329  22.2904348
  41.4855909  70.0726175  22.5671053  40.4727602  68.9497089  22.6321578
   9.1588807  77.4023294  78.2197285   8.5614163  78.0174017  77.7943468
   8.9465743  77.4673080  79.1508245  36.0504937  52.3386526  29.7055769
  36.2877202  51.8609524  28.9107442  36.7429805  52.9914331  29.8083711
  55.1613760  47.7035809  16.4953685  55.7163334  47.0835924  16.9685233
  55.6936455  47.9806614  15.7496154   0.7570168  55.0108671  85.4787827
   1.6224888  54.8190308  85.1176834   0.4166025  55.7132149  84.9246502
   5.4465359  88.6526966  26.4351320   5.0569195  89.3790436  26.9218040
   5.8116108  89.0594196  25.6493020  82.5709339  29.9392544  82.2724658
  82.0691439  30.0698601  81.4678669  83.4469910  30.2635513  82.0636910
  21.4187288  87.7391338  17.8587413  21.2182593  87.5279331  16.9469106
  22.3750854  87.7461338  17.8982878   7.7988613  69.9351549  39.3605876
   8.1518692  70.4759741  40.0670815   8.5486829  69.7675943  38.7896919
  41.4565897  73.3056307  48.4052706  41.9962072  73.0521917  49.1541433
  41.9423532  72.9913187  47.6427269  69.6674299  37.5169015   1.6387397
  69.9047089  38.3997798   1.3550918  69.1399240  37.1681404   0.9201742
  58.8727713  89.4041538   7.7752489  59.1753435  90.1784515   7.3007596
  59.4296265  89.3670177   8.5529160  41.3395786  44.3856621  19.6756780
  41.1767864  44.0111351  18.8099635  42.2798109  44.2706728  19.8134410
   3.6876300  70.0442410  60.1396084   3.1381470  70.8205366  60.2476072
   3.0726138  69.3439245  59.9215603  55.2230692  86.1958885  65.7884312
  55.0078392  86.4519787  66.6852713  55.9140825  86.8036556  65.5250835
  97.2351321   2.8808063  34.9668956  97.2243889   2.0180457  35.3813386
  97.8015002   2.7724688  34.2028761  27.7939439  52.0919228  18.0290818
  26.9136572  51.9438887  17.6835215  27.8531885  51.5134573  18.7894118
  37.6525545  92.4104691   6.4444774  38.3717847  91.7792511   6.4220577
  37.4428082  92.5673771   5.5238163  32.3865318  83.8026428  37.9343748
  32.9466224  83.1512070  37.5122905  31.9300294  83.3169651  38.6213660
  27.5232315  69.6964407  35.2559280  28.2836199  70.1440239  35.6270194
  27.8433990  68.8211441  35.0378084  40.9088304  15.2903598  39.3756461
  40.6188794  14.3805640  39.4422913  40.4490455  15.6327384  38.6090899
  83.1351527   5.8417170  17.6937509  83.5535105   6.6913169  17.5545037
  83.7884768   5.2032893  17.4077380  52.9944515  95.4886627   9.7701693
  52.4487448  94.8909473   9.2591172  53.8808250  95.3472996   9.4376224
  44.1181660  43.6507177   2.8540406  44.6517038  43.3041668   2.1388686
  43.2701683  43.2187748   2.7512807  36.4312339  91.7811012  19.5246518
  35.9828711  91.4825249  18.7334156  35.9761500  91.3367462  20.2399635
  44.2470884  97.6492691   3.5097283  43.6932135  98.4290791   3.5465688
  45.0615454  97.9135418   3.9375731  48.3888102  67.9995251  31.8350697
  49.2442656  68.3828974  32.0285988  47.8051615  68.7521458  31.7394447
  43.6208630  39.4482040  15.0810373  42.8142786  38.9695573  14.8898518
  43.3366060  40.1966143  15.6057370  92.4742135  18.8776439  36.1876178
  92.7696331  18.8669913  37.0980263  93.2730111  18.7531035  35.6751323
  15.5550897  62.3565960  23.9774299  16.1666501  62.7493668  24.6002913
  16.0653687  62.2518396  23.1743884  34.1626787  63.5345697  64.5408726
  33.8527012  62.7048540  64.9038076  35.0918818  63.3867598  64.3648958
  29.4104457 101.7021751  53.5790157  28.7012148 102.2666168  53.8866425
  29.0824676 100.8125019  53.7099886  53.1043530  74.1976738  13.5589743
  52.8806639  75.0515652  13.9291918  52.8262615  73.5679674  14.2240822
  87.9662045  10.2980559  18.4447312  87.4063929  11.0722297  18.5039425
  88.0473574   9.9915259  19.3478835  14.2658925  70.5729437  23.6923599
  14.3625450  69.8871851  24.3531370  15.1636219  70.8213854  23.4719253
   5.4799358   1.5668427  77.7198487   6.2805549   2.0200192  77.4555188
   4.7728244   2.1531282  77.4506038   3.3824411  68.5547447  50.4628563
   3.6485273  68.2539797  49.5939636   2.8142643  67.8590012  50.7935381
  53.3742428  49.7529221   5.6403780  53.9834833  50.0609589   6.3113278
  53.1533670  48.8610458   5.9087038  63.2060719  63.7914038  25.5527472
  62.5857067  64.2989826  26.0759473  62.6638365  63.1493473  25.0945115
  36.8412709  87.9981232  19.0768814  36.8521762  87.1619797  19.5427024
  37.4875498  87.8918552  18.3788395  38.2681322  86.9363785  39.8790121
  37.8286529  87.7776814  40.0027227  38.3605289  86.8516827  38.9300537
  21.1327314  80.7245445  72.9480791  20.6427264  79.9023294  72.9383373
  20.9683132  81.0910702  73.8169050  89.2433794  41.3569396  12.8201067
  90.0946053  41.0426562  13.1248581  88.6290654  40.6678336  13.0730665
  48.5356661   2.4991744  38.5180163  49.4104620   2.7460998  38.2180285
  48.6132868   2.4534648  39.4709682  51.7812681  78.0742216  22.4473715
  52.6538229  77.6829195  22.4893355  51.3704395  77.8330564  23.2776070
  37.4493766  79.0753460  37.0320439  37.0446944  78.4875774  37.6700044
  38.0708885  78.5229063  36.5579510  38.2982393  15.0205367  36.5412617
  37.7649047  15.8150619  36.5639615  38.1622905  14.6162456  37.3981762
  25.8997703  49.1587162  22.7036715  25.8316302  49.4645214  23.6081457
  26.7537165  48.7284851  22.6599908  12.0049000  71.2790728  41.4195967
  11.4606476  70.8710241  42.0930338  12.6037037  71.8454647  41.9062901
  60.0499439  81.4341259  36.3006425  60.5471992  80.8367920  35.7419229
  60.2814054  81.1760616  37.1928644  17.5499165  69.0448713  30.0709200
  18.1310523  69.0123320  29.3110180  17.9611254  68.4649992  30.7119226
  30.3360868  74.1497755  16.8292105  29.4923401  74.6008301  16.8587720
  30.9759116  74.8232269  17.0601165  42.0466328  96.2472439  27.2665834
  41.7711639  96.1739922  26.3528109  41.2306881  96.2152672  27.7660227
  54.4185877  74.3496609  17.9345417  53.9204693  74.9215078  18.5185790
  54.9464417  74.9482727  17.4060822  68.5113629   1.3985103  10.1662564
  68.4034928   2.1670955   9.6060085  68.2320817   1.6929572  11.0331702
  34.0067172  85.4419327   2.9134980  34.0010762  84.5745373   3.3182514
  33.6197662  85.3052330   2.0487353  34.1679621  82.5760269  50.3313828
  33.6367130  83.3393860  50.1048994  35.0710511  82.8659725  50.2025509
  68.1228956   9.9872058  30.3711581  68.3803090   9.4914954  29.5938325
  67.2127493   9.7343963  30.5259180  32.7367330  68.4894609  55.1089239
  33.5679245  68.9265347  55.2941847  32.8115535  67.6390934  55.5419493
  25.0127769  78.5323000  20.4689384  24.2129993  78.9752913  20.1854777
  25.0307655  78.6546087  21.4181209 102.8292759  18.9373098  74.9433428
 102.1675237  18.5323988  75.5040222 102.5550063  18.7185513  74.0527516
  25.4767601  41.2237488  87.7801923  25.3461257  40.4205833  88.2842606
  24.7040073  41.2822758  87.2183573  38.7536645  45.6090498   9.0062165
  38.1102586  45.1484108   9.5448011  39.3780875  44.9314690   8.7469751
  11.4501572  68.0492973  24.2957187  12.3637176  68.0262899  24.5805168
  11.0572708  67.2695684  24.6880078  56.4870882  90.3599262  15.9713066
  56.6410446  89.8220730  16.7479920  57.3622847  90.6141853  15.6787121
  33.8189173  64.1960526  45.9539318  33.1683874  64.4250059  45.2901363
  33.9825034  63.2629061  45.8171415  34.9976635  79.7909689  40.2013540
  34.8308945  79.3841457  39.3511105  34.4310904  79.3160534  40.8093643
  87.0851326 100.5729771  32.9551101  87.4917412 100.3174019  33.7831116
  87.5721169 101.3493061  32.6787138  38.5094023  93.2395267  23.1821203
  38.7457371  92.3327541  22.9868197  38.2907391  93.6187077  22.3308635
  89.3355751  90.6061745   0.3465416  89.1076183  90.2998829  -0.5312130
  89.6703815  91.4926720   0.2114378  22.3623347 101.0489464  37.2979999
  22.1600676 101.8413830  36.8006516  23.0997372 100.6551933  36.8317032
  43.4645700  75.0730848  33.7957072  43.5751581  74.5469046  33.0037904
  43.4387112  75.9767580  33.4811592  51.6450977  63.9523840   2.9964405
  52.5010824  63.5394478   2.8823727  51.6732502  64.3221712   3.8788790
   1.4835445  46.4460121  69.8654681   1.9293944  46.7432629  70.6586200
   1.0975520  45.6045471  70.1087528  22.1780515  68.3019829  53.3867598
  22.0918131  68.8630819  52.6160717  21.5703058  67.5800180  53.2266140
   4.8654062  85.9444714  21.9117403   5.2210957  85.9241581  22.8001690
   4.6775889  85.0282669  21.7079377  17.8823304  72.0076132  29.7965455
  17.8837621  71.0602713  29.6595120  18.8076723  72.2523355  29.7874212
  77.8490027   9.0686076  13.2860994  77.1946295   9.3967765  13.9028144
  77.5227364   9.3348353  12.4265027  27.6605296  78.1272078  52.1781254
  27.1815515  78.3815050  51.3893652  27.6264119  78.9019203  52.7392721
  77.4685574  79.0102482  23.1624198  76.5477562  78.8789129  22.9363418
  77.7648830  78.1527996  23.4677124 104.8575028  22.5044857  85.9938733
 104.2440399  21.7781435  86.1048874 104.9065860  22.9109131  86.8591132
  29.3432474  57.5074482  36.0915661  30.2938390  57.5610447  35.9929013
  29.0173340  57.3723221  35.2017641  70.4951334  88.3644390  46.7264032
  69.8230505  88.3361626  47.4073839  70.2155495  89.0700245  46.1431170
  95.2227887   4.4141620  33.2004118  95.8659466   3.8254302  33.5953403
  94.8291358   4.8718398  33.9432502   3.1205010  60.6835556   9.4554609
   3.2313058  60.9758711   8.5507470   3.5675943  61.3488913   9.9785948
  68.6086321  79.6342802  39.3705893  68.9531231  80.4488087  39.7367978
  67.6578617  79.7294426  39.4272733  13.3031964  86.6879749  18.1632149
  12.6739955  87.2724819  17.7405047  12.7628064  86.0704136  18.6559975
  22.9691577  58.6858940   9.5651555  23.7590313  58.1734991   9.7377378
  23.2949710  59.5413780   9.2854619  10.8664584  84.0599251   6.2832510
  10.6793892  84.2854595   7.1944982  11.0070956  84.9027824   5.8519226
  91.0699423   4.2040961  15.3909683  91.7384442   4.6472590  15.9134114
  91.3137539   3.2790797  15.4248083  38.2038498  81.2106514  30.9061408
  38.0905652  82.1611118  30.9113526  37.5805426  80.8915710  31.5587568
  62.5201416  59.7164106  79.6218681  62.4591970  59.8843288  80.5622482
  61.6798830  59.3181515  79.3947363  41.8904313  14.1911452  49.2156601
  41.7225899  13.2565158  49.3361568  41.3858922  14.6164458  49.9090528
  97.8847226  17.7867930   7.2832125  97.5301131  18.6625426   7.1297973
  97.2322711  17.1951526   6.9083709  84.5905550  28.2266604  84.5844963
  84.9654742  27.6309763  83.9357844  83.7408956  27.8421055  84.7999698
  57.4027061  81.6655064  35.3998661  58.3510923  81.5453529  35.4484272
  57.2670937  82.1821404  34.6055555 100.7991250  10.3366457  85.4752442
 100.0504096  10.4112898  86.0669252 101.3810333  11.0512625  85.7339668
  11.0993850  37.8959680  18.9406502  11.9058967  37.4267340  18.7271333
  11.1225593  38.6763692  18.3868730  39.7773933  89.5849133  19.7956896
  40.6896830  89.7606373  19.5653093  39.2863870  89.7843170  18.9985800
  41.6903782  94.0106678  31.1630487  41.0151482  94.0752506  30.4876781
  41.2384748  93.6344433  31.9183421  77.2331532   3.8620036  19.9640882
  77.9174145   3.2246249  19.7597206  77.5858601   4.6980517  19.6593547
  51.2516785  94.7345924  13.9036632  51.5198898  95.5945206  13.5798907
  51.8128347  94.5789909  14.6633470  42.1045446  92.4208832  34.3384361
  41.3678026  91.8561268  34.5718718  41.7321348  93.3023071  34.3134093
  72.1179438  64.6517992  48.2286119  71.6776943  65.5010653  48.1945181
  72.3472691  64.4641876  47.3184252  81.3134480  78.3678675  14.0300667
  80.6754589  77.8355169  14.5052445  81.5560055  77.8331041  13.2741404
  68.7434769  94.0243340  39.6841574  67.8619814  94.3821526  39.7898102
  68.7986326  93.3266640  40.3371906  15.2007163  74.0511799  36.0307860
  15.8871377  73.6382914  36.5547919  15.0617552  74.9023676  36.4459896
  55.2035761  78.8917685  31.0310268  55.4374790  78.2888031  30.3253675
  56.0122347  79.3694305  31.2158084  24.8276448  96.4957714  47.7426958
  25.0257874  95.5634308  47.6549101  24.2004776  96.5404320  48.4644318
  91.2404005  96.3359737  23.9388204  90.7430665  97.1347713  23.7632775
  91.4133541  95.9663677  23.0729628  69.4910344   1.0130446   4.7199589
  68.6549242   1.3761752   5.0120008  70.0097617   1.7775100   4.4694826
  79.3480158  66.6012287  25.7319593  79.8210716  66.4768410  26.5547442
  78.4896898  66.2070131  25.8872104  40.7688189  92.0711327  28.0351615
  39.9152088  91.7249584  27.7748847  40.7265234  93.0020714  27.8165388
  22.2735238  54.8763132  40.0140953  22.1181893  55.7551575  39.6680641
  23.2257557  54.7795057  40.0033092  20.6304383  78.8582897  31.8366528
  21.5226316  79.2041874  31.8126988  20.7061625  78.0333853  32.3162627
  75.9191418  85.2874947  55.0879192  75.7676697  84.9530506  55.9719086
  75.3048658  84.8001385  54.5389318  36.7967796  74.7827721  25.6729913
  35.9644938  74.6912670  25.2091384  36.8765950  75.7221270  25.8387232
  57.5147772 101.7165756  10.3235424  58.2350874 101.1968803  10.6803286
  56.8655300 101.0691547  10.0486779  49.6355963  82.6252651  37.8865790
  50.4703903  82.3933887  37.4796581  49.7802544  82.4910736  38.8232207
  89.2977552  75.5871868  14.2960644  88.8841299  74.7512865  14.5115006
  89.6215908  75.9172201  15.1341820  63.8303518  92.9170036  34.6575689
  63.3805704  92.0735645  34.7078991  64.2305470  92.9235268  33.7880659
  28.7974930  45.6910419   9.4571370  28.6204052  46.6009140   9.6958834
  29.0204096  45.2652502  10.2849305  21.0802547  32.7582966  84.3069949
  20.9354774  33.6307655  84.6731490  21.8141977  32.4060284  84.8104468
  95.1468380   9.5217269  23.6101961  96.0166224   9.9213641  23.6085534
  95.1451977   8.9547866  24.3814325  49.6855497  77.7227020  17.5931084
  50.3536892  77.3068237  18.1379628  49.6697903  78.6335611  17.8869045
  50.6316090  67.6964474  24.2470145  51.2533951  67.7095556  24.9746466
  50.8713770  66.9200945  23.7410331  48.0670357  94.1671467  21.5564418
  47.9219437  93.4348011  20.9573960  47.9921389  93.7811661  22.4291611
  75.1007684  15.2398246  37.7947068  75.1082214  14.6099227  38.5154080
  75.9083851  15.7413047  37.9065442  41.6866159  99.3914700  26.7098808
  42.5010347  98.9811516  27.0007348  41.1105013  99.3476677  27.4730325
  55.6898069  71.8305969  16.6712105  54.9690580  72.2495937  17.1415174
  55.9001589  72.4397230  15.9634340  34.1668749  77.2363520  26.0659933
  33.5362482  77.8869534  26.3746357  34.7980428  77.1564817  26.7811704
   7.0158428  77.3249817  21.3520551   6.0626626  77.3010635  21.4363647
   7.2637266  76.4170218  21.1777091 105.6852145  52.4117517  17.8236163
 105.4855270  52.9351997  18.5997331 106.5854220  52.1160269  17.9592848
  45.8773184  86.3494205  20.5885458  46.2678909  87.0798206  21.0683274
  45.3859615  85.8633041  21.2507367  40.3689957  97.7330971  46.7915726
  39.4130015  97.7491379  46.7462873  40.6532097  97.8076267  45.8805847
  47.0169838   6.4672893  48.3808374  47.0511397   6.5930789  47.4325514
  46.1000784   6.2608188  48.5621834  38.0343604  81.2686157  38.3350277
  38.0094957  81.0479832  39.2661214  37.5882506  80.5395508  37.9041266
  96.8578204  49.9586521  78.6905157  96.8715771  49.0015732  78.6969542
  96.5400060  50.1994740  79.5607042  31.3970995  93.2270622  46.0207319
  31.5555525  93.4052086  45.0936985  32.0423937  93.7633610  46.4813948
  17.0672143  54.1922188   3.5927847  17.8985405  54.6585798   3.6801660
  17.1129942  53.7807178   2.7297634   3.9726011  21.2570804  21.6516042
   4.3654577  20.3843062  21.6645122   4.1790191  21.6253798  22.5106621
  17.2221529  97.6593208  45.5176067  16.6403174  97.9715824  44.8246431
  17.6066327  96.8571472  45.1641655  17.3842788  64.4693136  32.6103711
  17.2024250  64.2822838  31.6894031  18.0873251  63.8630438  32.8436041
  23.6572909  71.2919235  43.4436083  23.7942910  72.2308397  43.3175230
  23.0805826  71.0352707  42.7240467  87.0450552  35.1086944  58.0665731
  86.1174735  34.9739211  57.8725147  87.3249205  34.2910426  58.4780979
  46.3728762  80.0087643  11.8955016  45.7463121  80.5414581  12.3852897
  45.8305120  79.4705725  11.3189352  23.4602022  95.5806637  35.1996279
  24.0911055  95.8833885  34.5465183  22.8271985  95.0648975  34.7001123
   4.4214016 100.6343937  50.3568459   3.7399334 101.1316299  50.8091545
   4.5145515 101.0711288  49.5101976  50.9263325  81.8517208  32.3408580
  51.1289978  82.7750206  32.4914193  51.7242432  81.3871098  32.5932646
   2.0480524  62.2670317  31.4730835   2.1501841  62.3884726  30.5291271
   2.4248628  63.0580473  31.8584895  63.7871408  82.3462868  17.2614610
  63.1228828  82.7060318  17.8493190  63.3233213  81.6789246  16.7557645
  96.5220459  21.2686144  88.0407115  96.0503324  21.9592749  87.5751973
  96.3213285  20.4703127  87.5521849  67.9130157   3.9539950   8.9735067
  68.5121115   4.4596427   8.4242892  67.0457157   4.3005603   8.7639362
  15.3325474  93.8780689  33.9031243  15.2160895  94.8259354  33.9681745
  16.1708546  93.7096691  34.3333721  45.2183151  75.8352995   1.5422142
  45.6719637  75.0814009   1.9191362  45.9169865  76.3745928   1.1717357
  45.5212784  81.1173248  24.7247148  44.8672390  80.9683037  24.0418839
  46.3502979  81.1866760  24.2512703  89.4521527  82.2870922   9.6031767
  90.0649039  82.8062439  10.1239896  89.2183153  82.8566933   8.8703042
  73.6399937  89.5938873  29.0098953  73.4725571  90.5361748  29.0272951
  72.8044748  89.1975594  29.2570019  35.8939457  77.3079395  33.9463401
  35.9681869  76.4972925  33.4427834  36.6948581  77.3390627  34.4695997
  29.1698408  82.6271534  18.4371054  28.2906413  82.2664642  18.5517490
  29.6481776  81.9463825  17.9638505  58.2981396  87.4234581  40.6199598
  58.6249781  87.0843601  41.4532804  57.9397440  88.2844067  40.8357525
  37.5716949  94.5063496   8.1048071  38.3001423  94.1437054   8.6088687
  37.3323393  93.8091087   7.4942440   1.1659757   1.5261112  57.1906823
   0.5544845   1.1680780  56.5471595   1.1193244   0.9188591  57.9291266
   7.9409687  30.6247364  82.9895979   8.3758918  29.9119030  82.5216931
   8.4969751  31.3880955  82.8334540  37.2687817  82.6127911  26.5351772
  37.4148107  81.8802166  27.1337128  36.8624830  83.2883453  27.0781112
  73.5097631   7.5669711  24.8713803  73.1762060   6.6719764  24.9342799
  73.7237485   7.8067534  25.7730174  58.1453037  94.4666767  50.7803297
  58.7762880  93.8706970  50.3767061  57.3981285  93.9106655  51.0012627
  63.9022263  14.1237014   8.5443544  63.8340457  14.9774402   8.9717972
  64.6857651  13.7270873   8.9251405  35.0696635  72.5853586  21.4034963
  35.4099202  72.0786285  22.1408415  35.1573133  73.4978008  21.6791844
  98.3683690  16.8402713  20.2771020  97.8257473  17.3980658  20.8344769
  99.0208395  17.4344581  19.9063480  52.8062057  94.2483330  15.9675598
  52.5726128  93.5627365  16.5933621  52.9194021  95.0333309  16.5034652
  89.1372403   6.6891044   2.8933892  89.0167626   5.7812922   2.6148078
  88.2493504   7.0422976   2.9493910  64.3768644  89.6002674  25.7074928
  64.4067764  90.3270721  26.3296533  65.2891397  89.4680214  25.4496241
  65.1900896   5.0323813  20.3790116  64.3086442   5.3683989  20.5414319
  65.7287081   5.8160251  20.2693558  26.9645882  88.1595516  11.3092124
  27.2616887  88.1141186  10.4004228  27.4139595  88.9237499  11.6701865
  91.6091283  37.2309815  88.3048523  91.7467721  37.2341953  87.3576061
  91.9242783  36.3732372  88.5897645  58.0285549  85.4960918  12.3579288
  57.1184874  85.6310749  12.6221180  58.5317612  86.0804272  12.9249954
  78.9750576  64.5233297  27.5604630  78.6188269  63.6486006  27.7159691
  79.1790104  64.8576403  28.4338880  51.9352436  44.6213865  14.9710941
  52.1999741  45.2994680  14.3495190  52.2021341  44.9618101  15.8249748
  72.7421570  83.3354950  35.6191278  73.6982775  83.2909203  35.6102562
  72.5141907  83.4044552  36.5462255  22.6660204  85.0607109  12.8281331
  21.7335916  84.8550606  12.7609110  23.0998945  84.2074966  12.8305495
  37.6975584  69.0953684  18.4576285  37.4764681  68.4380341  19.1173732
  37.4781752  69.9311781  18.8693678  69.1124392  61.3980150   8.5433269
  68.2799244  61.2310696   8.1014198  69.4124937  60.5333233   8.8235205
  63.9945889  96.4637375  34.9224186  63.9090347  95.5691528  35.2520156
  63.1762934  96.6252518  34.4528031   1.3293020   3.6772960  26.0465598
   2.1131508   3.7837260  26.5855265   0.8921758   2.9067653  26.4090848
 107.7519711   9.1179889  20.1522756 108.0552395   9.9201053  19.7269881
 107.3979338   8.5875552  19.4384623  16.8410627  70.6116425  69.2753917
  15.9043638  70.4725967  69.4149965  17.2265998  69.7387539  69.3505889
  44.2660666  90.6852531  28.3401656  43.6445093  90.5389118  27.6270866
  44.8223495  91.3998604  28.0301285  58.1037609  16.2524258  74.6075219
  57.2050849  15.9334122  74.6902674  58.2219593  16.3944946  73.6683315
  13.5018623  74.3369389  29.2422819  13.3800197  73.4291506  29.5203209
  13.0504811  74.8543358  29.9092031  74.6771940  20.6806128  42.1117973
  74.6513089  20.3662627  41.2080574  75.5329474  21.1014026  42.1946049
  10.3678727  30.4631233  31.0123086  11.0330927  30.2114582  30.3717017
  10.4324460  31.4168191  31.0625792  23.6632252  94.7895432   0.2512537
  24.1146374  94.2093945   0.8643509  24.1774273  95.5968189   0.2626108
  14.5897782  86.6551208  50.8195782  14.4019234  85.8409309  50.3526354
  14.0983939  86.5808964  51.6376638  50.4144192  79.8795462  26.0072732
  49.8420429  80.4234028  26.5484118  51.2559319  80.3356457  26.0153103
  14.4322705 100.0194359  18.2998693  15.1967382  99.7392464  17.7965689
  14.7926056 100.5650043  18.9989722  32.4256420  56.6197634  33.2034302
  32.4106765  56.9569206  34.0991592  32.6904202  55.7046223  33.2963705
  47.4420643  88.5327339  35.9068418  47.8465033  88.4621906  35.0421524
  46.7845726  87.8372288  35.9211898  22.4149299  79.4258833  19.2447269
  22.7561927  80.2888870  19.0102208  22.2403288  79.0010738  18.4049177
  27.0225716  84.8861408  15.1601076  26.2281656  85.0628281  15.6640279
  27.6723289  85.4915714  15.5171859 101.6691907  44.7489582  88.0877327
 102.3797949  45.3381954  87.8346076 101.7871626  43.9787708  87.5317448
  29.5686674  84.6648121  58.0098677  28.8148141  84.8777962  57.4598026
  29.3625641  83.8047981  58.3761168  17.8583956  68.5533476  14.6800685
  18.3013690  68.0555725  15.3672576  16.9616473  68.2185793  14.6820104
  34.1693473  78.6230373  37.5228500  33.2629085  78.3603334  37.6828194
  34.3907499  78.2204676  36.6831183  71.8383980  95.7027912  46.5177155
  72.0253754  96.6307354  46.6598129  71.2368345  95.6909370  45.7732630
   3.7639658  23.2906900  66.7161458   4.0691415  22.4853836  66.2983197
   3.9720480  23.9809357  66.0864681  77.0467901  65.2455378  44.8555279
  77.5045729  65.0595045  45.6753206  77.0171547  64.4034767  44.4013357
  37.4349213  36.1527014  16.1399078  36.5734506  36.0911298  16.5525913
  37.9430556  36.7110109  16.7283964  49.5759964  85.3518486  37.1109724
  50.3199291  84.8319435  37.4151111  48.8349819  84.7464085  37.1347666
  66.9883680  70.5197811  20.3552246  66.3577461  70.6993437  19.6578681
  67.7872372  70.9676266  20.0768781  21.5185714  60.8804321  30.0455809
  20.8500171  60.3497219  30.4787254  22.0359850  60.2508211  29.5434785
  70.1621914  62.1591330  25.3913021  70.0637484  62.4618912  24.4885945
  70.0758505  61.2074709  25.3355122  82.0296955  85.3908157   6.7605972
  81.2717628  84.8182106   6.8785012  82.4148560  85.1104164   5.9303826
  31.5984130  67.9977894  44.1658592  31.2091255  68.3466816  44.9677038
  30.9271121  67.4178123  43.8063908  57.6679405  20.0558513  46.9746876
  58.5895928  19.9776023  46.7283821  57.5108036  20.9990828  47.0178318
   2.6565440  97.9811185  86.3701792   3.3097823  97.6740640  86.9988507
   2.2438176  98.7301152  86.8001780  30.1198053  62.8914928   0.5970275
  30.0242233  62.9130316  -0.3551447  30.8814597  63.4436274   0.7738359
   2.6712052  47.5570904  76.7631203   2.5396744  46.7756210  77.2999853
   2.5551931  48.2874809  77.3708313  30.8385611  63.8263321  23.4696746
  29.9557042  63.4564781  23.4683299  31.3902164  63.1306744  23.1119490
  49.9731159  78.3697224  10.3475285  50.7035303  77.9268265  10.7794726
  49.3617058  78.5701895  11.0562015  70.2678013  93.6838055  23.3124018
  69.9059057  93.7714386  22.4305940  70.3196478  94.5815849  23.6403346
 106.5357026   8.7575572  24.1185665 106.2393816   8.1953280  24.8343372
 105.8350810   8.7067931  23.4683466  66.8160995   6.8647426  14.4174623
  67.0421346   6.5278571  15.2844381  67.6186951   6.7657988  13.9053285
  97.2295435  11.9532245  29.3067360  97.3784359  12.8966468  29.3701291
  96.8328484  11.8307727  28.4442568  78.4439572   0.5414718  13.7492037
  77.7842434   0.0741237  13.2367563  78.9921483   0.9752124  13.0953002
  23.5998154  99.6331215  49.2951441  23.7324834  98.7867546  49.7221184
  22.6596594  99.7955513  49.3723011 101.8505963   3.6950725   0.4749958
 102.7411278   3.7748855   0.1332073 101.7759140   2.7774280   0.7368833
  84.8516464  97.9799652  22.9430151  84.4161415  97.4428558  22.2811484
  85.7692337  97.9978752  22.6710916  64.0261181   7.3050349  13.0793369
  63.3853229   6.6539042  12.7936137  64.6769556   6.8018859  13.5687053
  20.4262344   9.0331786  62.7935266  20.5859462   8.2936328  63.3798647
  21.2752334   9.4693511  62.7213955  95.4087170   1.3978522  52.1685028
  96.2575062   1.7304461  51.8766594  95.5579766   1.1208671  53.0725098
 105.8263596  16.4926379  25.8244729 105.7966002  17.0531695  25.0491285
 105.4744109  15.6536239  25.5271196  86.2161740   9.2306178  21.4645314
  85.3661116   9.6701281  21.4432764  86.0035237   8.2973617  21.4573455
  30.3411508  84.8575020  36.0748434  30.8504748  84.6277142  36.8520284
  30.1548672  84.0182972  35.6538081  61.9253635  94.6609974  38.9584732
  62.2773361  95.2782917  39.5998025  60.9848928  94.6418285  39.1356015
  10.5717174   0.0925200  55.8072805   9.7063247   0.1608794  56.2105846
  10.9241668   0.9816974  55.8443975  92.8804978   5.6230395  17.1214879
  93.0508717   6.5554660  16.9881403  92.7516469   5.5357783  18.0659533
  66.2086010  74.9349022  75.2909517  66.3639450  75.8042192  74.9216461
  66.8492985  74.8569822  75.9978199  29.6717954  86.9229507  28.1441927
  29.8446441  87.8579235  28.2545590  28.9743614  86.8839264  27.4897504
  47.1825409  90.3661919  40.1660967  46.9344330  89.4504356  40.2928638
  46.9048309  90.5680943  39.2725968  75.2278789  17.1481555   5.4572618
  75.5356225  17.9942172   5.1321417  74.4688352  16.9434398   4.9112070
  82.5202521   7.7232306  25.0585175  82.6380595   7.6067489  26.0012722
  82.7506312   6.8740504  24.6816254  69.6197367  79.9991941  13.7368512
  69.0672541  79.7117329  14.4637346  70.1921368  79.2523861  13.5611737
  78.0711802   7.6301806  50.9870768  77.6258334   7.5106948  51.8259001
  78.1844481   8.5774272  50.9088326  38.3303952  62.8569508  27.2215724
  38.7360191  61.9904661  27.2516656  37.5639129  62.7824736  27.7900720
  87.2287854  43.2653277  15.3471911  87.3092898  42.3340457  15.1411104
  86.9964751  43.2859939  16.2755418  58.6467886  84.6879768  84.2746449
  59.1356182  85.4161930  83.8912582  59.3183470  84.1254139  84.6603394
 104.0728434   0.3466552  21.8735886 103.5707959   0.3116076  21.0593677
 104.9869212   0.2986377  21.5936089   1.7982403  32.8640686  84.6070865
   2.4999563  32.2500645  84.8235044   1.2722842  32.4054276  83.9519125
  73.5559702  71.6087341   9.0218103  73.1425095  70.8128929   9.3563449
  74.4927311  71.4120197   9.0262860  67.6108631   6.1186545  20.9138799
  67.8295716   5.6741851  21.7329335  68.3889397   6.6364425  20.7071900
  68.2742214  52.7017260  19.9231780  67.9876947  51.8019676  20.0799179
  69.1598129  52.6131487  19.5708811  56.9622850  74.4987583  49.3886709
  57.5906801  74.1976500  50.0449419  56.2401676  73.8728476  49.4436026
  79.6626711  79.6343946  10.4318058  79.2243910  79.6156597   9.5810479
  80.4734707  80.1177216  10.2729440  74.5922375  96.4839268  56.2450266
  74.7273064  97.3808575  55.9392405  75.1551819  96.4061451  57.0152712
  50.9725901  10.2529757   9.8778796  51.5911933  10.4016345  10.5930459
  51.2745007   9.4442790   9.4642580  78.2957458  51.8697500  49.3118525
  79.1808224  52.1083593  49.0362883  77.9356766  51.3860369  48.5684776
  40.4820633  94.1748905  24.7563434  39.8170304  93.8773537  24.1355062
  40.3809786  95.1264954  24.7778463  47.9832840  74.2117023  31.1932278
  48.7098074  74.8236036  31.3114190  47.8316975  74.1995525  30.2481842
  61.4035702  91.6958237  29.1642284  61.2161112  91.5574741  28.2358146
  62.1543455  92.2895622  29.1710997  44.5570993  96.6448021   7.9083729
  43.6497021  96.7423153   7.6196659  44.4900703  96.4107895   8.8341022
  34.9532938  94.3526459  59.2139149  34.5209956  95.1694775  59.4631863
  34.3318391  93.6677456  59.4607687  36.5320826  86.5753460  13.8278329
  35.6689668  86.2099838  14.0222085  36.3495159  87.3556137  13.3043063
  23.9152519  75.0995194  60.9803623  24.2994730  75.7146679  61.6050261
  23.0115119  75.3971993  60.8760828  60.9485968   2.7465575   9.7423977
  60.3467306   3.2815688  10.2598500  61.2259325   2.0521014  10.3399324
  32.0549273  83.5163403  63.1378937  31.6449356  83.8398552  63.9400673
  31.7533731  84.1165257  62.4559212  40.4790163  83.2736874  61.6131830
  41.0750818  83.9269638  61.9794846  40.5771446  82.5124836  62.1851730
 103.5314997   9.0075820  17.3077714 103.5403355   9.5345157  18.1068313
 104.0934714   9.4866412  16.6987360  61.3938379  79.0619612  51.5089178
  61.8078327  79.9232864  51.4545345  60.6014585  79.1431284  50.9780884
  92.1589669  15.0844138  48.9299631  91.7828997  14.2234748  48.7467146
  91.4020785  15.6450503  49.1003561  85.5886650  71.2660885  39.6224165
  85.6688309  72.1981382  39.8251081  85.1082039  71.2413979  38.7948990
  79.4040164  40.0555938   8.1460351  79.0874156  40.3785174   8.9896643
  80.1261576  39.4685786   8.3699906  83.7286385   6.1715358  72.4750948
  84.5887717   6.3862269  72.8360748  83.7023982   5.2147048  72.4715805
  56.3690217  22.5816005  65.9576321  56.0778483  21.6862910  66.1304665
  56.6483172  22.9116862  66.8116045  45.1907969  87.6172543  43.4955263
  45.0773668  88.2864094  42.8205490  44.7672272  86.8385410  43.1343699
  63.7528610  59.0145493   5.8241045  63.3762264  58.5336065   5.0871694
  64.6003199  59.3214226   5.5018079  51.1868640  11.5395492  41.4916182
  51.1485692  12.0188754  42.3192739  52.0248683  11.0778850  41.5207529
  24.9042797  81.8769073  25.2894902  25.4950619  81.3335991  25.8110523
  24.1206670  81.3388157  25.1770186  55.4174137  99.5877647  18.0047333
  55.5816126  99.4698334  18.9403415  55.1136971 100.4921627  17.9269993
  34.8253345  80.1085281  26.9559836  34.9068117  80.7047176  26.2115693
  33.9471912  79.7373152  26.8705463  94.9748858   2.6529639  48.4256983
  94.8396882   3.1420558  49.2373323  94.3240603   1.9517844  48.4573460
  36.6960144 101.0444450  15.9776866  36.8385410 101.6735363  16.6849124
  36.4666915 100.2296066  16.4245427  92.2520256 101.8673801  33.2925057
  92.7310562 102.0129108  34.1083431  92.3672390 100.9347916  33.1102085
 101.9254406  12.6710837  12.8258455 100.9820279  12.8329413  12.8228259
 102.1229561  12.3892539  11.9326532  70.4559946  91.1446667  40.6631184
  69.9710655  91.3855553  41.4524508  71.3525915  91.0027981  40.9667873
   8.5770209  92.1538162  58.7190962   8.0508502  92.9106522  58.4610653
   8.6611827  91.6363716  57.9182243  61.1133194  85.0201702  33.7872624
  60.8535433  85.8762646  33.4468913  61.2508249  85.1662159  34.7232080
  44.5097542  83.0195808  26.3558197  44.7184038  82.2661686  25.8034968
  43.7242317  83.3967495  25.9596729  42.6035023  74.4997835  21.6342735
  42.3248291  74.1424036  22.4773955  41.8740416  74.3146658  21.0427880
  81.2786770  61.6171408  14.9936163  81.7165565  60.8451366  14.6351397
  81.8789864  62.3397827  14.8101652  62.4968576  79.9421549  60.8257866
  63.2271481  79.3236065  60.8431673  62.7830839  80.6663609  61.3824177
  65.1260408   3.3397239  31.4966273  64.2549547   3.6415046  31.2390065
  64.9611457   2.6744883  32.1648383  85.0960159  73.4068918  22.0477271
  84.1822815  73.5435629  21.7974544  85.3268337  74.1893959  22.5483727
  90.8254155   3.4159129  42.1630526  91.2269124   4.2702525  42.3215771
  91.3163813   2.8132003  42.7215576  82.0348557  22.4020904  27.6455665
  81.4810427  21.8571990  28.2046843  82.9176625  22.2860663  27.9968786
  44.3622160  73.6591291  29.3973327  44.7753382  72.8133869  29.5713472
  45.0818300  74.2236233  29.1149640  80.4209944  25.4933916  75.5486446
  80.7202240  26.3923966  75.6845957  80.1446756  25.4688870  74.6325224
  75.9650191  12.8227656  24.1734529  76.5418967  12.8913444  24.9342012
  75.2611550  12.2399943  24.4583678  53.5529605  37.5872360  64.8616951
  53.5246555  38.0782734  64.0405267  54.4646636  37.3068176  64.9417776
  10.3889696  45.1757561  70.5997044  10.0207321  45.9546124  71.0168522
  11.2530986  45.0760017  70.9991604  77.4939116  10.0318568  19.8355293
  78.2717331  10.5103629  20.1223373  76.9706257   9.9270671  20.6301498
  69.0576363  68.9178514  79.8103380  69.6615076  69.6542215  79.7137260
  68.3353758  69.2672968  80.3323078  56.3303359   8.3690398  45.7519245
  57.0448216   7.7513068  45.9073162  55.7260617   8.2244151  46.4800501
  76.1963654  82.9006004   1.1031276  77.1294451  82.7880478   0.9216676
  76.1604023  83.1511021   2.0262681  19.1619826  37.2278983  11.4671022
  19.8031140  36.7671306  12.0082742  19.5023823  37.1521479  10.5756837
  82.5186443  87.7364540  23.3595371  82.8050613  88.1496239  24.1740847
  81.8661213  87.0922661  23.6342740  44.0694332  85.3504276  46.8542862
  43.1177139  85.3296566  46.7541361  44.2242289  86.0031891  47.5370598
  60.4864883  74.6810007  51.0912895  60.8864975  73.9231777  50.6647635
  61.1078882  75.3941298  50.9445238  93.8210257  18.1066363  19.0068984
  93.1622466  17.4385779  18.8173044  94.2263564  18.2906001  18.1594932
  24.0870190  94.2011070  54.1516829  24.3205523  95.1287079  54.1163731
  24.1301703  93.9784813  55.0816345  33.8062763  99.0959072  38.9526081
  33.7361526  98.1684780  39.1788340  34.2329431  99.1018486  38.0957818
  23.7262058  74.4664001  27.5487256  23.2661629  75.1188087  28.0768871
  23.7416363  73.6819744  28.0970550 104.9892434  38.4306663  23.1814361
 105.7979020  38.0081885  22.8919172 104.5909651  38.7624305  22.3767424
  77.3102768   8.6725753  81.2674522  77.9147967   9.2358535  80.7842350
  77.7747639   7.8399413  81.3523865  18.2118026  28.4484809   9.7661352
  17.9165641  28.8397353  10.5883145  18.7372200  29.1322177   9.3505859
  66.4237213  83.6156464  45.1093531  67.0574665  83.4819984  45.8141470
  65.6367874  83.1577682  45.4048491  20.9209720   7.9254764  23.2717299
  20.8138172   7.3930877  24.0599608  21.4697830   8.6584800  23.5505748
  97.0689352  20.3293937   6.4193392  97.8490647  20.6717341   5.9829515
  96.5635880  19.9177306   5.7183474   4.2058317   7.6434272   2.7264524
   3.8644592   6.7818778   2.4868314   3.8252012   7.8211348   3.5865530
  66.7323264   4.4567912  38.9598846  67.3443397   3.7435191  38.7784529
  67.0408114   5.1813167  38.4157109 105.3525742  22.8593295  18.0904031
 105.7828244  22.2753470  17.4658406 104.8778876  23.4860843  17.5444376
  46.3000822  92.6825047  44.7894955  46.7879152  91.9342518  44.4454622
  46.9723558  93.3309078  44.9989128 103.8177903  17.2442757  83.2854038
 103.4263309  17.1758829  82.4145913 104.5198973  17.8866945  83.1826007
  55.9378958  98.3829021  24.2763853  55.8155346  99.3175602  24.4427299
  56.0406256  98.3200645  23.3267903  11.4385259  52.5102234  17.0624053
  12.1770692  52.7732706  17.6115775  11.2147665  53.2988024  16.5681326
  29.9009132  93.5446644  51.8138790  30.6877708  94.0118504  52.0946264
  29.6945167  93.9167976  50.9564686  42.5023413  97.1929836  63.1762981
  42.9041767  97.9430199  62.7378845  43.2207203  96.7850304  63.6597633
  98.5763272   3.6419719  30.0087285  99.0999707   2.9858630  29.5487833
  99.1540774   4.4016974  30.0811863  72.7130016   0.6288760  51.7722940
  73.0185565   1.3356440  51.2036514  73.1564935   0.7837718  52.6062918
  93.5015114  21.7497676  39.5211244  93.7582787  22.0475333  40.3938437
  93.1728037  22.5367778  39.0866137  60.1588917  91.7700481  39.7929621
  60.4260778  91.0471916  39.2252278  59.2710781  91.9841862  39.5063138
   3.9684669  19.7457927  12.9457438   3.7948696  18.8137191  13.0774176
   3.3685772  20.1883166  13.5461879  77.0419510   7.9678195  31.8941379
  76.5359219   8.6925261  32.2615075  77.9313191   8.3127158  31.8147635
  19.3558876   8.5692637  26.8737149  20.1108829   8.0497306  26.5974832
  19.5671074   8.8429015  27.7663159 101.2599008  76.2445838   6.0064870
 100.3137795  76.3422210   6.1139852 101.5907948  76.1231048   6.8964273
  14.1966907  27.2048133  49.5940161  13.6328594  27.7307456  50.1612282
  14.7596351  27.8437942  49.1569424 102.9469021   6.9575732  27.3864174
 102.3610028   6.3620990  26.9191337 103.7263974   7.0096438  26.8333268
  93.5584315  41.4106887  50.8342028  93.3991631  42.1608966  51.4069605
  92.8662737  41.4614432  50.1749802  75.7520421   9.8103850  14.8242152
  74.9373229   9.4195884  14.5084023  75.5924209   9.9794333  15.7527506
  58.7631083  84.4362259  39.3041682  58.7799406  84.2746162  38.3608603
  59.0149117  85.3553104  39.3942404  92.0137318   7.1476500  48.1087637
  92.5096997   6.4624923  47.6606417  91.2190350   6.7086451  48.4120274
  53.9045620  85.8161449  49.0895128  53.4629822  86.6652584  49.1051912
  54.8370314  86.0314369  49.0700293  33.1709194  94.4721699  24.2751145
  32.8589892  93.7131786  23.7823057  34.0795588  94.5826054  23.9951015
  39.8783779  93.5104275  12.4737489  39.4880438  93.3997250  13.3407068
  40.3212643  92.6793003  12.3025739  14.1288292 100.0924206  46.1492395
  14.1607416  99.1359806  46.1699104  14.7715473 100.3676987  46.8029737
   5.6232369  96.8111515   4.2249376   5.3607255  96.3572884   5.0257707
   5.1759577  96.3375187   3.5236210  31.3213181  96.6229248  44.9151087
  30.9078956  96.5005398  44.0605116  32.0037007  95.9525394  44.9492693
  40.0674343 101.1411476  38.3544731  39.9718928 100.6973171  37.5117850
  40.8415508 101.6939163  38.2476354  84.4918688  21.9724887  28.4899306
  84.7827776  21.0673945  28.6013007  85.1145276  22.3494285  27.8682852
  90.9537085  45.9761661  29.5136714  90.6439742  46.6150992  28.8717484
  91.9080170  46.0369056  29.4708180  40.8179522  73.2856035  14.3144250
  41.6173172  73.3085299  13.7883878  40.1574326  73.7074804  13.7649071
 104.3874939  19.5506137  42.9761600 103.9913186  19.3492835  43.8239479
 104.6090182  18.6959975  42.6063061  97.3077115  37.5591128  13.9342713
  97.2193154  37.7267116  14.8725283  96.5427979  37.0280211  13.7127256
  83.5517462   0.8732074  34.2700434  83.9340456   1.3582175  35.0013733
  83.5128077   1.5088027  33.5553885  39.8342919  96.9381428  36.8405628
  39.7231460  97.8372192  36.5314794  40.3601742  96.5148640  36.1619496
  25.3275847  78.6483335  17.2317660  24.4429851  78.9808941  17.0797312
  25.5114102  78.8657141  18.1456506  67.1386957  81.1836243  33.0715966
  67.1679211  82.1331310  32.9540157  67.7180004  81.0164070  33.8150215
  80.0801190   0.9644168  72.3709106  80.7996520   0.3520625  72.5242853
  79.8235138   0.8095973  71.4618349  78.2852697  87.3563385  36.5136003
  78.5615063  87.8661728  37.2751713  77.3366976  87.4785614  36.4748073
  45.6593704  79.8310423   8.3593440  46.1339617  80.5953121   8.0324024
  44.8058891  79.8767090   7.9284000  72.1337851   6.6733306  45.4991579
  72.7466973   6.5196269  46.2181473  72.6579936   7.1076911  44.8262787
  64.5162614  18.1030982  48.6970377  63.6668857  17.9947322  49.1248751
  64.3044075  18.4356349  47.8248167 104.6949013   5.4011958  56.5881348
 104.6088704   5.8883422  57.4075985 104.4282206   4.5092242  56.8106270
  24.9427557  88.6415958  41.6940880  25.4190564  88.0607605  42.2873831
  25.5818415  88.8713551  41.0195398 102.1101856  78.7442398   1.2796874
 102.7641678  78.6851835   1.9761415 101.9452477  77.8354788   1.0283257
  56.0592683  23.6290019  48.1719160  55.6600352  24.1406482  47.4683046
  56.7105921  24.2163890  48.5553122  58.2018908  26.3294261  24.0331006
  59.1461929  26.2907546  23.8813448  57.8467902  25.6043094  23.5189652
   9.9959069  77.6133442  33.8038158  10.2266407  76.7849684  33.3833623
   9.1122955  77.8038311  33.4888911  52.3244381  90.9946156  12.0645964
  52.3049259  90.5207920  12.8960657  53.1572628  91.4662838  12.0772028
   5.7212392  22.7390616  11.3411510   5.9509269  21.8542998  11.0571206
   6.4628259  23.0183261  11.8780839  39.4060802  80.5001640  34.9354982
  39.0137863  80.7515335  35.7716489  38.7851119  79.8777151  34.5570970
  85.6125554  31.8285602  18.3908975  85.8871563  32.5693744  18.9312863
  85.6062611  32.1728938  17.4977982  50.6144667  82.8865814  70.3279591
  49.9161959  82.5999832  70.9166145  50.4242897  82.4473190  69.4990349
  92.2752436   2.7924960  28.8034058  92.2488650   2.7382319  29.7587013
  91.4360484   2.4299186  28.5196471  65.1161154  11.7804568  15.9858346
  65.1289662  11.8769687  16.9380701  65.4486378  10.8964770  15.8301735
  54.7152662  77.0310879  50.2872419  54.8046398  76.4216232  49.5545769
  55.6133366  77.1888447  50.5784750  42.9936489  18.9529174  39.6615481
  43.2890966  18.3952849  38.9418387  42.3024615  18.4467738  40.0885248
  65.6821966  90.6487083  38.1041312  64.9332905  91.1600113  37.7976394
  65.8121252  89.9847412  37.4270058  98.3334351  82.1690559  70.2248859
  98.0259418  83.0749512  70.2569580  97.5359917  81.6431332  70.2859688
   9.0901176  41.8845408  54.0125608   9.5163719  42.7326148  54.1363478
   9.6481029  41.4253943  53.3848095  83.8436898  23.1490081  54.8033810
  83.0926379  22.7647918  54.3511391  83.5349854  23.2969993  55.6972694
  92.7599677   2.3999923  51.5820122  92.3479231   1.5897983  51.2819386
  93.5755404   2.1154349  51.9944382  50.4110213   2.0370238  65.3273726
  50.7748052   1.1538642  65.2648067  50.6359669   2.3266356  66.2115431
  81.1506367  91.9287777  37.0686722  80.9867191  91.0451794  36.7391109
  82.0856857  92.0700550  36.9204783  79.1933537  80.4153919  14.4721591
  79.9979305  80.0279617  14.1275048  78.5677767  80.3498554  13.7506425
  64.4119215  69.3951511  31.1150146  63.9413834  70.0930166  31.5708780
  64.1541910  68.5944510  31.5718365  86.4179516  86.6727448  26.1099029
  86.3219547  86.5068054  27.0477080  85.7210350  86.1579895  25.7030106
  23.1032538  82.0308208  11.4336646  22.4789429  82.0039654  10.7085812
  23.8090014  82.5969791  11.1212194  71.9718369  31.0921710   1.0094994
  72.3558601  31.1423438   0.1341483  72.0000680  31.9917624   1.3353531
   6.5537697  93.8375759  31.7654657   7.2596818  94.1504288  31.1997390
   6.1646610  93.1087303  31.2821388  83.4692574  94.7613144  11.0415268
  82.5625515  94.7933102  10.7364202  83.8367176  95.6085682  10.7898045
  61.1234617  65.3265095  76.3707066  62.0444155  65.0743818  76.4378023
  60.7084656  64.5973349  75.9099293  52.8342390  71.4182806  23.3544111
  53.1500149  71.8790579  24.1317177  51.8916845  71.3290071  23.4952950
  43.9585781  95.0377941  36.1258507  43.2365036  94.5342827  36.5017748
  44.6753693  94.4080448  36.0493255  61.4440012  73.7066317  28.1451321
  61.4407587  74.5981264  28.4936452  62.3636198  73.4423971  28.1717873
 102.0449837  18.9230864   3.0841243 102.6562413  18.1947082   2.9742417
 102.0444878  19.3654769   2.2352920  74.1669798  94.1411686  70.7668066
  74.7733450  94.6717072  70.2500057  73.7238646  93.5884380  70.1230860
  31.8988681  86.0064316   7.9746932  32.3472333  85.9619141   7.1301711
  32.0996284  85.1711178   8.3967876  80.5357838  90.5729103  25.3551769
  81.1158180  91.0122490  25.9770870  80.9880924  90.6438446  24.5145726
  83.0056485  19.6786063  27.0322537  83.6798962  19.6408790  27.7106309
  83.0135592  18.8064425  26.6379261  45.4177809  95.6825352  21.7770648
  46.0181284  95.0283337  21.4195180  44.6035385  95.5512810  21.2912464
  65.9162617  70.2771139  55.4949427  65.8289433  69.3911743  55.1432085
  65.6825733  70.1919460  56.4192629  30.7547084   1.2937968  19.7491598
  31.0940639   1.6692489  20.5616283  30.8565513   0.3486484  19.8612177
  84.8402937  13.6123698  43.7142181  85.3649004  12.9196780  43.3127260
  83.9343222  13.3305018  43.5877657  49.0007639  74.5762348  20.8129907
  48.7951422  74.6130514  21.7471170  48.5991955  73.7614059  20.5112791
  96.6177853  20.7817500  17.2763312  97.5483521  20.5966609  17.1497643
  96.3981446  21.3954680  16.5753794  77.6994896  81.1380100  35.5637360
  77.8987932  80.7721710  36.4255166  77.2507191  80.4303551  35.1010752
  60.6055307  98.1007576   4.3056890  61.1394835  97.3778439   3.9762613
  60.9106636  98.2343388   5.2030635  33.7793088  82.9631615  17.4515164
  33.7726426  83.7241840  18.0320585  34.6467781  82.5770855  17.5726664
  57.4812126  96.2358761  16.2467778  56.6289330  96.2125874  15.8116758
  57.9473400  96.9560146  15.8220899  71.1937189  94.7163010  49.7123671
  70.2448416  94.7971630  49.6157503  71.5360498  94.8405743  48.8271570
  78.0980635  84.3982697  49.3935251  78.7130070  83.7088776  49.1428757
  77.7238321  84.0961170  50.2211046  80.7034930  11.9839423  31.5119457
  80.7194670  12.2138350  30.5829024  81.3010462  11.2397235  31.5848279
  94.3702467   7.3213809   4.3970540  93.4630021   7.1980994   4.1178709
  94.3844183   8.1958621   4.7860426  42.3247671  87.3999405  20.6106544
  42.5391436  87.8020382  19.7688723  42.9991817  87.7221203  21.2086511
  93.5768469  31.6864436  21.1275792  92.8418931  31.4887183  20.5470800
  93.5550698  30.9924548  21.7864656  79.2662152  13.2756465  38.0272913
  78.5340127  13.6441939  38.5215425  79.6493157  12.6252788  38.6159325
  16.1385528  24.5542472  45.5530548  16.2813846  23.6108249  45.4770041
  15.6774131  24.6603625  46.3851166  61.0900974  67.8779936  18.1589782
  61.1291313  67.1073389  17.5925851  60.7242012  68.5657310  17.6027727
  56.4582348  84.8516941  40.6378412  56.0987282  85.5318260  40.0682783
  57.3458767  84.7087383  40.3093767  76.6729784  88.2292843  33.9846587
  77.1778154  88.3528900  33.1808615  77.2977495  88.4023285  34.6888924
  49.7768164 100.2443504  20.8529377  49.3664789 100.0932789  21.7044234
  50.5157757  99.6362972  20.8319163  53.3377552 101.2842274  69.8098040
  54.1979218 101.6602325  69.9967861  53.4254503 100.3593159  70.0401926
  99.0074929   2.4772304   6.5740383  99.5151194   1.7216723   6.2779254
  98.1274374   2.3241942   6.2300670  58.4690762  80.8507729  24.1240430
  58.2031775  80.2543736  24.8239279  57.9257298  80.6005192  23.3767962
  48.6538363  76.1593437   8.8400459  49.3857574  75.5600834   8.9863688
  48.9791012  76.7799520   8.1879109 103.8632592  31.1464637  54.1534138
 104.4045313  30.3645652  54.0444136 102.9765566  30.8555453  53.9404345
  95.3815937  16.5501189  22.0440269  95.7160950  15.6685162  22.2087002
  94.4569588  16.4200044  21.8334222  99.2552289   3.9740603   3.9788792
  99.0752657   3.0761283   3.7003982  98.6597451   4.1208022   4.7137943
  84.8591479   0.5999797   5.4042208  84.9029931   0.0864070   6.2107891
  85.3907927   1.3752311   5.5847073  54.2551947  83.3896923  50.3263092
  54.2513752  84.3468761  50.3253508  54.7888899  83.1515503  49.5682287
  71.9315195  67.8808260  47.6015329  72.3866892  68.2279968  48.3686876
  71.3744974  68.6014223  47.3070812  93.4524830  27.1175044  39.0153146
  94.3920573  27.2968333  39.0510154  93.0572756  27.8023570  39.5547771
   8.0125086  34.9540847  54.1349411   7.4886839  34.4462722  54.7545910
   8.3958904  35.6543963  54.6629715   0.2133552  61.6214214  85.3123685
   0.7298414  62.3253094  84.9199319   0.8434407  60.9163986  85.4612693
  94.1559466  30.1038974  45.4876518  93.3904179  30.6764739  45.4391432
  94.0806111  29.6749919  46.3400602  71.2320423  86.9193363  33.8859773
  72.0468521  86.9676018  33.3859849  71.3627100  87.5246334  34.6158862
  85.0010022  27.3974841  42.4120331  85.3418454  26.5753882  42.0595932
  84.4647130  27.7569716  41.7053509  31.1082260  46.0123097  83.1090551
  30.2807371  45.8003460  82.6771182  31.0876028  46.9636856  83.2124552
  20.1235334  50.3400265  86.3214569  20.7929079  51.0062157  86.4775191
  20.2052537  49.7400986  87.0628355  91.5996560  43.4415095  15.0075042
  91.5816411  42.5488894  15.3526735  91.0057028  43.9305442  15.5769730
  19.2813675   9.0123980   6.1285061  18.8945572   9.7915881   6.5278435
  19.4855396   8.4403651   6.8683213  97.7132710   5.5543273   5.7039857
  96.7772969   5.3549426   5.6831861  98.0105551   5.2203315   6.5503323
  68.8968992  87.7594662  30.4571700  68.5855484  87.1851063  29.7575927
  69.1690588  87.1623325  31.1540127  91.1888417  23.3558505  44.6085835
  91.8398341  24.0555423  44.6621704  90.7173832  23.4031432  45.4402828
  96.5758046   0.8086055  16.5603971  97.3344763   0.8909362  17.1382153
  96.2540921   1.7043345  16.4583981  98.1627091   0.6280940  57.8500462
  97.4133357   0.3088038  57.3473167  97.7874764   0.9170859  58.6818600
  99.2410286  14.1455310  52.7747250  98.5412320  14.2192214  52.1258116
  99.7341832  13.3696883  52.5080919  85.5239677  89.1673756  37.6241851
  86.3616848  89.6300220  37.6446915  84.8976135  89.7896004  37.9939890
  84.7095490  98.7465858  19.7796571  84.9869061  98.5761452  18.8795185
  84.0485477  98.0774593  19.9573731  72.8378161  12.7259200  24.7478342
  71.9544395  12.4762671  24.4766283  73.1607970  11.9694846  25.2374506
  58.6388397  98.7139797  35.0877070  59.5201397  98.4353161  35.3364897
  58.2850170  97.9753685  34.5922422  22.9253141  32.3732792  86.2600906
  23.2783119  33.2330643  86.4889958  23.5746757  31.7521988  86.5899706
  47.0142555  87.0696735  11.3043141  46.1913586  87.0915794  10.8158517
  46.8324280  87.5661469  12.1022415  59.2688847  97.8596306  18.0183446
  58.5170555  97.3469925  17.7213991  59.1289711  98.7291908  17.6434648
 104.5880707  14.5201533  32.2528410 105.2022894  15.2506011  32.1793103
 105.0492533  13.7789672  31.8601704  89.9298668  77.2414780  76.3599253
  90.3059196  76.9475603  75.5302095  88.9935017  77.3280478  76.1811876
  13.5763446  24.5080035  18.5158861  12.6351444  24.6646541  18.4394729
  13.9804260  25.2686446  18.0982888  58.7041759  96.2835503  58.1765461
  58.6527395  96.0569477  59.1051102  59.4392395  95.7680893  57.8445673
  81.8704510  85.1589680  10.6635296  82.4653816  84.5669079  10.2033544
  81.8770123  85.9600163  10.1395893  79.4852400  60.3785563  21.3010931
  78.6639786  60.4786921  20.8197045  79.2848301  60.6894970  22.1839190
  78.0204821  78.9228868  32.1527290  78.2777786  79.0624237  31.2413764
  77.2075033  79.4185734  32.2506642  13.9432518  39.9916874  86.7471760
  13.6705438  40.4204784  87.5583499  13.8796560  40.6763397  86.0812613
  84.1473731  30.3185599  41.3310671  83.7298783  29.5417064  40.9590149
  85.0837525  30.1772540  41.1915636  86.8471297  21.4186709  20.3646398
  86.3975676  22.1449607  19.9326277  87.7285775  21.4266818  19.9915147
  36.1123296  65.3514617  30.9700465  35.2547150  65.1439040  30.5990386
  36.7206895  64.7800773  30.5013800  44.7148983  69.4502770  87.3362774
  43.8442413  69.0812718  87.1878751  44.5580093  70.3832756  87.4816230
  87.0006903  11.6854613  52.6121330  86.6143139  12.0686477  53.3996010
  87.4175843  12.4230044  52.1666479 107.1868762  12.8398078   9.6533620
 107.0069417  12.5498240   8.7590659 108.0394038  12.4578612   9.8620355
  89.6773394   9.1441291  32.4783182  90.4356011   9.6198600  32.1392703
  89.2703827   9.7513144  33.0963349  14.3525116  32.9891818  21.4468026
  14.2715351  32.1260398  21.8525934  14.2973606  32.8179686  20.5066538
  95.9433230  13.7585204  15.3490114  95.3651198  13.0228560  15.1472473
  95.5729922  14.1433661  16.1433554  50.1501226  92.9673767  44.6598482
  49.3939209  93.5507202  44.5958424  49.7917128  92.1468925  44.9983597
  87.1577271  11.8603366  82.2093487  86.6415175  12.4606364  82.7472973
  87.3573788  12.3596995  81.4175129  18.3923757  85.6473732  34.5126128
  19.1832674  85.2244377  34.1781735  17.8271830  84.9221230  34.7786927
  61.6121721  99.1924572  18.0174029  62.1669197  98.6508846  17.4559867
  60.7739544  98.7309551  18.0426943  55.4131651  80.6941414  13.7253976
  54.4630241  80.6075668  13.6481404  55.6125546  80.3701878  14.6037674
  15.3273153  88.7530899  31.9095778  14.7100234  88.4566021  32.5783682
  15.8705401  87.9861259  31.7281675  42.1958256  81.3801479  50.8180189
  41.9232655  80.5509567  51.2109375  42.9580832  81.1536121  50.2852201
  94.5101746  16.8020766  37.8764582  94.1064318  17.6248591  38.1525970
  94.4129046  16.2222045  38.6317849  76.4261675  76.1137486  21.3153982
  75.7882118  76.2546301  22.0149660  75.9280729  76.2406063  20.5079079
   8.8226883   8.7710898  20.9281588   8.4243671   9.5713942  21.2703204
   9.5594780   8.6004775  21.5149045  75.7896527   1.8556254   6.5802610
  75.0478967   1.4502376   6.1311662  75.6372245   2.7965873   6.4931309
 104.1524180  10.4917090  30.7552481 104.6462973   9.8947852  30.1931262
 104.6113738  11.3281577  30.6781006  62.9608250  86.5931225   0.8797435
  63.2468843  86.3419437   0.0014988  63.4572458  86.0219097   1.4658444
  25.8996574  25.3275817  39.3085170  25.0833217  25.4342215  39.7968340
  25.7985775  24.4920676  38.8525248  87.4436005  46.0057586  33.9167333
  87.9238327  45.9841865  33.0890012  87.7844103  46.7760795  34.3713641
  98.1998213  52.8730529  42.7304268  98.0837878  53.7038749  42.2694492
  98.9391478  52.4552863  42.2887278   5.9402601  16.3393252  17.8642094
   6.1951629  16.9653266  18.5419798   6.4813987  15.5683558  18.0345273
  90.1807507  18.4257548  40.8698797  90.0166853  19.2951529  40.5045700
  91.0056647  18.5180228  41.3465691  87.6096781  19.3645137  61.3324642
  87.9627856  18.9775508  62.1335983  87.1344050  20.1401275  61.6304111
  94.7502899  89.6465492  14.1666067  95.4377937  89.0492630  14.4612694
  95.0487328  89.9511337  13.3096385  88.1836510  88.2247639  24.6649313
  87.7012634  87.5808620  25.1835155  88.6397457  88.7612820  25.3132772
  83.5725602  16.1091464  83.4561443  83.3109625  15.8487075  84.3393040
  84.2693766  15.4960196  83.2221508  94.2470264  81.0909653  35.3427410
  94.8481750  80.7117558  34.7016096  93.8210964  81.8098259  34.8757744
  39.1371385  54.2405926  83.4555334  39.5456497  54.8954903  82.8894418
  39.4933836  54.4203793  84.3255895  89.9808121  74.8962212  28.9351630
  89.0732193  74.7003031  28.7025309  90.1682186  74.3191671  29.6755147
  38.1685138  96.3167095  32.8511834  37.3490119  95.9004116  32.5840831
  38.8060212  95.6028461  32.8661537  13.3744375  58.3490597  82.9726785
  13.8882534  58.1113468  83.7445050  12.6491920  57.7243935  82.9660588
  71.2494087  83.2577896  50.5227518  72.1369362  82.9301262  50.3772783
  70.9632254  82.8251457  51.3272047  68.3469876  17.5779765  22.7584124
  67.8780302  18.2917254  22.3261261  67.8791221  16.7870658  22.4904490
  35.4017568  94.2805481  28.8366556  35.2504611  93.3857727  29.1411424
  35.2047539  94.2514801  27.9004002  92.2351154  52.8669582  84.0430349
  93.0756291  52.4445091  84.2199796  91.7179879  52.1948277  83.5991305
  64.7734356  93.4262466  24.5693445  64.2893696  94.0762711  24.0600586
  65.6900454  93.5733795  24.3360806  67.6377549 100.9184855  26.5949488
  68.3061727 101.1192882  27.2500277  67.4693998 101.7546113  26.1604571
 105.3591926  17.3800981  34.7728801 104.6814941  16.8577754  34.3437696
 105.3500805  18.2151556  34.3050909  92.8843478  27.0733452  54.1231823
  93.6690645  27.4064779  53.6878967  92.2050349  27.7152538  53.9165020
  12.3912597  13.8937032  29.5086956  11.7550063  13.3100092  29.9218726
  13.0247450  14.0854359  30.2001929  41.5239668  10.1906562  11.0084128
  40.7210112   9.9758106  11.4831054  42.1957922   9.6423692  11.4137053
  61.7704964  67.1290451  78.3472794  61.8157148  67.9063671  77.7905422
  61.3753462  66.4582449  77.7903992  19.5802498  33.7153316   4.1242903
  18.6585832  33.6018729   4.3564340  20.0102210  33.9345098   4.9509206
  17.7815843  27.4568439  26.4105201  18.0934131  27.5195217  25.5077100
  17.2978747  28.2702994  26.5538645  13.1646633   7.8370142   4.1803074
  13.4988034   7.4455726   3.3732411  13.1338787   8.7758523   3.9962754
   3.7681255  63.9722013  56.4859200   4.1631693  63.5071898  55.7484007
   2.9324922  64.2931032  56.1468458  29.8262548  67.5998402  40.8154058
  29.7030306  67.4516964  39.8778009  30.7561135  67.4287033  40.9647560
  98.8879893  14.4236052  34.3527389  99.2048852  13.7699342  33.7294221
  97.9614906  14.5305598  34.1373491  52.2163200  10.4953504  14.4424772
  52.8566504   9.8742658  14.7895551  51.4376736  10.3640366  14.9834883
  98.2578142  97.7010880  27.1497726  98.4465130  97.7414963  26.2122273
  97.3579558  98.0181763  27.2268581  13.9954841  24.1154885  38.4869552
  14.6250856  23.4258080  38.6971283  13.7747967  23.9662695  37.5675750
 102.6925651  19.8255670  84.1260338 102.1572040  19.9368966  84.9116707
 102.2855298  19.0950084  83.6603737  43.3884990  84.6439379  88.3083700
  43.6683082  83.9047187  87.7684688  43.9706343  85.3600233  88.0542573
  60.9442568  25.2775264  23.9615297  61.2701321  24.9990129  24.8173738
  60.6285334  24.4721389  23.5517740  21.8287444  43.3704090  41.1426544
  21.2863064  42.9871368  40.4533815  21.3203812  44.1166306  41.4603901
  36.6419888  10.3352439  53.9717197  36.4497995  10.4291224  53.0387211
  36.7157459  11.2340057  54.2926836  15.0718296  49.5075750  49.6104145
  14.8576128  48.9408159  50.3514433  15.8782530  49.1376114  49.2511940
   8.8996178   0.7784794  33.5785747   9.3017113   1.3469423  32.9217625
   8.0217582   0.6040255  33.2392216  91.0945575   5.6660855  26.2037420
  91.1199848   6.3468277  26.8761826  91.1933128   4.8466897  26.6885805
  35.9726381  60.5531120  34.9469066  35.8166885  60.2553034  35.8431339
  35.5179191  59.9131107  34.3993115  53.6548519  42.4614096  14.0843189
  53.1638050  41.9780636  13.4198761  53.1174469  43.2324886  14.2656028
  28.6921859  24.3437386  52.4587584  29.3990660  24.9011540  52.7840853
  27.8922272  24.7582769  52.7819586  24.7204065  35.6982875  30.7198238
  24.9987221  36.5460825  30.3733921  24.4289041  35.2091551  29.9504042
  72.4060297  15.2361000  23.3093858  72.5021267  14.3475819  23.6522126
  72.1777678  15.7645237  24.0741706  22.1389294  14.1678321  58.4320450
  21.9275260  14.0296376  59.3553209  22.8485370  13.5506380  58.2538319
  22.6198959  37.1013117  27.0908356  22.7551198  37.2448301  28.0275035
  22.5354433  37.9811573  26.7234516  41.9852638  61.7627954  16.7818046
  42.5736952  61.2752914  17.3582780  41.1261988  61.3657045  16.9251812
  19.4360868  10.6265007  72.4122387  20.0358240  11.1083637  72.9817611
  19.9915449   9.9880205  71.9649726  18.4960759  12.0363975  61.1163855
  18.7201440  11.5052187  61.8805027  17.9975736  11.4456165  60.5518484
  30.6779218  61.7674065  28.8783717  30.5382848  61.6199541  27.9429626
  30.2078080  61.0518742  29.3064356   5.4336721  29.9934173  18.9355266
   4.8309189  29.4507575  18.4271562   5.1403069  30.8905935  18.7766397
  31.0878015   4.1313669  26.3221169  31.9719529   4.4288918  26.5365672
  30.7811618   4.7499311  25.6591082  55.2265263  43.3425570  21.0474658
  54.9970961  44.2717600  21.0607553  55.8303928  43.2344246  21.7822361
  34.1815543  39.4600058  33.6344767  33.3808827  38.9389992  33.5735750
  34.6773839  39.0548873  34.3460011  31.8935227  62.2825909  35.3707886
  32.2156882  62.1839619  36.2667298  32.6838684  62.2834873  34.8308039
  47.5873661  27.5008035  16.5045524  47.5266790  27.3665619  15.5587578
  47.2963142  28.4029245  16.6375852  16.4412630  25.1808167  21.1314774
  15.5400193  24.8593211  21.1063242  16.9371653  24.5440292  20.6168723
  25.2888584  22.7307248  14.5980084  24.5906067  22.2817826  14.1214287
  25.4148221  22.2061324  15.3886831  22.7066517  28.9196587  32.5214744
  22.9751921  28.0009341  32.5294852  23.5039639  29.4041181  32.7355433
  52.9831266  24.7980475  10.7585168  53.7266302  25.2444911  11.1636341
  53.3777857  24.2187762  10.1066566  62.6913428  97.2121280  82.3415214
  62.8865623  97.9888957  81.8173510  62.6898146  96.4919084  81.7110365
  40.1501131  25.6223106  12.6531422  41.0869503  25.7075071  12.4762070
  40.0106430  26.1279082  13.4538603  43.9466095   7.0498389  21.2737751
  44.1942167   7.9330516  21.5473795  44.5446348   6.4747369  21.7511225
  53.3360672  15.5441236   7.9383081  54.2009258  15.3838062   7.5607485
  53.5156727  15.8464050   8.8285887  59.2176342  36.0912633  18.5482466
  59.9724483  36.5150261  18.9567959  59.5282555  35.8338261  17.6802206
  54.2251682  21.6708803  12.9419816  53.6570930  22.3673344  13.2713366
  53.6222506  21.0186768  12.5851190  18.0220628  19.5326710  43.5885715
  18.8219953  19.5196640  44.1140938  17.5537574  18.7383723  43.8455009
  28.2800961  40.0523520  18.4518731  27.3842788  40.3056622  18.6745346
  28.4926081  40.5772066  17.6801229  12.0322192  54.2749500  33.0540419
  12.9280007  54.2716837  33.3913803  11.9203019  53.4083652  32.6632285
  19.0600312  67.8195744  83.0258548  18.7239313  68.7140351  83.0825186
  19.3155038  67.6024621  83.9224189  91.7402263  84.2157788  10.3617382
  92.3606666  84.5398087  11.0146487  91.0806950  84.9062497  10.2946615
  94.8093347  56.7581511  25.1805139  94.1612474  56.0734558  25.3460693
  94.3429033  57.5761032  25.3526521   8.3782810  44.3074751   2.7118358
   7.8212410  45.0433540   2.9656500   8.3848810  44.3309689   1.7549470
 104.1283725  47.6780987  42.4764109 104.9129285  47.5763798  41.9375658
 104.4463114  47.6136303  43.3769608  99.1678127  95.5110694  33.0945516
  98.7961968  94.6358950  33.2050204  98.4409602  96.1052389  33.2813144
  15.5057502  47.4579287  40.0990343  14.8840749  48.0475187  39.6722651
  15.0677133  47.1925449  40.9076929  18.1077278   9.8486435  22.2809577
  17.2203720  10.2063763  22.3102903  18.4916079  10.2249265  21.4889479
  28.7802362  42.0708227  15.9230518  28.9602089  41.4063454  15.2579856
  29.1130877  42.8846502  15.5447340  71.3959374  97.9881478  37.4595428
  70.5425026  97.5551353  37.4400210  71.1911738  98.9159346  37.5758004
  32.7061486  58.4464693   3.0260861  33.1388450  57.6519299   3.3386716
  33.3439422  58.8509989   2.4380289  25.7042623  41.3449144  18.6234319
  25.0817084  40.8944082  18.0527282  25.5676508  42.2744656  18.4403980
  75.4386711  83.6262506  63.2192200  74.8556328  82.8950804  63.0150455
  76.1648989  83.5328668  62.6026958  68.1982054  13.9306198  64.1363591
  67.5497653  13.2309233  64.2149776  68.7846016  13.7985407  64.8812908
  33.4668970  78.3700180  42.0039988  33.2580853  78.0608368  42.8854942
  34.2098165  77.8316689  41.7310810  52.9727793  24.4908118  25.1842451
  52.8663445  25.2782321  25.7179809  53.8240623  24.1386151  25.4440522
  99.7485336  96.6412819   2.5388238 100.5498036  96.5574653   3.0557147
 100.0242599  96.4650745   1.6392916  62.7212977  62.8271597  78.8568061
  61.9063878  63.0189067  79.3209046  62.6684475  61.8927365  78.6560786
  10.7993042  28.9703631  33.4928370  10.6370842  29.4472146  32.6788759
  11.3669050  28.2437658  33.2357049 107.6269654  24.7724795  21.9011354
 107.2113092  24.2785025  21.1944199 108.5273820  24.9038696  21.6041207
  56.0968161   7.4202108  28.4617901  55.2371645   7.1943158  28.8170409
  55.9087706   8.0337280  27.7515292  53.6212063  23.1262612  22.9356265
  54.3478966  23.6908412  22.6721764  53.2877874  23.5245252  23.7396479
  86.0317723  20.2815843  50.4809618  86.5826217  20.0759172  51.2362766
  86.5869014  20.0989890  49.7228575  23.0816007  17.3320329  19.0076411
  22.1803164  17.3783803  19.3266547  23.2318807  16.4001191  18.8489461
  97.2153560  82.9469299  39.0271020  97.4004940  82.8076077  39.9558353
  96.3563649  83.3690834  39.0148139  49.4457817   5.6046844  39.8685145
  49.6591711   6.4850444  39.5592189  50.2007866   5.0728410  39.6168351
  11.9120848  32.2977018   5.1421791  11.0168350  32.2680879   5.4796427
  12.1920514  31.3825178   5.1252204  45.7464504  64.3922663  24.9562955
  45.6847334  63.4522247  25.1258349  45.5374718  64.8013306  25.7960749
  15.9716749  45.1044178  16.5501463  16.5275371  45.7578516  16.9747365
  16.1442256  45.2143764  15.6150711  43.0598402  40.3364611  45.7586145
  43.0422926  40.0302649  44.8518753  43.5831738  41.1374474  45.7308435
  49.6740913  46.7301464  12.3039877  50.5128765  46.8732738  11.8656015
  49.0226269  46.8133593  11.6076410  19.5249641  54.3749189  24.6060038
  19.1784918  53.5447502  24.9331188  18.8440073  54.7041178  24.0193534
  30.4695010  13.8632989   2.6257968  29.7007823  13.3132386   2.7765849
  30.6223202  14.2967010   3.4654641  33.2508516  41.0213852  20.4132414
  33.4783936  41.8543577  20.0001931  32.4590230  41.2118530  20.9161949
  15.7984233  46.8864155  12.3544526  15.6974995  47.6120138  12.9705310
  16.2725616  47.2649956  11.6141140 102.8630004  25.3333664   6.5845436
 102.0279316  25.6561041   6.9232655 103.3133001  24.9819827   7.3526531
  44.0231687  84.9846547  74.4357413  43.5331976  84.9377173  75.2566904
  44.7553634  85.5707853  74.6269887  73.6195659  87.1415227  87.2410502
  74.3725300  86.6749614  86.8782867  73.9972663  87.7448981  87.8809810
  13.3222389  41.6272259  16.5906560  13.4006011  42.1779585  15.8116925
  13.6502302  42.1740294  17.3045611  91.4380455  85.3017848  73.5849780
  90.8559751  84.7980016  74.1538661  91.0027170  86.1485475  73.4864241
  40.3287801  88.9607113  57.5191921  39.4561845  88.6751931  57.2484725
  40.1901349  89.8292153  57.8969615  33.6015320  15.5281448  24.6003437
  34.0623188  15.6963634  25.4222989  33.9271545  14.6749651  24.3134880
  20.5847287  64.6671915  17.1354663  21.0094881  65.0715876  17.8919542
  21.1710882  64.8552656  16.4026356  68.0372929  91.7682260  79.7484612
  67.4111175  92.4918168  79.7718894  68.4235453  91.8139594  78.8738477
  10.3796911  14.4699991  15.2959347  10.5895877  13.9281368  16.0565662
  11.2234116  14.6225619  14.8703849  28.8724208  37.7673650  14.1871834
  28.8299537  37.0125294  13.6001134  28.6696911  37.4100780  15.0517523
  45.6607580  33.2318187  45.9008598  46.1635113  33.2163596  45.0864649
  46.1798286  33.7766147  46.4924669  13.9623904  42.1731138  28.6583018
  13.3158445  41.4675665  28.6379361  14.5754302  41.9565582  27.9557943
  38.0074191  54.7097111  15.5367208  37.2620821  55.0040674  15.0132155
  37.9744172  55.2505875  16.3257670  10.4812729  19.6771348  22.2230172
  10.1758802  18.7850058  22.0584822  11.2834823  19.7547448  21.7066193
   9.3238181  42.4623680  18.9237761   9.3394428  42.7515793  19.8361063
   9.0676206  41.5411949  18.9688861  39.4229054   9.7504425   8.4059805
  39.8667932  10.2041686   9.1224486  38.4937406   9.7993553   8.6306840
  32.4520522  96.7830079  81.1127466  31.5063053  96.6839784  81.2222355
  32.5491601  97.2585099  80.2877021  61.2858009   7.9439414  21.9913673
  61.1371565   8.8088483  22.3735619  60.5798054   7.8394061  21.3534975
  52.1947797  96.9342066  12.0820820  52.9878219  97.1140379  12.5870347
  52.5148221  96.6697354  11.2196088  91.9226122  84.4430655  79.7905755
  91.9916582  84.0490192  80.6601685  92.3704958  83.8260978  79.2117983
  51.6025066  54.1850233  25.0950313  50.8907557  54.2405653  24.4574165
  52.3993540  54.1805172  24.5647001  31.8647790  64.6558332   1.7910196
  31.8201995  64.2799664   2.6702064  32.7797389  64.9177361   1.6886173
  57.1396351  17.4886775   8.0615360  57.4083567  17.6952600   8.9567143
  57.2180271  16.5365767   8.0016154  23.6127996  25.3075910  40.6017828
  23.1697822  25.9676099  41.1350203  22.9578066  24.6206570  40.4779291
   0.3340391  45.3068447  27.8979850  -0.4184725  44.7617197  27.6682067
   0.9470943  44.7038746  28.3184886  70.6602025  79.5971935  84.8345884
  70.4717254  80.4953330  85.1067236  71.4139366  79.6772283  84.2500263
   7.4043149   0.0459693  19.6522975   6.7058241   0.1861223  20.2915931
   8.0821836   0.6762612  19.8961377  18.1965137  35.7570148  40.3911066
  17.8642237  34.9120831  40.6942606  19.1487336  35.6687403  40.4325533
  71.8993275  28.9537048  28.4062505  71.1727230  29.4072533  27.9789639
  72.2087161  28.3273768  27.7518606  64.2523813  39.1140890   7.4898440
  63.8916397  39.9969482   7.5714320  63.6721230  38.5682702   8.0205125
   8.1834757   3.1665820  14.6035981   8.9691752   3.1091213  15.1472950
   7.6987624   3.9105815  14.9610186 103.4533728  51.6508198  23.0239558
 104.2969228  51.2328959  23.1971431 102.8753404  50.9295702  22.7751493
  63.3304453  16.7449546  12.6642990  64.2085886  17.0105052  12.3912144
  63.2455111  15.8434212  12.3540461   8.6859936  49.1804218  30.2888274
   7.9540122  48.7367916  29.8603106   8.3389455  49.4477463  31.1399007
  23.3849692   7.5098646  18.9467049  23.9691949   6.8273401  19.2769670
  22.6498747   7.0311850  18.5636473 101.9107445 100.3897614  22.9889059
 102.3332675  99.8919677  23.6888409 101.0728749  99.9474678  22.8525901
  39.7532082  40.1759577  39.1518188  39.5489430  39.4618964  38.5479784
  39.7190380  40.9646130  38.6104417  76.1280537  40.8320379   3.9306080
  75.4326153  41.0024786   4.5658588  76.6068649  41.6588068   3.8720590
  87.8158967  25.2788329  51.4188480  87.4249951  24.5043445  51.8233204
  87.2355501  25.9980154  51.6682625  84.1871357  50.8617020  14.7691214
  84.9681568  50.5962801  14.2835450  83.9827442  51.7351294  14.4350839
  83.2659054  93.6037391  82.0330000  82.8004646  93.6214345  81.1967671
  82.9611921  94.3857234  82.4933052  38.8521695  65.3122330  30.0552082
  38.5617757  66.2218714  29.9883938  39.6356654  65.3506136  30.6037474
  19.0961182  43.8833332  15.5411124  18.9028585  42.9842329  15.2755916
  18.5403275  44.4236422  14.9795103  20.7889462  35.1373696  41.1117840
  20.6121922  34.7995472  41.9897747  21.7427325  35.1151657  41.0341311
  32.0209599  75.2395964  22.0412087  31.5220165  74.9696398  21.2702298
  32.7439499  75.7586575  21.6889381   0.9921638   1.3350426  73.0231946
   0.6580678   0.6525360  73.6052567   1.2613098   0.8657585  72.2335344
  37.3631048  64.1751862  24.8602104  37.6035309  63.6715841  25.6379080
  37.9494953  63.8531685  24.1756058  31.6657567  70.1618338  39.4301653
  32.1424556  70.3683996  40.2341032  31.2657809  70.9913254  39.1690302
   0.5069694  53.9397383  16.6418636   0.1668829  53.5281563  15.8473992
   0.1099839  54.8107052  16.6491592  49.7771072  35.6957269  18.6050355
  49.1922665  36.1190677  19.2335093  50.0204420  36.3935065  17.9966605
  73.3208227  68.6794346  80.2557468  72.5973844  68.0666607  80.1239246
  74.1081428  68.1569641  80.1028198  67.0151472  40.5291748   5.9150785
  66.3201761  40.9881353   6.3868880  66.7304564  39.6154404   5.8986610
  44.3544102  63.5537767  16.2197435  44.1881371  64.0499401  15.4182422
  43.7366486  62.8235865  16.1819184  24.4039321  19.1983497  20.4287815
  23.7338257  18.7704957  19.8957419  25.2306628  18.9663076  20.0058126
  20.8208609  41.3660765  46.4743614  20.4905915  42.2208500  46.7509794
  21.7733216  41.4581537  46.4982224  68.1169987  58.6592579  29.5766401
  68.9171076  58.8058472  29.0720940  67.7920055  59.5383501  29.7710705
  53.8603926  30.5773640  20.0774574  54.6926308  31.0418749  19.9889028
  53.4560823  30.9569216  20.8576512   7.1747047  87.2786236  37.2260904
   7.7371407  86.8904018  37.8963017   7.2381586  88.2217121  37.3770452
  50.4290485  28.4664011  38.2182002  50.4902077  27.6313043  37.7544069
  50.9055519  29.0839553  37.6633954  16.2494385  42.8567886   2.1999051
  15.7242250  43.6559772   2.2408462  16.7933226  42.9673052   1.4200276
  26.2003422  44.4002438  29.7713757  25.7914281  44.9140978  30.4677773
  26.1073089  43.4916925  30.0579333  47.8681850  76.1272001  18.9488935
  48.4669209  76.4681816  18.2844555  48.4302521  75.6368351  19.5487761
  37.1590161  50.4467440  23.4813929  37.4933100  49.6025896  23.7845111
  36.2593341  50.4788303  23.8066220 101.2135730  33.2253551  32.3222733
 100.3449396  32.9162312  32.5794721 101.0441826  34.0132189  31.8057394
  36.1889386  59.2069674  19.6499383  36.0900950  59.3664551  18.7113082
  37.0025897  58.7082148  19.7237611  52.3570538  45.5965757  23.5891747
  52.8147173  46.4242792  23.7364197  51.9447136  45.3980350  24.4298816
  21.2974763  64.4151831   7.1947134  21.4327765  63.6725187   6.6061759
  21.9195223  65.0768661   6.8922913   1.6587839  32.6975274  32.0864034
   1.9794665  32.4373531  31.2228632   0.7069705  32.7272892  31.9894624
  41.2169162  21.7136465  77.5384897  40.2927200  21.9160019  77.3930698
  41.5821067  22.5162350  77.9109400   7.5178750  83.3529156  86.5923857
   7.5253804  84.1124099  86.0098511   8.1192954  82.7309864  86.1828381
 105.1338720  85.4879969  68.2378131 106.0756731  85.5007523  68.4083336
 104.7511005  85.9691589  68.9714342   7.1256179   6.6868556  41.5903664
   6.5261000   6.7421710  42.3345089   6.6051644   6.2888169  40.8925629
  36.1430669  31.4955926  15.9023428  36.5776610  31.5022278  15.0495148
  36.7350054  31.9814706  16.4765942  35.2032495   5.4830730  32.9883051
  35.3588438   6.2530088  32.4412918  36.0001588   4.9604759  32.8985214
  42.5849771  27.5023746   4.0368128  42.0940733  26.7360377   4.3334106
  42.9714298  27.8628659   4.8348930 104.1681625  44.9803829  26.3537574
 103.6544339  44.8267555  25.5608439 104.4078932  45.9059572  26.3082409
  55.8183050  72.2444105  11.8140984  56.2541533  72.8751087  12.3872364
  54.9087715  72.2384262  12.1123374  53.7745667  40.7453346   1.4850497
  52.8191805  40.7313108   1.5422462  53.9975643  39.9472523   1.0059148
  60.2568436  47.7212477   5.1318753  59.4669151  47.2595406   4.8506796
  60.0070333  48.6452770   5.1317412   1.9094186  36.5792370   2.8670311
   1.1543541  36.5324473   2.2805841   1.5792264  36.2637520   3.7082648
  13.4621561  55.7573318   2.5380743  14.0153003  56.0678673   1.8212536
  12.5961113  56.1164999   2.3452044  32.8989983  28.3305788   9.3583071
  32.8482747  27.5354362   8.8278306  33.8008046  28.6329937   9.2509568
   0.2597793  75.7375877  74.6141857  -0.2431552  75.5659717  73.8180452
   0.4618342  74.8689120  74.9617606   2.1691100  10.2894341  75.6538850
   2.7135173   9.6039663  76.0411638   2.5220815  10.4058586  74.7717911
   4.2851862  14.2459190  34.2804217   3.7618679  14.4113839  35.0646353
   3.6561269  14.2851388  33.5600209  14.1938249  16.2655054  82.6079631
  14.9471895  16.0735260  83.1663692  13.5501377  15.5944620  82.8351235
  36.5637183  52.8948975  10.5025339  37.4317575  52.6123857  10.7905006
  36.7257857  53.6951160  10.0029206  65.0608969  51.4030600  12.4942183
  64.6993542  51.3592291  13.3794284  65.4779816  52.2633791  12.4481702
  23.2637620  67.5766993  30.2438712  22.6139212  68.2690191  30.3648448
  23.4990978  67.3111057  31.1328650  23.4273720  35.5173755   7.1031177
  23.6430049  34.8670578   6.4346695  24.1755176  36.1144495   7.1065539
  49.6697140  69.3359327  13.9296114  49.7946644  69.3149614  14.8783898
  48.8755512  69.8553276  13.8040423  14.1006708  59.3574810  18.0317855
  14.8718143  58.7905169  18.0428469  13.3636439  58.7620449  18.1677222
  90.5043077  80.9814804  84.5073104  91.0190916  81.7879241  84.5369541
  89.6027040  81.2773436  84.3815827 105.3409372  56.9062948   6.8511069
 104.6791650  57.5789404   7.0118511 105.1762218  56.6179466   5.9533566
  88.2308142  34.9535203  17.1709323  88.7378363  35.5436063  17.7285683
  88.1636504  34.1440797  17.6774168  94.7397359  14.5308577  61.2262791
  95.1508435  15.3117453  61.5969985  94.3098410  14.8418175  60.4295796
  64.1093945  57.5209063  76.9995695  63.8036513  57.1234667  77.8149181
  63.4354901  57.2984301  76.3572389  89.7716669  46.9042110  36.7572141
  90.7241635  46.8903065  36.6634679  89.6174638  46.6658831  37.6713562
  12.8188944  23.2078075  14.8005295  13.3707571  23.2331085  14.0188396
  12.3491704  24.0417528  14.7891915  27.6335549  32.7323318  25.7229853
  27.4707532  32.0472646  25.0745940  28.5490584  32.9770708  25.5881190
  55.8815336  21.0882568  31.7668796  55.9650564  21.7187190  31.0514975
  55.8924866  21.6235209  32.5603557  72.7857518  98.7899631  84.8368531
  72.0351338  99.2144101  85.2523678  73.0843186  99.4199412  84.1809422
  33.9517403   6.9109362   6.7632252  33.1462979   6.6878033   6.2966371
  33.8246679   6.5567082   7.6433426  31.9294381  66.1892653  50.1092386
  31.0506392  65.8457804  50.2703810  32.3915339  66.0632420  50.9379864
  37.8592563  40.8843470  48.4302807  37.7814198  40.9991550  49.3773746
  36.9749331  41.0366058  48.0970764   8.5348332  44.5236778  25.0665736
   8.0310923  45.2709818  24.7440577   7.8956962  43.8140869  25.1315045
  37.4366927  36.3974738  10.1604640  36.6717482  36.0162854   9.7294301
  37.8365660  35.6654763  10.6300521  30.9191370  24.6933579  10.7427776
  31.2686706  25.5633759  10.9354544  29.9689937  24.8085856  10.7562566
  35.1925635  63.6571980  -0.1890514  34.8920536  64.5358610   0.0430590
  35.2107644  63.1829214   0.6421890  27.5189948  31.2736869  15.3893256
  26.9145823  31.2487817  14.6475053  27.3415947  32.1126008  15.8147514
  32.1305132  18.0993927   6.7157763  31.7655706  17.2147536   6.7372864
  32.8653431  18.0703080   7.3284864   3.1118217  42.0444250   6.2278622
   3.9755669  42.3255491   6.5297633   3.2358217  41.8442869   5.3000683
  52.3726082  58.8741064  14.9894428  53.1346703  59.2581749  15.4230082
  52.1297216  59.5142460  14.3205166  36.0661197  71.2428188  23.8438320
  36.6886377  71.4762068  24.5324779  36.5123057  70.5638790  23.3376765
  51.6681242  50.8212900  22.7191687  51.6851807  50.2366686  21.9614339
  52.0481730  51.6394138  22.3990726  47.8931761  36.2398553  20.5819750
  47.6582623  36.8420458  21.2879562  47.9215670  35.3794956  21.0005546
  32.3376107  34.2363119   3.7458098  32.7161741  34.4348741   4.6022528
  32.1611738  35.0932074   3.3574408  64.6642733  38.4487319   1.9467396
  63.9353037  38.6056447   1.3465625  64.3533802  37.7513576   2.5240144
  49.5637465  50.4013729   9.0123820  50.0603294  50.7071686   9.7714102
  48.8826370  49.8396635   9.3822461  65.5478740  96.2477201  85.4327029
  64.7742724  96.8006700  85.3230652  65.7264495  95.9089988  84.5554286
   3.4365884   9.9074684  68.0278176   2.9487459   9.9321114  67.2046321
   4.3538896   9.8478495  67.7609175   0.1369774  49.4261503  32.7441335
  -0.7195092  49.7996855  32.5364399   0.6203223  49.4617033  31.9186974
  39.9931550  57.1005011  16.3264382  40.8498049  56.7452955  16.5635264
  39.3826413  56.6757631  16.9290197  39.0040493  53.3097219  27.0865440
  39.7908378  53.2396126  26.5459156  38.2834220  53.1163359  26.4869380
  20.6670451  63.7041092  14.1568232  20.9110904  64.4076300  13.5553789
  20.0435185  63.1719875  13.6625648  59.7074270  65.5851460  11.3101745
  59.2307520  65.8828306  10.5353224  60.6283855  65.7364035  11.0976028
  89.3487581  19.9518953  76.5445667  88.9204379  20.5520140  77.1550029
  89.9413749  20.5076586  76.0384422   6.9058335  20.3971767  13.6189842
   5.9726954  20.2700210  13.7902057   6.9834262  20.3477931  12.6662123
  15.9448981  41.7719889   5.6626314  15.8002257  42.3253012   6.4301932
  16.3139856  42.3636961   5.0069708  40.2931499  46.2865257  37.2839117
  39.8139620  45.7079983  37.8771353  39.7465253  47.0696592  37.2196341
  39.8827076  53.9542341  34.4115615  40.4995871  54.6815777  34.4931817
  39.5526409  54.0195274  33.5154438  14.6280956  22.8662634  12.9144251
  14.8625004  21.9448161  13.0249894  14.5481884  22.9811192  11.9675076
  41.0978699  63.7916327   2.9177085  41.1602020  63.0076647   3.4633619
  41.8510485  64.3232346   3.1752923   6.7308384  10.8738852  21.7759609
   6.5615463  11.2246931  20.9016013   5.8744627  10.8728814  22.2035718
  41.3823271  51.0783529  20.1750541  41.3533592  51.2761736  19.2389679
  40.6101513  51.5139675  20.5359197 106.1681374  -0.3574140  18.3633447
 106.9690045   0.1667064  18.3517611 105.4958638   0.2245849  18.0090070
 107.6481460  65.7812643  18.7362421 106.8974363  65.9395933  19.3086040
 107.7799714  64.8338079  18.7706828   0.8002715  57.7787638   9.6289229
   0.3498091  58.4007978   9.0576208   0.2900874  57.7845621  10.4388058
  35.7504630  12.4779212  26.9718647  34.9500990  12.9140496  27.2641730
  35.4476547  11.8056881  26.3614225   5.6715576   3.1782375  86.6509421
   5.7627718   2.3110758  87.0458308   4.8389951   3.5087048  86.9883793
  43.7993765  47.2231197  26.3070393  43.7012005  48.0134249  25.7759953
  42.9562426  47.1256590  26.7495918   7.4571896  52.9721451  14.5804381
   8.2159007  52.7125645  14.0577471   7.3615587  52.2731733  15.2273715
  61.6712761  87.9076450  87.7738462  61.1921596  88.6889618  88.0499359
  62.5761080  88.0761808  88.0367299  65.7404804  15.1965332  12.4568975
  66.0469961  14.7405124  13.2406855  66.4413786  15.8147144  12.2499609
  22.8732133  54.8394728  24.3652344  23.6689186  54.4902897  24.7666788
  22.2001290  54.7354889  25.0378227  55.8232546  45.5802298  13.5579395
  55.7627535  45.3028297  14.4720626  56.7019320  45.3161430  13.2851517
 100.7340248   8.3132111  59.5559805 101.4369949   8.9591967  59.4869274
 101.1867245   7.4787556  59.6783608  12.8062141  74.4653893  11.4998484
  13.2831883  75.0170517  10.8798528  12.1877325  73.9754820  10.9579062
  25.2459455  37.7060914   6.6815013  25.9571266  38.2020044   7.0871162
  25.3719068  37.8323507   5.7410628  18.6153213   7.2726141  70.3807634
  18.0236808   6.7937504  69.8003465  18.0426256   7.6488529  71.0491162
  43.6542503  19.3227707  53.3852428  44.1037170  20.1513516  53.2189196
  44.1985504  18.8817583  54.0375298  79.9637127  45.1951361  26.4403939
  80.0681782  46.1246443  26.2370825  80.6777096  45.0010777  27.0476723
  57.0673108  85.1456779  86.6588412  57.5372052  84.9365824  85.8515554
  56.2930679  85.6272071  86.3674488  65.0934505  31.3287449  34.4730830
  65.8866072  31.8357253  34.6465969  64.9683475  30.8020735  35.2625108
  31.1176991  19.0015328  51.8624878  32.0582318  19.0887427  51.7074966
  30.7491088  19.8368180  51.5749598  44.3133593   7.0247769  31.2657356
  43.8793945   7.8769201  31.2237859  44.3700027   6.7396873  30.3537321
  18.8341498  36.7694521  45.2263165  19.2839491  37.3798656  45.8105326
  18.7947655  35.9503579  45.7200432  61.4824820  70.5378580  25.3953457
  60.9171677  70.3612041  24.6433878  60.8843660  70.5718899  26.1418915
  36.0866046  61.9347620  16.7391419  36.6768718  61.8044138  15.9969652
  36.0679388  62.8832531  16.8666172  39.6790886  60.7033348  27.9284668
  39.2640352  59.8759842  28.1723070  39.3053961  61.3457060  28.5317445
  44.1709232  15.5328894  31.3379216  43.4953451  16.0417104  31.7861676
  44.9200964  16.1260784  31.2822318  92.1579941  12.1006237  80.2285850
  92.3119219  12.0230137  81.1701345  91.3397797  12.5925289  80.1594031
   2.9376006  56.1219931  10.4393601   2.3203006  56.8486547  10.3548670
   3.7290293  56.4272499   9.9958593  23.1918812  52.5508785  31.6930628
  23.0601692  52.2684717  30.7880020  22.3155951  52.5376987  32.0780087
   3.1305128   5.6955248  41.4119482   3.6548540   5.8774644  40.6320810
   3.7250099   5.8597827  42.1439505  27.0413160  42.7048969  39.8762226
  26.9451904  41.8681431  39.4214296  27.9670191  42.9269171  39.7761750
  47.0514679  40.8983660   1.8419598  47.7258015  40.4430389   2.3461252
  47.5121260  41.2313318   1.0717937  62.6137304  44.5820189  29.1598821
  62.9145241  44.2729092  28.3053613  63.3764982  44.4883871  29.7305393
  10.9107709  32.3743105   8.5291857  10.7083368  32.7189922   7.6594460
  11.6877913  32.8606939   8.8046861   5.3124420  14.2633186  81.5873283
   5.2994005  14.1664539  82.5395250   4.7670166  15.0313078  81.4172131
  16.7781305  95.3895473  26.5882087  16.9523776  94.5267963  26.2120080
  16.0328555  95.7226944  26.0883999  49.2758989  39.7711563  15.3828549
  49.8314905  40.4380512  14.9793696  48.3922625  39.9803805  15.0801277
  54.1604948  51.7638731  26.1463213  53.5470963  52.1062136  25.4961085
  53.6248779  51.6141415  26.9253755  45.1187754  30.5035639  15.3860354
  44.9612856  29.6706486  14.9414229  45.2589178  31.1309123  14.6767926
  34.4763207  28.5626316   4.9211243  34.3984962  28.4863210   3.9701504
  35.1653457  27.9409814   5.1557016  62.6096869  38.8273287  19.9599886
  62.4063921  37.8919792  19.9648285  61.8425894  39.2370963  19.5601404
  17.1861017  49.8788595  19.0667021  16.9343507  49.6882915  19.9703264
  17.6587331  50.7095385  19.1198504  48.5561228  34.3387508  29.9901438
  49.0591860  33.6308432  30.3926682  48.4963846  35.0078726  30.6720066
  57.6549959  37.6361942  25.2670813  57.7151585  36.8247890  24.7628641
  56.7961693  37.9944396  25.0427866  57.1549654  24.9781871  43.8268518
  58.0092144  24.9383235  44.2568445  57.3535872  25.2157044  42.9211092
   6.1536622  37.2873640  38.5590243   6.8182802  36.6158581  38.7126255
   6.0382211  37.2971773  37.6088619  94.7532749  99.3779843  66.3814634
  95.6011057  99.4123738  66.8244451  94.1113281  99.4717973  67.0852679
  82.9005909  57.7325135  84.7559878  82.4132585  56.9840776  84.4116330
  83.7565279  57.3737215  84.9902424  18.2071058  17.7757393  76.4611584
  18.2360403  17.8164326  77.4170547  17.2770731  17.8475367  76.2464171
  50.3526211  40.1240301  34.4514394  50.3136587  39.4163990  33.8080335
  51.2784004  40.1823139  34.6876001  31.5714073  25.0726461  52.1200657
  31.8511152  24.1756582  51.9372797  32.3497868  25.4975390  52.4803734
  43.7073565  35.0392413  15.7877672  44.6620655  34.9766564  15.8168602
  43.4046793  34.1383791  15.9020817  52.7130604  22.3009396  18.9094400
  51.9593906  22.1499109  18.3389974  53.4729338  22.1422005  18.3494186
  35.5192184  33.1250525   7.0114702  34.7803664  33.7285495   6.9332474
  35.1762247  32.2855425   6.7051804  32.2031307  67.3893452  26.4458323
  31.8350935  68.2376528  26.1985350  31.5038633  66.7620993  26.2619233
  28.6539030  37.4715090  16.9388175  28.6974120  36.5925884  17.3154294
  28.4685946  38.0426121  17.6842940  43.4113264  41.5360975  28.7738490
  43.0189562  41.5577936  29.6466660  42.6806879  41.7035437  28.1785679
  24.5904589  51.1034632   7.7671957  24.8815799  50.9694338   6.8652439
  23.6378217  51.0195112   7.7263731  23.4576440  68.6374235  23.0346465
  22.7874947  68.6220169  22.3513508  23.2398534  69.4028759  23.5665107
  37.7460718  56.2053823  17.9612184  37.8462815  56.7292356  18.7560546
  36.9310856  55.7213783  18.0945253  50.6906748  39.9242902  17.9301488
  50.2034950  40.1468515  17.1368289  50.0823641  40.1112652  18.6451542
  40.4106522  44.8157120  28.6900663  40.5257702  45.5529928  28.0905724
  41.0903168  44.9376392  29.3529558  18.3278131  73.1467676  26.2805986
  18.0776012  72.2346258  26.4276552  18.4904706  73.2016706  25.3389192
  30.0039673  28.3091068   6.5361190  30.5818081  27.6460981   6.9139439
  29.1236210  28.0327630   6.7907906  81.8732881  72.7698010  76.5747684
  81.8552208  73.1075638  75.6793242  80.9678697  72.8428429  76.8766182
   9.3412513  41.6777754   3.5245830   9.5187712  42.3071289   2.8255606
   8.5125649  41.9694042   3.9046684  44.7567987  87.3693085   9.9886578
  44.2024755  87.4688435   9.2146742  44.2252779  86.8593788  10.5999613
  45.1152706  31.1753869   3.3895749  44.2204952  31.5133238   3.3521059
  45.1740980  30.7474375   4.2437586   3.9650480  79.8373634  26.8386269
   3.6063353  79.0080626  26.5226889   4.9078647  79.7620613  26.6914725
  32.3314619  42.4798155  17.3984337  32.0170140  42.2452164  16.5253258
  31.5482736  42.7725744  17.8644156  42.8883219  56.6877747   3.4263974
  42.2997665  57.4141312   3.6319381  43.3474159  56.5117407   4.2476618
  21.9743729  20.9660935  30.0711036  21.0536885  21.1758304  29.9143195
  21.9788456  20.0255656  30.2489257  26.3708711  71.2699938  26.7382526
  27.1590781  71.1632967  27.2707748  26.3971519  72.1829319  26.4517570
  53.3955610  97.0177644  78.0608564  52.9577100  97.3474544  77.2761136
  52.7531171  96.4359229  78.4670114  66.0016775  71.9597881  85.9696226
  65.5340338  71.9433253  86.8046492  66.5824485  71.1997479  86.0053333
  27.7822518  22.2555685  32.3813367  27.1467996  22.8912902  32.0522618
  27.3658919  21.8804383  33.1573224  35.0438118  47.6827574  58.2690954
  35.8564806  47.1770477  58.2766294  34.5378828  47.3123074  57.5458860
  11.8223011  51.3527679  56.3816452  11.2506270  52.0430374  56.0455656
  11.8072712  50.6778097  55.7030869  29.8537827  39.6096253  21.0007405
  30.0638008  38.6969876  20.8027220  29.3379474  39.9049234  20.2504444
  91.1539936  58.7156963  21.6906261  90.9452343  59.6428776  21.5766621
  92.1106339  58.6853123  21.7027187  68.2832241  49.7815371  -0.1703119
  68.2166719  50.6647778   0.1925799  68.4929800  49.2285490   0.5823087
  75.7386494  29.7608638  25.5412912  76.3072681  29.0416527  25.8163261
  76.1805010  30.1380420  24.7805429  21.7480755   5.2977979   4.6967378
  21.9774485   6.1980188   4.4660380  20.7926250   5.2731580   4.6443978
  37.1358180  76.4191532   9.5434177  37.6759315  75.7584810   9.1098034
  36.5986514  75.9221029  10.1603651  69.5374393  37.3900628  27.4884605
  69.1076517  38.0454469  26.9389272  70.4395199  37.3642707  27.1693778
  59.5262527  48.2482338  25.8111954  59.9169445  47.4247360  26.1034942
  60.2424622  48.7127161  25.3781462  14.9998140  41.2175941  70.0436831
  14.9767065  40.4244423  70.5790424  14.5836139  40.9629250  69.2201805
   1.3934441  13.9145577  12.4487054   0.4934244  13.8014519  12.7543247
   1.5426448  13.1721699  11.8631876  51.5951824  64.9927330  20.3064537
  50.9847593  64.5701838  20.9106660  51.6021824  65.9110785  20.5763197
  30.9164834  39.5511651   5.1076180  30.9847665  39.1579175   4.2376041
  31.2957931  40.4241467   5.0063133  87.1340235  14.8851334  76.0453063
  86.2338980  15.0113045  75.7451611  87.5859090  14.5026289  75.2931612
  38.5596418  71.1146164  63.9219666  38.3618355  70.1798344  63.8646507
  39.3484807  71.2254906  63.3912373  97.5431971  47.3251629  33.1834865
  98.4430466  47.4365377  33.4902406  97.2501103  48.2119560  32.9738951
  21.8334532  19.5915067   5.1054263  22.5371742  19.3693328   4.4957972
  21.5480208  18.7490547   5.4590309 101.0163641  83.8327616  79.1219806
 100.9905672  83.1305259  78.4720331 100.9552431  84.6376365  78.6075169
   4.4840384  40.2160740  36.6257262   5.3217435  40.6758785  36.5703797
   3.9009708  40.7103968  36.0496116   0.8871663  37.5792336  10.0758088
   0.3456575  36.8846774   9.7008568   1.6821431  37.5773287   9.5426679
  26.6737580  53.1670952  61.7518187  27.3042631  53.0082655  61.0493422
  27.2102761  53.4247875  62.5014639   6.4065737  28.7724900  68.1654453
   5.8641893  28.3832932  67.4794579   6.7512256  28.0236793  68.6519909
  36.1750531  21.0230994  17.7877402  35.6137800  20.6921411  17.0865476
  37.0587277  20.9942579  17.4209702  27.7587652  49.7366762  14.5512247
  26.9264030  50.0813580  14.8746455  27.7419162  49.9134207  13.6106348
  76.1304808  39.5709181  15.6512737  75.3742409  40.1509571  15.7400799
  76.2637854  39.2149591  16.5297699 106.8598605  63.7937355   9.1250265
 107.4877033  63.5078144   8.4614789 106.2069368  64.2951679   8.6366779
  65.1576662  67.7264452  17.7870083  64.5699549  67.7750397  17.0330441
  65.0665712  66.8279266  18.1041813  81.0618353  87.4625795  58.5768026
  81.2144422  88.3476108  58.2456487  81.0207748  86.9167870  57.7915281
  62.5729799  16.9958854  22.8338218  63.4793806  16.7419219  22.6601171
  62.0566607  16.2322438  22.5759506  35.8303714  69.1931391  11.6905177
  36.7847395  69.2583847  11.7244971  35.6425023  68.2915211  11.9513345
  49.1406973  26.3134848  67.5979990  49.4942506  25.5852448  67.0872158
  49.6445139  27.0747744  67.3101800  45.4426670  51.1024332  15.7263744
  46.3489914  50.9859467  15.4413462  44.9335098  50.5420923  15.1407099
  53.3735800  49.5990372  16.6104412  53.8114405  48.7484980  16.6435218
  52.8310204  49.5586443  15.8228946  23.4362650  18.0340195  53.2763195
  23.3183265  17.8616273  54.2104530  23.7425661  18.9400256  53.2367659
  50.8871508  48.5443401  26.2908864  50.5420542  47.8424931  26.8427444
  51.4131784  49.0795565  26.8850827   8.3499511  90.5443256  78.6707991
   7.9714902  90.6598919  79.5423740   9.2855723  90.4204314  78.8304579
   1.9228019  19.5218432  33.6518884   2.3377624  20.3568292  33.8683105
   1.4593555  19.2705166  34.4508147  49.3660962 101.5815395  63.5136765
  48.8133478 101.0792916  62.9149717  49.7434366 102.2721952  62.9688447
  36.6649508  49.6025610  15.9202433  35.9410238  49.2333603  15.4144287
  37.1381593  48.8399076  16.2529063  67.3257828  25.5229378  23.9861989
  67.0807362  24.6807027  23.6030269  66.8254614  26.1680603  23.4864736
  18.9035559  31.4169717  31.0717463  18.1517112  31.4840007  31.6603637
  19.2324913  30.5277967  31.2036633  17.5358307  38.3472729  41.1338949
  17.7624285  37.4841404  40.7876444  18.2409251  38.5515785  41.7481661
  37.8205729  81.9058418   6.9679838  37.3303604  81.8220329   6.1501193
  37.3870707  82.6201725   7.4349344  30.3645778  28.8084197  13.8141656
  30.6131577  28.3910680  12.9893887  30.5501866  28.1483626  14.4820762
  53.1961155  58.4544325  19.1727054  52.9297304  59.2027044  18.6385143
  53.4970427  57.8029585  18.5392594  78.8786324  21.1743300   8.7003875
  79.6391257  20.5944579   8.7407559  78.9639338  21.6230052   7.8591681
  50.2432835  94.2151445  67.7326554  50.7961225  94.5507424  68.4383279
  50.8191204  94.1903632  66.9684356   0.0365680  59.1977167  16.5418696
  -0.2853367  58.6689329  17.2719347   0.8704563  58.7932491  16.3025677
  37.3828387  68.5419226  14.7836924  37.8504467  68.2041073  15.5475354
  37.5931096  67.9255199  14.0822184  31.4179698  58.1012760  63.7311357
  31.2919656  57.4235188  64.3952077  31.1279718  58.9089428  64.1551822
  28.6075997  48.0365944  22.4264884  29.4595003  47.6269960  22.2757411
  28.6011314  48.2385159  23.3621264  71.3680000  19.8497664  84.2357120
  71.5270171  20.7358109  83.9103290  71.4927545  19.2877899  83.4709578
  35.8547950  73.1766319  27.5845575  35.9835982  73.6633873  26.7704844
  36.4804149  72.4540091  27.5330901  20.9001875  61.8969679  17.9789174
  21.5233016  62.5434685  17.6472569  20.0680041  62.1346569  17.5700092
  31.2739396  50.6166124   9.7028404  30.9598088  51.4993382   9.5070070
  32.1197414  50.5592728   9.2583585  41.0740892  14.4560133  84.4323653
  41.3180534  14.9219070  85.2321511  41.9073240  14.1691624  84.0586430
  10.8701316  25.8762919  83.6871215  11.4460603  25.2149235  84.0706974
  10.0210229  25.7241140  84.1019600  40.5177641  57.6891804  30.3150916
  41.1708307  58.2295418  29.8704052  40.9259558  56.8259001  30.3811002
  51.9069052  75.7695913   1.9984707  51.1753607  76.3710499   1.8594885
  52.6762867  76.2556410   1.7017581  74.1798019  50.6116438  13.3718932
  74.9651194  50.8170462  12.8646302  73.6923361  51.4348507  13.4025168
  11.2943912  97.3093987   0.2491464  11.5915883  98.1316185   0.6388441
  11.8609011  96.6421700   0.6365798  43.6272764  60.7263803   0.1230516
  43.8133335  59.8984051   0.5658554  44.4626617  60.9816837  -0.2683340
  78.1519755   9.7784751  34.1476417  77.2972687   9.5641749  33.7737584
  77.9542883  10.1057094  35.0251794  97.4063643  38.5147129  85.7814000
  98.1808432  38.7527500  86.2910588  97.1525129  39.3246971  85.3390082
  48.9517450  57.5664997  24.9481082  49.6175098  58.1990767  25.2179909
  48.2228327  58.1036711  24.6376848  48.2189798  42.7656507   9.3668127
  47.2695494  42.6505709   9.3272001  48.5700274  42.0386124   8.8525987
   5.8068681  72.7447605  25.3210592   5.9310246  72.3699093  26.1930132
   5.2373850  72.1207905  24.8709726  66.0560608  74.3146610  17.6516354
  65.3169107  74.8939276  17.4663448  66.7856455  74.9074936  17.8318894
  29.3134332  43.5104322  33.0600333  30.2582407  43.6324835  32.9669118
  29.0881205  43.9861679  33.8594961  91.9740009  93.9543574  69.8278433
  91.5721845  93.1109136  69.6195572  92.8754091  93.8737290  69.5160776
   9.5990580  75.7471037  11.7663157   9.0406793  76.4586496  11.4530349
  10.1938605  75.5707359  11.0373878   0.3679649   1.3516842  83.8600194
  -0.3787693   1.4114224  83.2641554   0.6868330   2.2510611  83.9353394
  36.1224985  77.6679897  28.3857942  36.7495966  77.6087904  29.1065407
  35.5407810  78.3868647  28.6328816  54.2726374  48.3157730  19.8579741
  54.9878836  48.4209585  20.4853415  54.6949863  47.9800081  19.0673304
  64.6335649  49.6956491   0.9676927  65.4588366  49.3208885   1.2754515
  64.2059422  50.0174475   1.7613024  88.0320740  55.8857679  41.9257307
  88.8968372  55.6949568  41.5624094  87.9459572  56.8362761  41.8525887
  72.9010630  82.5850391  28.9758229  73.4718323  83.3524132  28.9359140
  72.4760723  82.5578117  28.1185746  26.5182257  26.7537880  30.9822965
  26.8449640  27.2081900  31.7588234  27.2857523  26.3064766  30.6258631
  38.2546425  39.6611810  22.1547914  38.9700627  39.6040058  22.7881455
  37.7222919  38.8838720  22.3239708  30.7601810  66.0767889  10.2023160
  30.0687861  65.4185915  10.2728951  30.8387303  66.2418413   9.2627311
  69.5583534  27.7856159  17.3288298  69.0813684  28.4096742  17.8758860
  69.6657610  28.2351375  16.4906037  13.3155767  10.1657950  84.3734118
  13.5022871   9.4468294  83.7697085  12.3663703  10.1373039  84.4935342
  24.9920177  63.2406950  17.3341644  25.2724075  64.1543293  17.3878348
  24.3571782  63.2266665  16.6179132  72.1866512  29.5861983  15.6718862
  72.8752804  29.0205336  16.0212302  72.1331835  29.3538833  14.7448468
  86.3826942  88.8278239  64.9587387  86.9432545  88.2488888  64.4421786
  86.9164562  89.6084517  65.1069015  62.6965427  36.5612674  30.0197005
  63.4242058  36.1751413  30.5071902  62.0298290  35.8747053  30.0007915
  52.7035522  58.8824129   5.7109183  53.3854961  58.5360718   5.1353914
  52.5220060  58.1694221   6.3232189  21.8108741  15.6812893  65.7990092
  22.3380319  16.4739405  65.8992141  21.7906848  15.2948032  66.6744822
  39.6725607  25.2695584  29.9194813  38.8717866  25.4127884  29.4150233
  39.4609880  25.5830312  30.7988024  27.6407266  34.6146345  15.5183125
  28.5780334  34.5413661  15.6980932  27.5941539  34.9760461  14.6331882
  30.2789450  56.3677788  28.9570045  29.4421363  56.8211031  28.8546324
  30.2932310  56.0956287  29.8745871  34.1504979  75.0172281  24.5929074
  33.3101606  74.6438026  24.8586440  34.1654801  75.8848953  24.9968410
  50.4650497  62.0587826  18.6927450  50.5284071  62.3058844  17.7701628
  51.2827349  62.3702574  19.0808237  31.0290718  86.2270164  30.4724002
  31.8827105  86.3498211  30.0571251  30.3969049  86.4818478  29.8003459
  78.9262867  66.0689688  10.8842278  78.2598448  65.3838873  10.8317554
  79.5296717  65.7647228  11.5621614  58.4956741  49.3278503  31.2290931
  59.1349220  49.9606180  31.5565062  58.5169649  48.6141586  31.8666101
  19.1318933   1.0621010  65.2435130  18.4044830   0.5188690  64.9401921
  19.9058811   0.5101191  65.1317805   9.8714238  53.2252407  11.4321637
  10.7863986  53.2821131  11.7075133   9.4710773  52.6187372  12.0551455
   3.9327709  97.1487979   8.2614082   3.3257238  97.6968122   7.7640104
   4.7930233  97.5357921   8.0988127  16.0349965  50.5006075  25.0274253
  16.4462924  49.6615171  24.8200750  15.1897240  50.2650070  25.4098368
   7.0641223  60.7530724  82.9474109   6.7161981  61.5447365  83.3578327
   7.6841871  61.0751473  82.2931832  76.1683083  68.9370775  24.9367428
  76.1891651  68.0045033  25.1514578  75.3447771  69.2505646  25.3105760
  64.2254448 101.9983006   5.8415186  63.9208841 101.0935020   5.7721704
  65.0952816 101.9895077   5.4421026  46.1129379  39.7491980  24.1175365
  46.3195610  40.6688643  24.2841268  46.0817242  39.3494797  24.9867225
  64.9234619  11.3788401  73.9336186  65.3958191  11.1819159  73.1247109
  64.0344461  11.5879522  73.6469942 102.5554736  32.9238831  84.9311474
 102.1459802  32.0611702  84.8658311 101.8291267  33.5410534  84.8430988
  68.9468336  54.7168779   0.8594998  68.8727283  54.1121531   0.1212280
  68.0864334  54.6903706   1.2781152  63.0557966  49.7595310  29.0820050
  63.1846857  50.6632757  28.7941527  62.6419258  49.3269825  28.3351111
  42.9858065  41.1911583   0.4131340  42.7817249  42.1255445   0.3743787
  42.1320534  40.7614899   0.4652886  36.6578841  65.7345438   7.2547346
  37.2802091  65.1362705   6.8411994  37.1163702  66.0588884   8.0298632
  20.9056258  88.1412411  23.6732817  21.1618209  88.9151764  23.1716609
  21.7037249  87.6154995  23.7267852  43.6793081  48.8411842  77.7586072
  44.2695705  49.5195614  77.4305528  43.8212434  48.0968796  77.1737104
  25.0399089  66.2134075  17.6187575  24.1613340  66.1080265  17.2537518
  24.8942685  66.3737917  18.5511184  14.2020742   4.1927038  58.7653321
  14.1504184   3.2405983  58.6813134  13.9237968   4.3692957  59.6640032
  34.7300601  54.3860245   7.9203326  33.9828682  54.9497938   7.7200872
  34.4993043  53.9682484   8.7500596  24.2737198  57.1292543  23.4335637
  23.8868856  57.8938007  23.8602471  23.7759209  56.3866520  23.7755704
  38.3935571  65.5589533  18.0938923  38.4411597  66.5098333  18.1928635
  37.8312087  65.2711535  18.8130355  23.0786443  41.1241055  11.9842386
  23.5227227  41.8300390  12.4540079  23.7359142  40.7932615  11.3720548
  66.7757702  68.0779600  26.5258598  66.6381550  68.9475775  26.1502790
  65.8931398  67.7337933  26.6627955  96.3258990   4.9626957  69.9931580
  95.5369433   5.4109274  69.6884113  97.0386847   5.3727232  69.5032149
  63.1467962  45.9542894  14.3757975  62.7253819  45.4739380  15.0884736
  63.3098364  45.2920532  13.7041640  10.7445327  40.5312000  80.3746199
  11.6647903  40.7768761  80.4695070  10.7604925  39.7538696  79.8162895
   6.0831682  13.7461744  84.2788779   5.2900831  13.4665762  84.7361207
   6.7890684  13.2592045  84.7040784  16.6790144   6.9867645  83.4035736
  17.0415155   7.6295029  82.7938956  16.8362896   7.3628651  84.2696231
  47.4503946  90.0553799  25.3360009  47.0794964  89.3890381  25.9145021
  48.3925581  89.8869419  25.3497434  92.6041206  12.3812805  82.9489153
  92.7169522  13.2034575  83.4259099  92.9996117  11.7192112  83.5159093
  43.2315445  66.0209274  26.8559051  44.0207577  65.9508324  27.3929906
  42.5402498  65.6360722  27.3946333  93.5069402   8.5621058  87.5456217
  92.5622853   8.7157570  87.5614804  93.6025985   7.6354395  87.7655491
  97.8806837  16.1627852  81.6392451  97.8998144  15.9590708  82.5743204
  97.4323376  15.4168593  81.2407315  25.7864944  17.3470818  79.1516059
  26.2887184  17.9865538  79.6566564  25.9065715  17.6140343  78.2402605
  32.9375172  43.2516909  10.3973436  32.8544569  43.5691643   9.4981527
  32.0585608  42.9501867  10.6270456  29.2346406  71.8343973  32.2921777
  29.0722609  70.8932781  32.2277355  28.7643075  72.2101116  31.5479612
  63.4763575  47.1753979  22.9978275  64.3495560  47.5175381  22.8062582
  62.9363203  47.4738455  22.2660351  55.5208397  82.6322174  28.5472345
  55.2976561  81.7669868  28.8904500  55.0219107  83.2416630  29.0911841
   1.1146394  39.7190796  86.0430996   0.6636302  40.5453812  85.8697745
   0.7843510  39.4405113  86.8972319  48.2579756  82.6063156   3.2051727
  48.2388306  83.1137943   4.0165514  48.0106211  81.7205906   3.4707534
  76.8119574  53.3043957  38.3936238  77.3589802  53.6661720  39.0908432
  75.9307194  53.6212015  38.5918164  83.8114071  82.9658222  35.2654600
  84.5279312  82.3357201  35.3415418  83.3131790  82.6710606  34.5031548
  12.7063537  46.6087580  26.8695593  13.6046922  46.3906574  27.1178532
  12.3161697  45.7705832  26.6216612  26.7944757  14.2940746  73.1647867
  27.0593874  15.1999222  73.0051332  26.2316982  14.3417727  73.9375990
  29.7910833  75.9044552  36.6830873  30.1191211  76.7923832  36.5409374
  28.9769793  75.8666515  36.1810517  18.6825037  58.3338785  25.6906295
  19.4810081  58.7925100  25.9519291  18.8785470  57.9889870  24.8195076
  75.6225538  71.4645880  87.5421550  76.3698101  70.9070724  87.3253248
  74.9157476  70.8507722  87.7418716   8.6533062   2.9266153  82.6275897
   9.5866815   3.1300484  82.6880812   8.2617990   3.7105118  82.2422796
  37.6313758  66.8528080  23.9378428  37.5763631  65.9007025  24.0196633
  38.3590794  66.9996262  23.3335853  94.1960668  75.6782549  71.7918390
  94.0390253  74.7560876  71.9947535  93.8890076  76.1495727  72.5663131
  36.9302654  62.1539116  12.5466371  36.4362931  61.3551521  12.3616743
  37.1032000  62.5334835  11.6850984  30.7511234  59.6489334  13.1525898
  31.3811207  59.1252375  12.6575351  31.2228513  59.9049807  13.9451444
   2.2478572  18.3204828  83.7270805   1.3028327  18.1723152  83.7618458
   2.3395244  19.1936480  83.3457619  29.8769371  41.5231262  60.1554960
  29.8336498  41.7828404  61.0757726  28.9784042  41.6142880  59.8383802
  60.0023270  28.2481098  25.5670309  60.2247095  28.5719252  26.4399123
  59.3361712  27.5785565  25.7224846  65.3309345  56.9408655   3.9558500
  65.0126219  56.0402918   4.0181139  64.5543814  57.4545622   3.7337881
  34.5659995  66.4020157  21.6396904  33.6313033  66.3999844  21.8460107
  34.9625444  65.8573151  22.3196077  51.1529732  76.8310165  19.7310972
  50.9375000  77.0670652  20.6333613  51.5668535  75.9707451  19.8009098
  59.9510098  10.3575361  23.1208253  60.2091265  11.2518048  23.3441925
  60.6183863   9.8064309  23.5296321   2.3572270  17.7865063  78.8449311
   1.6433398  18.3108841  78.4821337   2.6895324  18.3074699  79.5759588
  21.0374093  65.5182457  44.4532537  21.8302226  65.4279947  43.9245415
  20.3198051  65.3966808  43.8315630 107.5194645  54.3421555  33.9340115
 106.5816593  54.4663715  34.0800762 107.6638794  53.4081841  34.0859222
  70.9769106  64.1228151  19.8361313  70.1998138  64.2865324  19.3017650
  71.5892935  63.6892605  19.2417800  78.6097479  80.1781559   8.0001998
  78.8794422  80.2942562   7.0891464  78.0479908  79.4032526   7.9868013
  54.8406402  24.5708881  84.4821384  54.3060485  24.6077334  83.6889899
  54.9763385  23.6359821  84.6362996  27.1697044  89.8206139   4.0787119
  26.9028401  89.1625786   3.4368294  26.3807297  90.3409004   4.2305192
  25.3589725  56.9901276  10.8667052  25.9801960  57.3193789  11.5162492
  25.8308148  57.0432043  10.0355744  31.9874239  53.2582474  20.1737428
  31.5038800  52.4372673  20.2654171  32.8244972  53.0929232  20.6075740
  17.8889787  88.7343216  10.9576511  18.0803871  89.4988918  11.5008152
  18.6451244  88.6586475  10.3756309  77.8426902  54.0328074  21.4318943
  77.8292720  53.1636333  21.8326306  78.6064593  54.4623709  21.8170714
  56.0709572  62.4187040  12.6460850  55.1538849  62.1819353  12.7844667
  56.0411692  63.1255102  12.0012856  97.5286428  39.3966627  19.1872823
  97.8780655  38.5438442  19.4458079  98.2593457  39.8316765  18.7478864
  32.9435563  26.6225100  23.7181544  32.7387619  25.7270694  23.9873719
  32.6028085  27.1693087  24.4260645  20.1410842  68.0112743  22.1511245
  20.9848094  67.9811001  21.7000723  19.8822629  67.0937061  22.2366428
  34.6500182  44.5014572   4.5352593  35.2633619  44.0608740   5.1234156
  33.8585591  43.9641237   4.5683050  85.7441219  12.6148544  84.4327911
  86.4702304  12.9823624  84.9367133  85.5353208  11.7934738  84.8777276
  72.5489950  65.6801653   6.7042762  73.2235909  65.1486301   7.1269172
  72.0323277  66.0321140   7.4291331  73.7819767  76.0200644  34.1539526
  74.1678476  75.8562660  35.0144768  74.5281982  76.2324190  33.5933352
   5.2906744  24.4654690  79.2678243   5.1797954  24.1023575  78.3891397
   5.7492773  23.7802540  79.7540301  95.4435968  94.7672456  82.3546320
  96.1042690  95.2452653  81.8533855  94.8064375  95.4348128  82.6088249
  72.1439838  31.1548376   6.2041378  72.5380945  31.7236614   6.8654579
  71.7107630  31.7561936   5.5983955  99.5098924  62.8708702  82.9804414
  98.8409185  62.5763076  83.5984540 100.2571249  63.1061369  83.5304624
  48.7600660  66.7619705  18.4960043  48.8997698  65.8188534  18.5811007
  47.8084564  66.8616533  18.4689224  17.6253378  45.1698637  13.5812128
  16.8685961  45.3951406  13.0400801  18.3785987  45.2971125  13.0044651
  83.4215069  66.6953659  25.0300670  83.0717373  67.1147823  24.2439485
  83.0196571  65.8266354  25.0370097  10.4670946   3.3653723  74.7976845
   9.5393363   3.5209595  74.9745768  10.6520120   3.8844143  74.0149742
  47.0742321  71.2291002  15.8138132  47.4080944  70.5238628  16.3682616
  47.5417805  72.0095110  16.1114419  60.4987049  88.9418691  85.3504032
  60.9296131  89.7958081  85.3869813  60.8334827  88.4717506  86.1140416
  44.0672684  50.8269548  29.8957372  44.1284752  51.2218380  29.0259361
  44.7661352  50.1730728  29.9116397  52.7662754  62.4777889  19.8325253
  53.5671282  62.2127390  19.3801773  52.8292084  63.4310532  19.8921990
  15.6360809  42.9912602  85.3337934  15.5224363  43.8218914  85.7957090
  16.2652675  43.1873737  84.6396059   5.8625406  32.3963499  11.1141825
   6.4328450  31.9345975  11.7288113   5.5856085  31.7232800  10.4924786
  56.0345030  53.8943100  10.6712162  56.7877817  53.9434385  10.0826633
  56.4166164  53.8816118  11.5487468  66.7811728  31.7804527  36.8798661
  67.5600910  31.2247968  36.8522191  66.0606241  31.1743999  37.0523190
  67.4113083  59.9742413  11.2147164  67.3683310  60.9296846  11.2536371
  68.2539845  59.7890806  10.8001804  31.5683548  26.4637838  57.0739382
  32.1571723  25.8190809  57.4662226  31.2511198  26.9803845  57.8146928
  37.8623629  28.6500406  47.3285007  36.9608474  28.9699554  47.3624516
  38.2626176  29.1377234  46.6086435  70.8391714  71.9564676  23.0804658
  70.5980206  72.6459360  23.6991048  71.7624092  71.7824459  23.2637095
  90.9673691  72.5067329  17.9320598  91.3001823  72.1084785  17.1277833
  90.0185871  72.5375509  17.8092360  42.9343224  70.6585646  19.7106671
  43.3273315  71.4224243  20.1329112  43.6704826  70.2091265  19.2955685
  30.7465219  34.6753240  12.8317618  31.4903855  34.9999738  12.3243117
  30.7793760  33.7248230  12.7236092  62.7614832  99.4116688  37.3796630
  63.0523014  99.9691200  36.6579294  62.4434376 100.0245762  38.0425549
  24.2549443  80.2525425  28.2918978  24.0854406  80.0467110  29.2112112
  24.0407753  79.4462872  27.8225136   1.5282910  28.9655161  19.1869390
   1.1234444  29.7753406  18.8762701   0.7942493  28.3647799  19.3155169
  85.8759125   0.0778811  29.7382116  84.9653538  -0.1107938  29.9651885
  85.8270939   0.8491939  29.1734743  39.6866107  61.4260721  20.8821368
  39.8317075  60.7561016  20.2140665  40.2537394  62.1515751  20.6209111
  33.9847366  33.7678944  86.4548044  33.4192506  33.1996857  86.9778684
  34.3912403  34.3542324  87.0929201  93.8297939  54.5408344  21.3804364
  94.0643883  53.9965963  20.6287694  93.9145565  53.9572620  22.1344233
  15.6942821  46.1536455  26.9051290  16.3733697  45.5515766  26.6008520
  16.1314487  46.6955709  27.5619674  33.5170865  77.0319176  35.2745891
  34.4013548  77.1394062  34.9242353  32.9463959  77.0985174  34.5090103
  19.9750844  24.0261875  85.4120502  20.1463501  24.3720423  86.2879976
  20.7854501  23.5786854  85.1685670  51.6283226  31.1590958  13.9964437
  51.3375998  31.4785028  13.1422234  51.4991713  31.9016886  14.5864511
  27.6135206  60.5559778  26.7294383  27.0856500  60.9362745  27.4315476
  27.1005654  60.7069016  25.9355021  19.7830582  52.7790356  12.9831636
  19.6922255  52.9585552  12.0473468  19.9581373  51.8391943  13.0308640
  68.4490728  66.7693853  24.4133949  68.5361004  67.4313593  23.7275004
  68.1061459  67.2492743  25.1672816  62.5370359  47.0959234  27.5126028
  61.8036175  46.4810848  27.5301909  62.5565052  47.4198151  26.6120768
  59.5942831 101.2982655   6.1012703  59.6436930 102.0070648   5.4598731
  58.6701965 101.2628174   6.3483453  53.5201168  56.6810274  22.7459812
  53.9550734  57.4986267  22.9880023  52.6569462  56.9522905  22.4336028
  83.2014465  35.6174445  14.4959426  84.0806961  35.8551025  14.2015243
  82.8003883  35.1953602  13.7361908  54.9195623  76.9776964  23.6410761
  55.0602150  77.8462696  24.0179420  55.5998325  76.8934727  22.9729652
  82.5301981  93.7002032  79.2068839  82.0069980  94.3340915  78.7162941
  82.2152281  92.8471845  78.9079213  15.8105651  11.0855852  62.0907634
  16.4857284  10.6713091  62.6281255  15.6333963  11.9181477  62.5285834
  36.5067387  50.1617241   9.6612906  36.7458606  51.0878754   9.6972859
  35.5509210  50.1589680   9.7126764  58.3017302  35.3483987  23.8303328
  57.6923656  34.9054646  23.2398105  59.0131617  34.7203636  23.9555049
  38.6383724  66.0248947   0.0126409  38.4082961  66.9498825  -0.0750589
  39.0140224  65.9536791   0.8901642  39.0338540  73.8889027  24.2020178
  38.8246226  73.1419277  24.7628045  38.3045030  74.4956112  24.3292189
  51.7402363  37.5174141  22.2416377  51.4694786  36.6064882  22.3562455
  51.7345953  37.6515317  21.2938976  30.2262092  77.0599508  52.3944855
  29.3574882  77.4583101  52.4480295  30.0859809  76.2429762  51.9158220
   4.9978296  54.2820107  67.8390950   5.2999393  53.4195648  68.1239480
   5.7139961  54.8743568  68.0681509   3.7865263  76.2624454   8.3758593
   3.7994906  76.9228649   7.6831055   2.8737670  75.9772396   8.4178263
  87.4162777   3.4577547  77.5415951  87.8441974   3.0425249  76.7927950
  86.4842041   3.4410845  77.3243552 106.7223596  78.1476443  87.6907652
 106.6879892  77.8959673  88.6136462 105.8048296  78.2254809  87.4293995
  64.3079615   2.5950268  21.7464566  63.4242249   2.8960985  21.9576383
  64.7252464   3.3497423  21.3311148  12.7363253  34.9624872  59.5529699
  13.6746275  35.0059152  59.7371864  12.5686109  34.0358949  59.3811274
 105.5699543  43.1978178  17.4745822 104.8608429  43.0852890  18.1076145
 105.7593499  44.1359425  17.4913383  11.8677068  40.9052181  29.5693684
  11.8406129  41.7996693  29.9091458  10.9512937  40.6296968  29.5468521
  85.9415913  58.3904076   5.0405055  86.7458820  58.4766054   4.5287281
  85.2787685  58.1264925   4.4023502  34.0551662  65.5206299  34.1053200
  33.9549422  66.0623646  33.3225608  34.0281343  64.6211243  33.7791395
  31.5429258  72.0087147  30.6799102  31.9123101  71.1355209  30.5483079
  30.6427860  71.8478298  30.9629226  17.3326898  68.1690025  38.9927340
  16.5563726  68.0450916  39.5388198  17.1504533  67.6651859  38.1995201
  12.4838726  14.5822226  83.4652513  12.1563808  13.8832699  82.8991735
  12.8230754  14.1270910  84.2359808  54.7277975  64.7171307  15.5849695
  54.4112730  63.8137913  15.5800045  55.4848099  64.7088909  14.9992287
   0.3974167   9.4558512  85.6203836   1.2512938   9.1448103  85.9210120
   0.4501287  10.4087626  85.6939819  21.1999313   6.0858189  71.0420984
  21.6427890   5.4188286  70.5174678  20.3100578   6.1151205  70.6906718
  26.1648464  61.5450096  14.5432425  26.0640073  61.7747021  15.4669881
  25.4775596  60.8989096  14.3806863  60.3928518  76.5512419  22.5853276
  60.4236984  77.4433088  22.9310107  60.5316591  76.6542673  21.6438651
   6.2250797  34.1165958  86.3735985   5.8885137  34.0704189  85.4787105
   6.6590730  34.9683415  86.4226112 107.6151657  91.5050309  58.3806675
 107.8430796  91.2575429  57.4845451 106.7551184  91.1110013  58.5265892
  42.7045719  29.9618851  78.8270431  42.4814884  30.4937206  79.5909905
  41.8611232  29.6555267  78.4939247  28.2020593  36.9046068  29.5468402
  27.5779200  37.0624852  28.8384938  28.9873123  36.5798640  29.1062117
  26.5345764  86.7753124  23.5443163  25.8314228  87.3644733  23.2710123
  26.9556499  86.5095043  22.7268338  25.1304761   1.9416891  81.1200958
  25.1548282   2.1591888  82.0519399  25.6760541   2.6091181  80.7040256
  29.9956489  32.9062986   3.5223031  29.8162484  32.6986361   4.4393224
  30.9321499  33.1030226   3.5000557  37.3726344  71.1401606  15.3675914
  38.1703496  71.0793114  15.8931196  37.2941184  70.2818823  14.9511445
  20.6990910  80.3685093   9.5231760  21.2109804  79.5667315   9.6297395
  19.8141754  80.1256752   9.7955555   9.8945276  21.6651569  76.1241847
  10.3103391  20.8205782  75.9509307   9.4404880  21.5420662  76.9578069
  17.5231934  20.4129863  33.4591937  17.4779320  20.1156044  34.3678999
  16.8278134  21.0667062  33.3861995  90.9844931   1.8401854  25.3412032
  90.1310357   2.0349257  24.9540138  90.7983454   1.6898196  26.2680125
  59.3877125  64.3363857  13.9866769  59.8673487  63.5201645  13.8453782
  59.3124628  64.7239971  13.1147110  25.3265381  45.2735758  45.4678726
  25.3259492  45.9518814  44.7924995  25.8730483  45.6322527  46.1670923
  74.2218113  58.4129381  20.5862594  74.8208332  57.7078581  20.8317423
  73.3820248  57.9756594  20.4456115  71.5830994  68.7663651  17.0891929
  71.1308765  68.8275623  17.9306102  72.0739412  67.9461813  17.1401787
 101.9037732  27.9623836   1.6307575 102.0441254  27.9039805   0.6857055
 101.5038784  27.1250575   1.8657058  78.2331522   3.9193385  38.4254432
  78.4941729   3.8988631  39.3461394  77.9900750   3.0154174  38.2252479
  53.7267542  77.6795721   5.1477861  53.2891846  78.5100746   4.9606335
  53.4862137  77.4807024   6.0526741  41.4631510  77.5240231  27.6216674
  40.8576965  77.2790098  28.3213973  42.2549152  77.0171118  27.8016162
  75.5845245   2.3591750  25.1342034  75.6824215   2.4637549  24.1877818
  75.3402623   1.4409011  25.2497005 104.6272357   9.1828571  73.8916367
 104.4407948  10.0847565  73.6307758 104.3503817   9.1361080  74.8067325
  52.3465538 101.2172794  11.8865812  52.6412153 100.6783581  12.6207304
  52.5818968 100.7116318  11.1086583  61.6516590  63.5634327   2.7114701
  61.8372869  63.8720512   1.8246067  62.2728920  62.8487682   2.8513098
  28.8038898  94.8476696  12.3215151  27.8742194  94.6224785  12.3566341
  29.1992807  94.1516018  11.7967486  99.4860514   7.6149123   4.9536428
  98.6792954   7.1348041   5.1403821  99.1958388   8.5080569   4.7684515
  22.1881668  69.8211132  86.6269001  21.2606565  69.7490250  86.4016001
  22.1923820  70.2000938  87.5058701  30.1419306  80.2253437  36.8756628
  30.0115657  79.4649792  36.3090205  29.3419862  80.7408047  36.7726088
  57.3089695  74.4901896   9.6492887  57.5583267  74.0443325  10.4587722
  57.6974487  75.3616142   9.7263753  22.4727098  45.2834354  80.3642976
  22.3055212  46.2251698  80.4019719  22.6060955  45.1008736  79.4341832
  90.9087276  59.2931890  11.2975228  91.3737774  59.9993563  10.8488739
  90.4473305  59.7280025  12.0146537  62.6128531  66.2752581  10.5236065
  62.9741812  66.1747169   9.6429455  63.1037045  65.6498957  11.0567236
  36.5028501  51.6833591  27.1902776  36.8850327  50.8431816  26.9367743
  36.4244294  52.1684170  26.3688135  43.4869099  97.9573536  15.1698852
  42.5482082  98.1425667  15.1974976  43.8640070  98.7008381  14.6995139
  96.2344321  33.6577164  72.2576982  97.1484431  33.6580025  72.5419825
  96.2769945  33.4997879  71.3145762 103.5079749  16.0264145  69.2826301
 102.9333623  15.3537499  68.9171558 103.3206042  16.8089615  68.7642234
  77.8303806  36.7370258  87.8310597  77.6454917  35.8368813  87.5631118
  76.9739906  37.1644817  87.8416092  51.7722368  48.4382868  21.0108662
  51.5019226  47.5291300  21.1396861  52.6606035  48.3765841  20.6598258
  63.2532597  73.9785337   7.5252283  63.0581427  74.4069815   6.6918057
  64.1079855  73.5694408   7.3898983  55.8373451  92.7777386   5.9693277
  55.1134348  92.4230480   6.4854527  55.7113504  93.7261105   6.0001510
  12.0470659  12.5092493  81.5622818  12.0694915  11.7317329  81.0044330
  11.1374656  12.5682245  81.8544864  61.8813610  79.6655607   9.5719385
  61.6827774  78.8766766   9.0674990  61.0256290  79.9994564   9.8411304
  28.8435292  79.2368460  21.6586709  28.7133121  78.4194088  21.1779737
  28.1193686  79.2649364  22.2839975  35.9582353  75.0148010  29.9712253
  35.9100533  74.2506075  29.3968439  36.1489058  75.7451725  29.3826389
  82.8742464  51.1993443  81.7376560  83.0962809  50.5790840  82.4320709
  82.0607515  50.8599506  81.3644677  36.3686466  94.7663879  21.0888481
  37.0260692  94.1467285  20.7725453  35.6239510  94.6471596  20.4994035
  81.4634991  63.2138491  36.5130401  80.5293083  63.4160328  36.4616466
  81.8673134  64.0245008  36.8228960   0.1090781  10.9316860  77.5130731
   0.8515660  11.0426842  76.9192511   0.4475967  10.3817497  78.2196194
  38.6505055  76.8592596  30.4425406  39.3119264  77.1429014  31.0736537
  38.2798958  76.0639524  30.8251190 100.6002426  97.6934719  60.1485395
 101.2541580  97.6051426  60.8419561  99.9784946  98.3380890  60.4863596
 107.4025726  52.9075670  11.6808343 107.6916218  52.0930243  12.0921707
 107.7870655  53.5981274  12.2207606  61.3103294  89.8986435  31.2428570
  61.3961649  90.6370544  30.6398559  60.4834175  89.4837379  30.9972787
   7.5117914  52.8661667  87.7695274   7.2108737  52.2676788  87.0857931
   7.8460733  52.2929894  88.4594250  72.3743153  52.4776983  16.6656530
  72.2671127  52.3787355  15.7196367  72.9829264  53.2101345  16.7624092
   9.6340744  11.6491734  78.9934206   9.0882818  11.0012327  79.4389701
  10.4709569  11.2047993  78.8577980  11.8283446  64.0555525  11.3007307
  11.9261058  63.1036043  11.3225150  11.5454562  64.2468691  10.4065251
 104.0912725  35.7291484   2.6506579 104.9237682  36.1249542   2.9085755
 103.8044409  36.2444878   1.8967438 105.9202671  82.9621029  63.7459135
 106.8585491  83.1358719  63.6707401 105.8442688  82.0125389  63.6521626
  15.5342853  57.2760248  28.6420894  16.3128829  56.9991493  28.1590176
  14.8617291  57.3856163  27.9698634  61.1982679  94.5581627  19.9849188
  61.1290979  93.8845444  19.3083894  61.9869804  94.3254757  20.4748416
  61.5729046  88.5173798   8.9946836  61.8678427  87.6070404   9.0175319
  62.3027992  88.9958286   8.6015284  99.3806799   3.0056613  57.0189619
  98.9807614   2.1967452  57.3382521  99.0488966   3.6848872  57.6061630
  37.2011892  11.0840355  87.7090260  37.7420417  11.0027014  88.4945800
  36.3249008  10.8245169  87.9936341  59.2307901  85.3650284  45.5056858
  59.8905802  85.0185204  46.1063862  58.4934235  84.7598362  45.5848265
  63.6541986  74.5047808  15.2396715  62.7503490  74.6682692  15.5090404
  64.0211344  75.3762484  15.0908780  57.7478369  41.7373031  16.5510368
  56.8330487  41.9711440  16.7082381  57.8623804  40.9012549  17.0028448
  65.9132862  56.7932653  33.1210017  65.4881144  57.5475025  32.7128506
  66.2093639  57.1166515  33.9718771   4.2018024  15.8429759  21.0264158
   4.6339885  15.3257792  21.7060900   3.9191286  15.1980060  20.3780699
  46.2524843  78.0497837  29.5388913  45.7884216  78.8734341  29.3889737
  47.1765900  78.2975149  29.5686269  33.8552547  88.7642288   0.2011191
  33.8152122  88.1592178  -0.5395485  34.7889924  88.8414669   0.3970758
  31.5774298  60.8916807  50.4656792  32.0074487  60.6206417  51.2767601
  32.1995592  61.4910746  50.0534821  26.5759889  32.9719006  56.7366999
  25.7891552  32.6371609  57.1669072  27.2349206  32.9995094  57.4304408
  25.7382298  44.9976349  33.1522298  26.0082221  45.8968925  33.3384395
  26.3399839  44.4562292  33.6631131  36.3885538  17.5389753  78.6664110
  35.6454507  18.1036364  78.4538352  36.8761674  17.4657999  77.8459757
  66.5307331  61.8310785  17.3489845  67.3503113  61.3517141  17.2276199
  66.4068317  61.8572903  18.2977700   4.3056051  46.8450485  74.3542248
   5.2432148  46.9823204  74.4894176   3.9044682  47.0950924  75.1865703
  45.6503487  84.1974258   2.2484630  46.5577507  84.2059517   2.5530642
  45.6719637  83.6760712   1.4460012  43.5499763  81.0796356  12.8688872
  43.4239292  80.7503796  13.7587929  42.9173851  81.7931747  12.7856660
  76.3564452  13.4196322  33.5504627  77.1184023  12.8543990  33.6776090
  76.7211922  14.2452662  33.2318592  52.6292276  73.5393095  31.1133409
  51.9678879  72.8890419  31.3500118  52.8450584  73.3407402  30.2021766
 101.0385497   4.7431217  87.2703949 100.9649642   5.6548487  87.5524674
 100.5495413   4.2486988  87.9281564  39.5888591  65.3781986  21.6539383
  39.5259237  64.5806170  22.1794200  40.0601864  65.1090050  20.8655119
  34.5843355   2.2768961  79.2559737  33.7847606   2.7938210  79.3544668
  34.4483463   1.5155779  79.8200047  56.1181974  72.1340656  23.1700397
  55.9810162  71.8587828  24.0764809  55.4181433  72.7650881  23.0028105
  69.4415426  73.7197638   3.0688831  70.3976297  73.6805058   3.0930921
  69.2314911  74.6126795   3.3423933  51.0692167  72.5627947  25.2122712
  50.4263449  72.8107357  25.8767056  50.6846952  71.8004036  24.7796774
  65.1138878  65.1633549  18.4683585  64.9653387  64.4496441  17.8480494
  64.6068621  64.9175835  19.2421496  52.3633671  58.2272911  25.3055549
  52.0502377  57.7427292  24.5417595  53.1746721  58.6409044  25.0107074
  38.9206163  71.9244610  56.9785255  39.2127649  72.8334938  56.9111913
  39.7004167  71.4067970  56.7781013  79.7745466  70.9821320   5.1627111
  78.8640451  70.7719660   4.9552310  79.7172880  71.6103125   5.8826709
  45.4605476  20.2198540  82.0332932  45.8613578  21.0468279  81.7655289
  45.8726589  20.0146090  82.8725010  29.8922706  57.2159576   5.3891546
  30.2171183  56.6974497   4.6530449  29.4298005  56.5851164   5.9408718
  14.0406839  52.4716126  78.4030676  14.3050376  52.6947723  79.2955613
  14.8531143  52.2066723  77.9717988  74.5370770  81.2621975  12.7683222
  75.2923727  81.5424919  13.2852316  73.9766359  82.0368862  12.7236211
  38.7240291  88.9882660   2.2654893  38.4058285  88.3037186   2.8540167
  39.2706299  89.5454502   2.8195694  46.6093540  90.9269714  49.4994402
  46.2974644  91.0671711  48.6054039  45.9702349  90.3276253  49.8848486
   0.7140080   4.0484177  84.3265727   1.5298263   4.5466982  84.2776686
   0.0541321   4.6936356  84.5805305  41.8495703  78.9972305  19.5793986
  41.6638422  79.9001169  19.8373497  42.3882771  78.6508846  20.2907848
  51.8752026  97.2289842  87.0052049  51.2223983  96.7043870  87.4687545
  51.9443703  98.0337613  87.5187959  50.0935070  25.0933109  74.4889384
  50.0115100  25.9128367  74.0011996  51.0249988  25.0328671  74.7008258
  38.3751726  62.6754761  39.5151567  39.1147518  63.0064869  39.0055633
  37.6652551  62.5894880  38.8788772  37.9346490  48.4029722   1.2033756
  37.4877214  47.6497412   0.8172017  38.8606882  48.2569885   1.0100627
  69.4248867  56.3566351   3.3513910  69.4269180  57.2963238   3.1691501
  69.2801952  55.9475088   2.4982125  58.5127068  32.2257876  21.3543868
  58.4612751  33.0539298  20.8771348  58.0111361  32.3792338  22.1550822
  72.6171970  97.2722435  12.5672650  73.4313297  97.5771046  12.1666658
  72.0340490  98.0304623  12.5314379  20.9923212   8.0024420  75.2056402
  21.3712636   7.3995863  74.5659560  21.1868230   8.8731037  74.8587256
  94.8700905  64.4353867  65.6455803  94.5533276  63.8563776  64.9522972
  94.8360348  65.3110456  65.2605009  29.8077607  80.7486725  24.4989228
  29.6584320  81.4638329  25.1173711  29.3933821  79.9885130  24.9071932
  10.3995363  55.7021938  74.6898168  10.6544725  55.7770382  75.6094020
   9.6249525  55.1399361  74.7010118  43.3176136  80.5496788   6.9136548
  43.1511497  80.0842857   6.0939384  42.5301695  80.4015827   7.4373263
  60.1477814  99.0572643  24.3009830  60.8879232  98.7718391  24.8366594
  59.3778753  98.7113953  24.7524858  12.9651205   1.6749893  83.3964765
  12.9773180   2.4931274  83.8931960  13.7265007   1.1900841  83.7149068
  76.1960983  48.7126541  13.8310564  76.6727018  48.8213587  13.0080950
  76.4179564  47.8278971  14.1212511   1.1308941  90.1757336  12.3050737
   1.2000447  89.3426609  12.7713788   1.8529561  90.7025719  12.6475620
  58.6085892 101.7750645  26.4120507  58.5601568 102.3339844  27.1876168
  58.8263845 100.9082508  26.7547226  42.2626305  62.0518780  27.2626925
  41.7056417  62.1637726  28.0330658  43.1389809  61.9076014  27.6196623
  39.0884352  99.8690701   7.7111441  38.6884427 100.4914188   8.3185357
  40.0293159 100.0241184   7.7944320  55.0092316  87.9795456   2.0694065
  54.0780830  87.7754688   1.9825311  55.0380659  88.9317608   2.1625635
  51.7162991  82.3128033   3.1354934  52.0196247  83.0078602   2.5514257
  50.7665062  82.4265194   3.1700736  63.1289482  96.7721653   8.2466930
  63.8502598  96.6187382   7.6364434  63.1476259  97.7156162   8.4072566
  43.9852428  51.7058992  27.4794197  43.8650894  50.9995651  26.8446827
  44.4699764  52.3782492  27.0006609   5.5487911  36.8126999  84.5042911
   6.4969627  36.6904293  84.5517245   5.3979293  37.6712738  84.8996821
  68.7428331  90.7100773  27.2289157  68.3403969  91.0804558  26.4433599
  69.6449614  91.0294724  27.2091913  30.2070212  76.3395405   2.6521268
  29.8003912  75.5762243   3.0622849  30.1086712  77.0392513   3.2978526
 105.4554947  17.2513144  29.2040777 105.5360564  16.4932006  28.6252809
 104.7654828  17.7831595  28.8075209  83.6870193  60.4899168  14.0531409
  83.6449337  59.5414066  13.9315283  84.4824409  60.6304741  14.5667446
  10.3842489   9.5714365  74.5936459  10.5047122  10.4410349  74.9751144
  11.1893980   9.1012608  74.8102146  59.1279364  73.6838722   6.5819252
  59.9250698  73.9628792   6.1314076  59.2728519  73.9253473   7.4967599
  61.9702768  34.5160699  26.4149451  61.7176056  33.9618063  25.6765819
  61.2169552  34.4873571  27.0047879  83.1273135  17.4675219  16.6217399
  82.5269564  17.9801314  17.1630609  83.0327233  16.5706771  16.9426036
  72.6131916  88.2381630  25.8867097  72.1764374  87.9170322  26.6756010
  71.8983555  88.4469032  25.2853155  92.2799452   4.8144763  12.8656244
  91.4334877   4.6187442  12.4638462  92.0958575   4.8555701  13.8040555
  86.1769485  92.4940007  70.3245872  86.1533213  92.2967666  71.2609488
  86.0179424  91.6518252  69.8983401  11.9455806   4.2439979  29.1831589
  11.4137737   4.8277419  29.7241378  11.7988960   4.5477813  28.2873726
  78.7134981  96.6811180  16.8045318  78.2817364  96.4942455  17.6381350
  77.9979706  96.9026470  16.2085640  68.2764912  75.5037546  30.6873250
  67.6816988  76.1307669  31.0987973  68.7611961  75.1187706  31.4174485
  39.5908928  82.9434204  25.1309943  38.6924815  82.8228188  25.4384708
  39.8464918  82.0842743  24.7951984  43.7127686  83.0150032   9.8238140
  43.0863333  83.5960007   9.3922442  43.2343769  82.1948814   9.9453604
  65.7941294  64.6429157  25.2018428  65.8485556  64.7752857  24.2554045
  64.8621511  64.5052099  25.3712249   0.9708587  18.7985366  53.8481951
   0.0285045  18.8556140  53.6902618   1.0872451  17.9650157  54.3041849
  32.4138212  79.3404484  26.4666247  31.5728879  79.5267296  26.8841887
  32.5434947  80.0654793  25.8552814  30.4175997  68.6934423  11.3350880
  30.5523396  67.7627754  11.1563718  31.1163568  68.9233351  11.9475579
   2.8447476  91.6952515  36.6817069   2.7110848  91.0592937  37.3845029
   3.0350351  92.5166035  37.1349263  41.6445160  56.7060614  20.0315523
  41.8505669  55.8678055  20.4451942  42.0780087  56.6654682  19.1791034
  35.6636024  91.6072750  16.5315247  36.0834599  91.2853527  15.7338321
  35.4545927  90.8161640  17.0281947   4.0887300   3.9974540  20.5399370
   3.9188139   3.6090320  21.3981271   3.5083191   4.7576659  20.5019474
  36.1838818  83.8397980  28.4736133  35.3795433  83.3816051  28.7171912
  36.7495775  83.7551117  29.2411089  34.6840000  38.3790135  41.9980383
  34.1639352  37.5902486  41.8443680  35.5847692  38.1112218  41.8160105
  89.7428187  20.5699199   7.1864486  90.0876387  20.4300063   8.0683529
  89.3476161  19.7313636   6.9479740  33.1972480  55.7841444  15.6685615
  32.4880528  55.2330112  15.9995067  33.2944846  56.4710283  16.3280833
  53.6408520  85.4561615   5.6631052  52.7762365  85.3426552   5.2684015
  53.4620237  85.8134270   6.5329391  33.1282655  36.0840641  76.4665740
  33.4601537  36.5326534  75.6888514  33.8647501  36.0880886  77.0779699
  42.2166634  59.2386675  28.6623526  43.1361055  59.4191742  28.4667134
  41.7861176  59.2350674  27.8074574  76.0835791  70.4854155  41.4085388
  76.7621326  71.0321665  41.8045902  76.0747480  69.6906662  41.9419527
  90.5597552  38.6010109  82.3907113  91.1804946  38.7206112  83.1094664
  90.4530295  39.4763027  82.0182657  57.5542355  90.0885487  18.4886372
  57.2545433  89.5972347  19.2535067  58.1285763  90.7646179  18.8482130
  73.3896542  83.8403225  13.0150163  73.2660580  84.3300343  13.8281190
  72.6818180  84.1403484  12.4447644  78.7032461  72.2487068  22.4278498
  77.7714252  72.0969629  22.5857043  78.9189911  71.6721773  21.6948462
  62.7467203  50.3705692  33.6317348  63.3628654  49.7495413  34.0202188
  61.8871498  50.0739574  33.9307213 100.9484728   4.5445674  35.2466059
 100.1983460   4.6990912  35.8207631 101.6593750   4.3041556  35.8407927
  37.9155946  68.5590935   2.2249703  37.5227332  68.6399555   3.0940807
  38.6158252  67.9162502   2.3375173   7.4906981  80.1292229  20.5456185
   8.0558789  80.4521942  21.2474012   7.1974480  79.2705011  20.8502960
  76.7865610  94.7652245  15.2007675  77.6090384  94.6843433  15.6836987
  76.1512661  94.2793083  15.7266164  38.0643736 100.7213395  48.8736838
  38.1906798 101.0422748  47.9807776  37.1239299 100.8090537  49.0289396
 107.1772480  76.7954779   8.1576437 106.4754105  76.5147018   8.7448579
 106.9716167  77.7087975   7.9581589  51.2109089  87.9215527   6.0069168
  52.1342325  87.8869820   6.2569493  51.0783148  87.1392918   5.4714632
  68.2826662  75.7438135  18.8787150  69.0981197  76.2225533  19.0272796
  67.9980707  75.4783106  19.7532129  55.5605443  10.3524058   4.8907450
  55.5559119   9.5966857   5.4781961  56.3645419  10.2543300   4.3806463
  61.5725517  75.0871658  48.0612659  61.7558098  75.9421158  48.4507656
  62.2633171  74.5170736  48.3990002  29.2422056  64.8796463  16.4862084
  29.7961617  64.2781925  16.9838190  29.8205161  65.6091309  16.2634122
  92.3222741  22.2257750  26.6762972  92.1219262  21.3093703  26.4857841
  91.9352969  22.3814338  27.5378370  15.1183740  22.2470795  87.5167188
  14.6475545  22.1878801  86.6854202  15.9243385  22.7169643  87.3025717
  33.0016041  53.5606718  32.6172209  32.2595072  53.5992002  32.0138645
  33.7496805  53.8515425  32.0956755  88.5264683 101.4031506  52.6397657
  88.8757038 101.8392467  51.8625307  88.1978130 100.5643082  52.3164034
  65.7745457  96.7547131  36.9334078  65.0968075  96.7444134  36.2575388
  66.3177204  95.9907627  36.7395854  89.9661827  76.1981869  11.7578089
  89.9162292  76.1179161  12.7103281  90.2959347  75.3493500  11.4628828
  52.5113916  94.5147419  31.6272497  53.1876469  94.6263981  32.2954130
  51.8151712  94.0293789  32.0698905  62.1597958  54.5082521  32.6531649
  62.2636271  55.4024029  32.9786515  62.9944038  54.0831184  32.8504515
  43.5393524  67.7271748  20.8192039  42.8084803  67.7372074  20.2011776
  43.1982899  68.1623650  21.6005611  71.0018682  86.7912006  19.1591728
  71.8931580  86.7567635  19.5065284  71.0685015  87.3478889  18.3833599
  82.3953533  61.8448448  31.1508179  82.5710964  60.9190655  31.3189840
  82.4811554  62.2642851  32.0069361  11.6799919  33.8708530  81.9664162
  11.9392864  34.7773682  81.8013793  12.1365444  33.6343514  82.7737951
 105.8956750  44.1889034  86.2919825 105.1628908  44.1636501  86.9073026
 105.4829844  44.2481266  85.4303503  40.9550905  85.2969360  44.4097519
  41.0794163  85.3530598  45.3571844  41.0835981  86.1927128  44.0978384
  61.1056948  70.4312944  10.6946552  61.1399031  71.3651371  10.4872930
  61.9743776  70.1025772  10.4632199   4.9954216  62.9627358  77.5324744
   4.6610300  63.8374840  77.7305740   4.7338096  62.8061234  76.6251343
   2.2618659  63.4387445  25.0300694   2.1760925  64.0679932  25.7462549
   3.2044681  63.3803844  24.8741174  32.0053267  71.5658665   2.2105183
  31.6379261  70.9052563   1.6232845  32.2797585  72.2760153   1.6303426
  59.1541052  89.8766232  52.0739746  58.8506842  90.5683899  52.6618767
  59.6486330  89.2824173  52.6384163  71.9851589  63.3553410   8.0921477
  72.1940613  63.9400673   8.8206303  71.2204123  63.7539387   7.6768011
  40.8720350  68.9836550  13.1614137  41.0555458  68.0767250  13.4064257
  41.5285349  69.4966030  13.6327112  71.8159723  71.8172407  58.6436749
  70.8779955  71.6264009  58.6470747  72.0629787  71.8210316  59.5684481
  50.9008217  80.1356792   5.6979167  51.6553116  80.7138157   5.5850822
  50.5494261  80.3655910   6.5580851  91.1929989  61.3915300  43.9150143
  90.6311035  62.1547318  43.7807369  91.0397720  60.8429766  43.1456995
  47.1880714  35.9906422  84.1344377  47.7261535  36.7668282  83.9787632
  46.5532390  36.2678562  84.7950217  41.7425680  73.4100771  24.1888070
  41.9420815  72.4766111  24.2599678  40.7937717  73.4616995  24.3043494
  54.1528511  79.6771908  19.0286994  54.4879150  80.4794312  18.6282349
  53.3655596  79.9541998  19.4973922  64.7486830  26.1389875  17.4261308
  65.6411552  25.8783531  17.6537275  64.4840288  25.5189753  16.7465901
  38.7310863  73.5419178   1.1569054  38.0446625  73.0431032   1.5998933
  39.5040274  73.4292173   1.7101611  48.5510683  98.4625721   8.1168020
  48.7154675  99.3498802   7.7975810  48.0379009  98.0494499   7.4223846
  88.2787037  75.3370857   7.4124521  87.6388645  75.1067638   8.0860931
  88.8919449  75.9237432   7.8551710  42.1823446  42.8887497  81.4517837
  41.7192403  42.1892677  81.9127404  41.9063226  43.6911522  81.8947303
  83.8480385  23.1044906  23.5807848  83.3151062  23.4142631  24.3130827
  83.3449610  22.3805850  23.2078218  17.9864955  47.4048710   5.5878681
  18.2101738  46.9358873   4.7839686  17.2216582  47.9305696   5.3535604
  47.6681995  55.5069065  15.4042578  46.8457985  55.0171661  15.4108226
  47.9714823  55.4779053  16.3116765  42.2343206  91.6569042  12.8391552
  42.3910046  91.0956764  12.0797431  43.0455017  92.1548557  12.9404068
  86.1310577  59.5147753  22.0231819  86.8161011  60.1035118  21.7064381
  85.7953739  59.9403954  22.8121042 108.1718191  29.5110451  85.3359341
 108.0223592  30.2764164  85.8910078 107.4398526  28.9262758  85.5321371
  37.8128862  94.0007019  27.7056861  37.6770020  93.3275986  27.0388365
  36.9855213  94.0324974  28.1859851  54.4512168  32.9399048  84.0147310
  55.0839130  32.3971211  84.4851750  54.8645202  33.1104981  83.1683790
  25.8417980   2.9267059  68.4781092  24.9784318   2.9645477  68.0665368
  25.7653276   3.4910618  69.2474502  57.4061060  80.4852200  64.9172831
  57.9375076  81.2774086  64.9965191  56.9595718  80.4109955  65.7606888
  19.5104686  28.8967072  82.9093790  20.2846805  29.2938076  83.3083066
  19.8026172  28.6233507  82.0398062  55.1805115  72.8423214   9.1442925
  55.9359884  73.4202576   9.0371490  55.2541018  72.5156832  10.0410223
  34.2324352  99.3932629  13.7441587  34.7530818  99.1341305  12.9838872
  33.9896870  98.5666084  14.1612267  41.8773643  28.6987673  63.8936275
  42.6095954  29.1586910  63.4830898  41.1666814  28.7621866  63.2555502
 107.7565487   0.5055564   1.3234884 107.7862366   0.6119769   0.3726863
 107.6895865  -0.4399640   1.4566900  47.8846160  43.4034859  78.9392090
  48.1947795  42.5378357  79.2050624  46.9488613  43.2833706  78.7774461
   5.9113127  97.7076530  39.8130989   6.8596363  97.6104069  39.7267437
   5.6108356  97.9197407  38.9293766  69.3208631   1.6226809  21.6793346
  68.3753642   1.4737933  21.6695929  69.4485839   2.3880618  21.1188793
  95.7641411  84.2436218   9.7780579  95.4723167  83.3577061   9.5630687
  96.1647511  84.1604424  10.6434059 102.4715338  84.0075207  48.5984898
 102.0869867  84.1210747  49.4676638 102.4561189  84.8837185  48.2134295
 101.9553908   3.1151813  20.7760143 101.1443289   3.2289260  20.2805591
 102.5423869   2.6589530  20.1730871  68.3964348  88.3101559   1.0729986
  68.9489317  88.8797855   0.5377457  67.5495195  88.3099842   0.6269389
  57.3358440  67.9367208  51.6473579  57.8247643  67.2655678  51.1711788
  58.0033827  68.4171867  52.1370268  17.4047685  79.5075798  15.0185120
  16.7896581  78.8279390  14.7429001  17.9732573  79.6381664  14.2595661
  52.1396494  66.1149549  16.3676369  52.7102041  66.2151051  15.6056225
  52.7408934  66.0023546  17.1038818  46.5489292  74.8425102  26.2088561
  45.7521963  74.7306395  25.6902671  46.5423918  75.7656479  26.4618492
  64.5981646  87.5062084  19.2367923  64.0396929  86.9501686  19.7800803
  65.4508209  87.0713234  19.2462158  80.8313751 101.0900879  38.3889651
  81.1441040 100.2746868  38.7808228  81.6209984 101.6187000  38.2737041
  46.4603138  71.2817097  26.7324662  45.8338976  71.9452763  26.4434743
  46.0191965  70.8342791  27.4545836  21.0167575  73.6627769  18.9968181
  21.1119986  74.3200874  18.3075404  21.8221688  73.7344599  19.5090771
  49.6353865  97.0020294  47.3757315  49.1693211  97.6885319  46.8985128
  49.3130541  97.0737934  48.2741642  57.7765075  22.9040419  83.2879299
  56.9101039  22.9596077  83.6910215  57.7802364  22.0559679  82.8440886
  50.0204611  70.3754902  20.9273624  50.0314999  70.4807901  21.8786883
  49.0910292  70.3443813  20.7005978  54.4460670  15.5189787  59.6351689
  54.3050663  14.7688948  59.0574807  54.0801517  15.2455650  60.4763502
  88.5556944  17.7376788   8.1180036  87.9777678  18.5007041   8.1120902
  88.9542969  17.7323859   7.2477645  12.8111982  94.5207691  55.4842901
  13.2628047  95.3408623  55.6836176  12.1491277  94.4389534  56.1707306
  78.1023407  72.0815086  30.2925801  77.7231598  71.2133741  30.4296875
  77.8853846  72.2971058  29.3855643  48.7957478  78.5853243  32.7375579
  48.5114670  77.8265619  33.2471585  49.4798422  78.2442379  32.1614456
  83.0984020  76.7832279  24.0195203  83.3118057  76.8888330  23.0924082
  83.8812065  76.3866329  24.4018221  29.3459368  81.7449093  30.7153940
  30.0357580  82.3061466  30.3612876  28.5318136  82.1410942  30.4047990
  93.9623260  97.5726509  60.1343250  94.3263149  97.8415298  59.2908573
  93.0611515  97.8949928  60.1200008  40.0213615  44.1454254  67.0807570
  39.4600622  44.6169506  66.4652580  40.7654945  43.8559280  66.5528458
  80.0362396  56.6249847  40.0163031  79.8823404  57.2867918  40.6905079
  80.0126553  57.1121407  39.1926789  93.8351154  64.7511911   8.7962884
  93.0278206  64.8677492   8.2953578  93.6045074  65.0151157   9.6870148
  91.2226868  99.7828674   9.4370282  91.6667652  99.2140675   8.8081491
  90.4555607  99.2814732   9.7133607  62.9685259  92.9500771  22.0643425
  63.5971737  93.6537552  21.9035029  63.3969069  92.1640778  21.7253160
   3.0511467  27.5251906  58.8245726   3.0280582  26.5690272  58.7866545
   3.6228172  27.7798789  58.1003094  56.6786289  84.5077419  16.5175736
  56.2846422  85.1778126  15.9589994  56.8578005  84.9587250  17.3426449
  42.1017265  54.0772772  11.4306092  42.2061872  54.1534090  12.3790419
  42.6741600  53.3507681  11.1841536  78.0312308   7.3736232  19.2162693
  77.7525481   8.2479709  19.4884515  78.8697012   7.5154536  18.7768543
   4.6623651  14.8903888   8.3692098   4.0213768  14.8440497   7.6598293
   4.3913929  14.2067092   8.9819014  41.8217468 100.7115269  17.3777294
  41.6875982  99.9652290  16.7935395  41.3991404 101.4447689  16.9305182
   0.4980413   9.3301146  35.3128028   0.3998939   8.9307063  34.4484687
   0.6549589   8.5917800  35.9014153  61.9707775  74.9866247  19.6401525
  62.7648067  74.6984148  20.0903583  61.2608194  74.5281124  20.0895452
  64.9920225  93.5661983  48.1794214  65.1195145  93.6018658  47.2314215
  64.5810843  92.7156258  48.3339930  47.5993776  84.6178341   5.2033722
  46.9550514  84.9890614   5.8060873  47.8616714  85.3536510   4.6501938
 100.6857213   6.0027163  54.7886372 101.2477168   5.8322757  54.0327692
 101.1796721   6.6288131  55.3180218  36.8090439  83.6136913  31.4264297
  35.9983063  84.0608788  31.1836052  37.4278140  84.3211937  31.6075444
  84.3574619  70.2156067  67.8901482  84.6378517  69.3049097  67.9809475
  85.0171280  70.6138325  67.3222733  47.3382807  70.6297159  23.3781886
  47.5427771  69.9345684  22.7527428  47.0376205  70.1672363  24.1604590
  66.8095875  33.4753489  17.8573394  66.8344641  34.3543530  17.4792349
  66.0543871  33.4888220  18.4453189  29.0269319  50.1196228  79.0515583
  29.8472635  50.5885635  78.8986307  28.3512632  50.6965481  78.6953896
  72.3140701   4.9446624   2.2912234  71.8274458   5.5305427   1.7114197
  73.0518540   4.6421283   1.7617156   3.2909171  45.8000122  85.2920007
   3.8203827  45.0292812  85.4965955   2.4115244  45.4533516  85.1412597
 105.5067023   1.5885203  26.2272477 105.5067786   2.0602076  25.3943348
 104.6811350   1.8369716  26.6431212  65.1598740  71.2125874  36.0331345
  64.9614096  72.0952129  35.7203817  64.6324348  70.6377220  35.4785466
  31.4382124  96.2856674   3.1671068  31.8185115  95.4088020   3.1149885
  30.5262065  96.1673641   2.9016268  86.7333468   3.5215609  20.4766035
  86.2357625   2.7214377  20.3079057  87.1295603   3.3803981  21.3364410
  32.7260868  30.3542744  68.5244220  31.8894998  30.4518162  68.9792174
  32.4910776  30.3096901  67.5975913  20.9065199  74.9671459   3.7088981
  21.5416932  75.4676437   3.1967559  21.4217424  74.5787048   4.4159278
  81.4787094  36.4754711  82.7967345  80.5812255  36.3469158  83.1036889
  81.5110485  36.0218845  81.9544482  91.9484425  73.0904245  27.9831147
  92.8469753  73.1560135  28.3064771  91.5903187  73.9715862  28.0905318
  10.6614868   1.6028922  10.8862174   9.8770038   2.1512835  10.8760762
  10.9181396   1.5349811   9.9665731  87.6353073  74.0230322  10.2724588
  87.1163750  74.0378904  11.0766506  88.4522724  74.4635582  10.5064094
  75.7631063  62.8342199   2.9348889  76.3372612  63.0381727   3.6731178
  75.4353714  63.6852598   2.6441085  78.5124111  66.9688129  57.0078897
  79.4105959  66.7507601  56.7589998  77.9923439  66.2249041  56.7039776
  49.6769619  81.8020439  40.4631519  49.4474316  81.0482311  39.9197316
  50.0420618  81.4197445  41.2611389 100.2531322  45.9731613  81.3079768
 100.5808194  46.5524994  80.6200647 100.9374746  45.9849106  81.9771301
  72.2967625  85.0691509  17.3978901  71.8020296  84.3804169  16.9539022
  71.6540432  85.5008984  17.9606879  92.1617985 100.3983307  20.2654719
  91.4472771 101.0339069  20.3071237  92.4844933 100.3414536  21.1648393
 105.3062518  16.2824379  75.8158213 104.9819382  16.9220244  75.1818031
 106.2240513  16.1526381  75.5770093  67.0883163  20.9866851   5.3771752
  66.1455186  21.1240428   5.4693568  67.4779376  21.5347522   6.0583919
  82.4255466  95.5387497  22.5370502  82.5395679  94.5884228  22.5264955
  82.8366375  95.8202362  23.3543611  42.4390316  73.3813858  11.7891932
  43.1766319  73.0956078  12.3281825  42.4605989  72.8023291  11.0273099
  18.2628910   0.3139251  20.8446765  17.5135891  -0.0485570  21.3173127
  17.8888218   0.6672996  20.0375676  17.4207556  70.3512859  26.4629340
  16.6428447  70.0670624  26.9428325  17.3448813  69.9245644  25.6094837
  22.1212888  99.3480873  31.3862371  21.7064214  99.0074062  32.1787333
  22.9487658  98.8708496  31.3249683  70.3014135  81.7789650   0.2972163
  70.6351852  80.8898640   0.4169468  69.5748901  81.6811943  -0.3182827
 101.7669734  18.0157988  49.2484665 101.3101729  18.3876079  50.0029945
 101.0687026  17.7834456  48.6363697   7.6587860  13.7679618  37.2376919
   8.1421367  13.2459586  37.8780937   7.9000417  14.6729415  37.4352765
  13.8738716  96.8688869  15.2350771  13.3083665  96.4412403  14.5919943
  14.5837379  96.2440014  15.3828871  15.3595821  51.6459690  72.0322245
  15.5481998  51.2887894  71.1644226  14.4203464  51.5043198  72.1505671
  45.0944948  71.2684107  56.1926365  44.4729328  70.8864927  55.5729342
  44.9279690  72.2100163  56.1493111  15.1247112  21.3019596  82.7248561
  15.3386919  21.9737087  82.0774007  15.9401123  20.8147036  82.8429001
 103.5779389   5.5460017   6.5670478 103.4600075   5.5236094   7.5166917
 102.6904257   5.4837554   6.2139487  18.9991534  87.4312782  64.8407364
  19.3621337  87.7308369  64.0072203  18.2851315  88.0417919  65.0242567
  97.6582345   6.0667079  24.9370861  97.0533904   5.4826110  24.4796753
  98.1242903   6.5244811  24.2374659  75.5448564   6.5609496  17.3796093
  76.3551100   6.9844573  17.0961356  75.6404694   5.6502002  17.1009839
  50.0390005  75.6842327  32.3072386  49.8822594  74.9447823  32.8945041
  50.8605051  76.0658550  32.6166272  80.6089687  97.7695370  29.1083431
  81.5059566  98.1035519  29.0990567  80.4666328  97.4905396  30.0128508
  57.7866737  35.6479107  74.5012766  58.2367889  35.6124054  73.6572593
  58.3952419  36.1096703  75.0780350  71.7154455  93.6359406  31.6884851
  70.8997107  94.1091824  31.8523216  72.3296595  94.3105125  31.3987803
  24.7434044  97.2419548  43.0441475  25.0627732  98.1225395  42.8471518
  24.6496582  97.2286892  43.9966536  80.8259392 100.3774548  25.6084323
  80.3602695  99.6034336  25.2917719  81.4800930 100.0316715  26.2156725
  93.0172738   8.2904761  17.5025320  92.3615511   8.5730308  18.1400442
  93.3996113   9.1046946  17.1752906  15.9967653  36.8857704  76.2607151
  15.8581249  37.1388660  77.1733767  15.7592098  35.9590088  76.2304371
  18.2047788  46.1500870  80.4176044  19.0666286  45.7337795  80.4292005
  18.2158176  46.7018543  79.6355146  58.9985466  60.2160025  29.7750950
  59.6196985  60.8970213  30.0332093  59.5479393  59.4932079  29.4718313
  66.6489267  84.3897343  54.7651052  66.7298174  85.2216530  55.2315807
  66.7119503  83.7240028  55.4499817  40.8401012  82.7710152  12.9469240
  40.1504230  82.1725368  13.2339883  41.1890268  83.1409645  13.7578607
  61.1511946  92.7117062  18.1217694  60.7553196  92.9604149  17.2865093
  62.0940018  92.7658367  17.9655182  52.2787714  94.4048595  25.9460855
  52.9927206  93.8761330  26.3023973  52.5848436  95.3079605  26.0294795
  65.6304256  59.4954430  74.6108669  65.7665721  59.0221630  73.7900692
  66.3841430  60.0817429  74.6771270  90.2749165  20.9389537  39.9721265
  90.8543786  21.4976542  40.4901075  90.1213559  21.4339583  39.1673803
  61.6767931  56.5619373   2.0600949  61.7513227  56.9310665   1.1800834
  60.7707739  56.2583399   2.1165384 101.4288004   7.9733031   7.4769664
 101.2569626   7.8475039   6.5437579 101.3441094   8.9172786   7.6109791
  60.5643702  82.5887203  22.8289080  60.0170660  81.9016552  23.2092190
  61.4217234  82.1778584  22.7176452  31.5306989  67.1156345  86.6001206
  32.0770923  67.7818237  87.0171025  31.8498174  67.0740162  85.6986433
   6.4896146  22.8709739   2.3007932   6.1425249  21.9857448   2.4109763
   7.3497717  22.7429145   1.9008370  65.8951807  80.2263737  39.2029881
  65.6504774  81.0742188  38.8321638  65.2810907  79.6065617  38.8093424
  83.7176895 101.9151688  26.3820720  83.4176159 101.1648273  26.8950629
  84.5386696 102.1772099  26.7986774  20.7735721  11.7032950  39.6317267
  20.8182518  11.7977946  38.6802530  21.2792103  12.4423831  39.9698281
  45.9465686  41.2202679  82.8554249  46.5709964  40.6609284  82.3934179
  45.1413814  40.7037388  82.8887504   6.1859429  81.1215210  50.2648735
   5.3797919  81.5380859  49.9601984   6.7020243  80.9883785  49.4697857
  35.9990358  69.9050522  27.3861527  35.2993441  70.1902437  26.7985058
  36.7858362  69.9082470  26.8410230  32.8329269  38.1935917  84.9277323
  32.7893106  39.1484200  84.8763656  33.7602178  37.9893337  84.8067429
  75.9936428  85.1094341  44.5458794  75.0723505  84.8519135  44.5121479
  76.4028502  84.4607162  45.1185465  79.5269497   2.7348845  35.9186339
  80.4540642   2.9173034  35.7656097  79.2985590   3.2740443  36.6758513
  80.0784779  50.1580334  15.1318967  80.7135677  49.7586918  14.5373964
  80.1301098  51.0950422  14.9432743  33.3014536  82.7918053  13.2365513
  32.8043032  82.8152466  14.0541840  33.4189510  81.8594837  13.0543303
 101.2508400  16.8220847  29.7434831 100.3459605  17.0609420  29.5425487
 101.5683373  16.3955253  28.9475727  39.8686886  69.8584843   4.4389310
  39.5293546  68.9800310   4.2674363  40.2993679  70.1124525   3.6226904
  82.8975256  10.2795356  58.6429977  83.8422545  10.4243987  58.5907555
  82.5624856  10.5768435  57.7970695  36.2972498  73.8288498  46.0800076
  35.7514358  74.4288063  46.5883064  36.2806058  73.0107689  46.5766954
 101.0502728   6.2842029  49.3775272 100.1956519   6.2675803  48.9467335
 101.5803393   6.8686336  48.8355827  45.3580523  61.4666033  14.2735398
  44.4431591  61.2040663  14.1721988  45.7900047  60.6939793  14.6378279
 102.3225649  37.2193854  39.9048352 102.9082688  36.5320723  40.2222872
 102.8281458  38.0268138  39.9979997  96.2797832  63.6488867  21.0172653
  95.7967281  63.4104252  20.2260447  95.6086826  63.9682007  21.6205001
  48.2741737  81.1541080   0.8406974  47.7285862  81.5984917   0.1917839
  48.3540916  81.7832470   1.5576521  27.4743700  72.2592306  18.2521522
  27.4672079  71.3671970  17.9050791  27.5595641  72.1471739  19.1989458
  34.9009800  91.2423992  28.9436913  34.6783304  90.5176449  28.3594108
  34.1280079  91.3492680  29.4980621  73.7134647  93.5618591   7.7689660
  72.7738905  93.6559868   7.6122129  73.8862038  92.6297569   7.6363730
  23.4817068  55.6453930  83.5323217  24.3239538  55.2617203  83.2880860
  22.9284040  55.5189835  82.7615380  64.9044132  96.7925549  46.7952394
  65.4928970  96.6772938  46.0491562  65.3909922  96.4406872  47.5406694
  72.1992930   1.2740272  39.4993687  72.3916849   0.3364032  39.5085716
  72.8258451   1.6409820  38.8756633  13.6160556   7.9995101  27.3516822
  14.1148273   7.9732268  28.1682396  14.2384712   8.3246272  26.7011976
  44.1954803 100.1278877   1.0998505  44.0832567 100.9559536   1.5667090
  43.3829069 100.0195217   0.6056713  20.5584407  19.6983492  26.2359571
  20.2711415  19.4717360  27.1204567  20.2748251  18.9608538  25.6956840
  79.1399574  86.4924710  60.2649396  79.8346662  86.7929261  59.6789902
  78.4609890  86.1573284  59.6793526  68.6644602  66.7320776  19.8701286
  68.4514809  65.8608770  19.5356321  67.8766823  67.0079088  20.3386950
  42.2967005  14.4346249  15.9084034  42.0565605  15.0663590  15.2305567
  43.0923414  14.0183902  15.5768299  13.6059749  38.5802913   7.8974611
  12.7095807  38.2519817   7.9676199  13.9874780  38.4214735   8.7608635
  38.8638902  47.0679140  15.2415454  37.9287338  47.2324991  15.3624785
  39.2833662  47.9013300  15.4553092  26.5652776  22.2832680  25.0796962
  27.2513914  21.9251347  25.6429172  26.7957592  23.2068491  24.9791455
  61.3694143  46.9517374  19.3580556  60.8634138  46.2406778  19.7512293
  61.1629868  47.7174425  19.8940754  80.4550075  85.4398769  82.2563725
  81.1753654  85.0514191  82.7527749  80.4984283  85.0155538  81.3994616
  44.1688776  17.1135962  34.7527957  43.5120678  17.1264207  34.0566158
  44.7584867  16.3987994  34.5126748   5.8294767  61.8225861  28.2878661
   5.5316186  60.9493685  28.5428262   5.8523542  62.3166180  29.1074038
  52.2359896  38.5791302  24.6928906  52.1188498  38.1720138  23.8345385
  51.8705177  39.4581485  24.5929408  49.6835613  64.3273067  22.3086810
  50.5552864  64.4012403  22.6970816  49.3520641  63.4859896  22.6225734
  71.4269304  83.0170792  77.2129339  70.5192828  82.7193707  77.2744018
  71.3808274  83.8208168  76.6951400  77.4763632  84.4722026  73.2655805
  77.0238018  83.6423009  73.1149691  77.4175310  84.9324744  72.4283713
   2.9934772  37.9318374  64.0393704   2.3180421  38.5133451  63.6902755
   3.7724240  38.4838336  64.1084760  84.0385294  98.6801665  79.8943072
  83.6280918  97.8400558  80.0992161  83.5785007  98.9872640  79.1130924
  44.5665383  99.4532149  65.3124445  44.4592738  98.5032170  65.3596800
  43.7442958  99.7687381  64.9374860  85.2345085  98.3556121  82.2552979
  84.7519541  98.6296743  81.4753848  84.6652698  98.5965913  82.9861384
  39.2053491  80.5822986  61.8442481  38.6023858  80.9842723  61.2188810
  38.6687097  80.4109591  62.6181286  41.2698460  51.2332249  13.1803656
  41.0390902  51.7204714  13.9712977  40.4529715  50.8133268  12.9108560
  60.6950140  72.6320076  16.6059947  61.4132547  72.3212528  17.1571684
  60.7351875  73.5858345  16.6754663  46.5658569  32.3679733  13.9616966
  46.6539001  33.2162523  13.5270667  46.4617968  32.5833821  14.8885202
  32.9607717 101.4591117   1.6836481  32.7336351 100.8946732   2.4225998
  32.3303072 102.1779406   1.7286721  53.1126022  37.5932479   8.9038169
  53.2335901  38.2373834   9.6014440  54.0013981  37.3368621   8.6577713
  73.8846064  16.4583468  19.2361009  73.3005381  16.9588184  19.8058581
  74.0669489  15.6560838  19.7253430  57.5299168  58.7858582  15.7799435
  58.1416655  58.9480543  15.0618291  56.9745874  58.0726480  15.4650331
  15.5467772  11.3510776  13.2567656  15.9360337  11.3928092  14.1302466
  15.2427912  10.4473090  13.1729436   7.5975573  42.1238375  44.2079067
   8.1969273  41.7880344  43.5414028   8.0911416  42.8167391  44.6466494
  62.3643112  41.1673594   8.3533442  62.0706415  41.5222216   7.5142598
  62.4810600  41.9365311   8.9110029  25.9768820  47.5660849  27.8677654
  26.6284752  47.1637917  27.2934675  26.4658260  47.8028345  28.6558771
  21.4538566  28.1894289  42.4963015  21.9559328  27.4062573  42.7216738
  21.8423358  28.8841902  43.0279320  30.3040361  22.0656133  54.2931318
  30.1894903  22.9965878  54.4839096  29.9830699  21.9634700  53.3971500
  22.4047971  62.2515917  10.4728091  23.2495117  62.4944687  10.8518875
  22.0285463  61.6353703  11.1012518  36.5679693  57.8049946  12.6357651
  36.8047857  56.9435644  12.2921300  36.9356155  58.4238815  12.0048559
  11.1780627  56.8506306  83.0726605  10.3443511  57.1974021  83.3903172
  10.9439261  56.3311117  82.3035621  57.7647900  71.4665096  83.6155897
  57.8246760  72.0217674  84.3929785  56.8585825  71.1582988  83.6106306
  53.0916405  49.8835897   0.0843686  53.2922411  50.7432508  -0.2857209
  52.5048447  50.0694132   0.8174249  82.2776794  31.9106054   1.3653606
  82.1395493  31.9374371   2.3121607  82.9173279  32.6024938   1.1969332
  75.5046034  39.4575267  78.9215916  75.7237983  38.6053758  79.2984539
  75.5053711  39.3085962  77.9760486 103.7040090  95.7288497  46.2382143
 102.9413843  96.2962144  46.1253994 104.3611622  96.0897582  45.6431311
  92.5465441  98.1998294  52.4196642  91.8416834  97.7300161  51.9739264
  92.1063804  98.6880487  53.1154602  33.6266422  51.5896845   3.6117011
  33.4013629  50.9195662   4.2570105  34.2271185  52.1747446   4.0736121
  56.3744164  10.2567148  37.8215694  56.2470198  10.5180109  36.9095802
  57.0421886  10.8577204  38.1518722  35.5087018  74.8634243  10.8078110
  34.7775555  74.8629236  11.4255941  35.5051112  73.9832020  10.4317439
  31.6191006  45.4310274  19.7271037  31.8224549  45.9572649  18.9538324
  30.6693268  45.5023479  19.8223531 104.4049978  91.3213246  87.3582402
 103.8781309  92.1032422  87.5233149 103.7633657  90.6217044  87.2354746
  77.0816374  83.9776056  84.5188895  77.9524946  84.3734139  84.4845462
  77.1637344  83.2735770  85.1621899  87.1026707  87.3526424  80.8454108
  86.4689588  87.6395314  80.1878893  87.5614357  86.6209262  80.4326695
  44.5342541  66.3955021  16.8522346  44.2827702  65.4834223  16.9974959
  45.4021788  66.3437939  16.4519012  10.2704318  86.8597954  70.8431226
  10.4347690  86.3219779  71.6177040   9.3190845  86.9631379  70.8207375
  42.6505947  60.6571293  14.1203189  42.1121025  61.1542416  14.7360623
  42.0871735  60.5313635  13.3567917  86.3838228   1.9837080  81.3799238
  86.8767556   2.3086105  82.1333742  85.8324858   1.2872873  81.7366552
  20.8921003  16.9255221   5.8002746  20.7548022  16.6817772   6.7156816
  20.0252581  16.8537211   5.4006958  62.6435280  44.0644264  16.4952052
  63.1771183  43.3166170  16.2263298  61.7775345  43.6927557  16.6629827
  59.4370270  53.2344389  22.3478532  59.8400831  53.9381075  21.8392944
  59.9057913  53.2432508  23.1823683  60.1888990  27.2953296   6.0802603
  59.5607996  27.6652193   6.7006648  61.0408926  27.6023173   6.3902587
  59.9588108  34.5249152   6.2300301  59.8044777  34.9415255   7.0778799
  59.7765255  35.2118921   5.5888855  66.0491943  39.5849204  16.1052835
  66.6846275  39.4424057  16.8068135  66.5708923  39.9118233  15.3723454
  42.8440380  64.5970297  23.9138365  43.7883377  64.7221422  24.0080690
  42.4892664  64.7883606  24.7820282  34.0741301  40.3702116  16.8616998
  33.2321382  40.6268787  17.2377336  33.9167285  39.5010853  16.4928091
  12.1768371   6.3982712  68.6369663  12.3348037   7.1758448  69.1723674
  12.9633228   5.8648192  68.7514561  37.8394103  25.5104423  10.5972314
  38.5477400  25.2699852  11.1944592  37.6041675  24.6908188  10.1623619
  21.6746561  16.8853508  71.5960639  20.9000961  16.4210878  71.9134813
  21.5866653  17.7694593  71.9522124  84.8560619  14.2132163  16.1549962
  85.5239868  14.6298909  16.6995037  85.2263927  14.2227495  15.2723885
  66.2219858  69.1943645  10.1972163  66.9215775  69.8398399  10.0963783
  65.8482504  69.3788671  11.0589099  51.7767191  51.9398499  17.3039806
  52.3775625  51.3732386  17.7878881  51.3946247  51.3695669  16.6368878
 101.7685318  60.7803016  87.1002293 101.2742901  60.1025676  87.5613500
 101.0985517  61.3440138  86.7134629  27.4054146  48.2112646  30.1763844
  28.1802559  47.9940176  29.6580625  27.5833893  47.8398180  31.0404372
  41.3314819   7.9670852  16.0436821  40.4861832   7.5870156  15.8044231
  41.2363386   8.9006704  15.8550072  71.6518020  89.0729969  85.3446379
  71.3766527  89.9844378  85.2456537  71.5554595  88.6973374  84.4695213
  61.8800926  23.8970780  18.9189959  62.0253658  22.9512477  18.9420700
  62.1275902  24.1988039  19.7930312  28.7689153   3.0689894  87.2827026
  29.4501583   3.5463511  86.8091352  28.4342996   2.4360119  86.6474071
  59.1649342  31.8526673   1.9880475  58.7882853  32.5698209   2.4980056
  59.5208168  31.2533736   2.6441169  32.8843451  32.9125309   9.5740169
  32.2049665  33.0897164   8.9234161  32.4500155  32.3699164  10.2321661
  29.3390393  36.8213367  24.0563703  29.3200302  37.7753067  23.9801335
  28.4755921  36.5396571  23.7541318  73.5134768  68.8381320  85.7667808
  74.4331050  68.8265496  86.0320772  73.4898710  68.3206730  84.9618512
  74.3731785  68.4474700  77.3159307  74.8727465  68.0278509  76.6155141
  74.0112519  67.7195161  77.8212267  66.9015217  64.5581060  80.2900040
  66.0449028  64.9170738  80.5214786  67.3015427  65.2300053  79.7379482
  54.6251917  27.1620154  22.7020049  54.5666838  26.5958595  21.9324088
  53.7252903  27.4489045  22.8572631  66.4735818  68.8914888  46.5604800
  65.8471298  69.2741089  45.9461564  67.2068071  68.6123579  46.0121220
  51.4407158  23.4676194  31.3118005  51.5639496  24.0366673  32.0715570
  50.8026981  23.9293098  30.7677341  13.1120884  20.0754333  24.3812299
  12.2188866  20.2581787  24.0896368  13.5611248  19.7625804  23.5959148
  10.7639611  47.7827835  29.0266514  10.5710244  47.2096252  28.2846928
   9.9045140  48.0380058  29.3619776 102.2035122  82.0790690  59.3049878
 101.9162130  82.9385012  58.9966601 102.3882866  81.5870660  58.5049718
  37.1792674  58.6425400   0.6958468  37.2594023  57.6891899   0.7263874
  37.5489807  58.8869190  -0.1525778  96.1784172  40.9627461  70.0355082
  96.1263180  41.8673950  69.7270804  97.1153927  40.8007234  70.1453203
   0.6733211  73.2622450  75.2361244   0.9581264  72.6328724  75.8987003
   1.1505969  73.0102580  74.4455927  52.5729704  46.6455078   4.3644243
  52.1542549  47.0729017   5.1115799  52.0119143  45.8939600   4.1730624
  59.6572447  97.0629638  87.2164687  60.0727892  97.8984349  87.0030754
  60.1710510  96.4111894  86.7395715  60.5279541  50.9063816  19.1034472
  59.9425268  51.5840960  18.7654853  60.4052019  50.1658630  18.5094857
  66.6852760  49.6162081   2.6820287  67.2338104  48.9306068   3.0632102
  66.7487860  50.3447723   3.2995981  73.6005259  23.9816880   0.9272347
  74.0355587  23.1406450   1.0673151  73.4124088  24.0006876  -0.0111057
   1.3960115   4.5152269  67.3159736   0.9116308   3.8161408  67.7551669
   1.6025201   5.1379620  68.0129593  42.4911451  23.7850451  26.5247154
  42.0537758  23.1437445  27.0847845  41.8175459  24.0579104  25.9017897
  42.8121424  16.2858057  11.5483153  43.1020880  15.3869867  11.7041671
  42.9260635  16.4143431  10.6066513  77.2402572  74.2981928  64.5825022
  77.3249483  75.2513664  64.6053093  77.5861406  74.0067523  65.4261034
  32.4188137  18.3230472  23.8088298  32.8189731  17.5169051  23.4828830
  31.9906259  18.7047267  23.0425334  72.1953392 100.7623523  80.7238370
  73.0215096 100.9718984  80.2882158  72.4164772 100.7313960  81.6546273
  64.6712875  73.3820122  34.2115181  63.7454867  73.2365649  34.0166682
  64.9818420  73.9384192  33.4972352  12.8446762  22.2688232  76.4985817
  11.9650642  21.9154488  76.6314202  12.7986900  22.7139889  75.6524473
  79.2223787   6.2319720   8.1679314  78.7693739   5.6538588   7.5540882
  79.1921568   7.0936465   7.7521974  13.1991951  16.2895857  87.2670044
  13.6348573  17.1339022  87.1505642  13.8914386  15.6423174  87.1325671
  95.2506208  67.9728227  76.9204849  94.4492817  68.1820827  76.4405960
  95.7577038  67.4315148  76.3154345  62.3351431  62.0420694  23.0197644
  61.6357279  62.6828766  22.8916311  61.8802071  61.2375593  23.2688165
   6.1967214  65.1603454  82.4478221   5.3854116  65.4365771  82.8740889
   6.4370378  65.8991223  81.8886381  50.0645733  23.9015937   0.9960390
  49.4377947  23.2459211   1.3017745  50.8821869  23.6767292   1.4400892
  25.2293944  38.9302397  39.6887112  24.8110962  39.7909355  39.6672750
  24.7482848  38.4467793  40.3602982  96.7247295  87.6882928  82.8085112
  96.6335821  88.5773461  83.1513083  97.6018905  87.6678842  82.4258786
  50.3127956  28.3461547   4.4392705  51.2406683  28.5670495   4.3587229
  49.8951530  28.7944269   3.7038404  62.8199720  36.5516257  13.4167397
  62.5702477  37.4703431  13.3176053  61.9879675  36.0833025  13.4850931
  43.8544035  51.7568016  12.2300768  42.9275703  51.5813875  12.3926890
  44.2524624  50.8896637  12.1535909  31.6094351  19.8784459   9.9458104
  32.2341394  20.4592776   9.5115179  31.0127974  20.4691553  10.4055047
   4.7157423   5.6155287  71.1046689   4.6773426   6.5145193  70.7782143
   3.8998477   5.2161060  70.8029979  35.2859569  47.4496078  19.4937050
  34.8664761  48.2242727  19.8680937  34.5951271  47.0256424  18.9845502
  47.8470898  13.3647275  31.1700892  47.5446510  14.1520584  30.7174611
  48.7007809  13.1771457  30.7798862  23.2260323  29.2557955  11.6973555
  23.4281087  30.1335096  12.0214117  23.1002903  29.3712807  10.7555032
  59.0388489  57.0713377  20.4143739  58.4674358  57.7070189  19.9835277
  58.6084747  56.8901443  21.2499452  12.6279338  92.6243346  67.5892538
  12.0047839  92.6537078  66.8632668  12.3392566  93.3191770  68.1809419
 106.1781772   6.1084734  84.5051837 105.4272016   6.6945969  84.5986038
 105.8225663   5.3300320  84.0764621  26.0036755  34.8544312  10.6205142
  25.1212764  35.2250838  10.6352925  26.1559796  34.6351314   9.7013068
  56.2240887   7.7452523  16.1828756  55.6097555   7.7983552  16.9150007
  56.1914301   8.6126524  15.7794130  57.5900698  12.2034848  20.3934026
  57.8381205  11.2967360  20.2130961  56.7691183  12.1348238  20.8807945
  28.2716322  52.1997976  12.7738678  28.8990021  51.9627190  13.4568286
  28.0883074  51.3767433  12.3208749  78.5420656  14.3513000  40.5306244
  77.6658869  14.7347248  40.4915762  78.6012697  13.9782214  41.4101362
  21.1690569  81.6678143  45.5523968  21.9330525  81.2143135  45.1961946
  20.4741359  81.5032673  44.9150276   4.6821340  87.5258058  72.2604626
   4.0144952  88.2093590  72.2034627   4.4971688  86.9480126  71.5200740
  23.9377165   7.6700324  16.3438690  24.0848732   7.5887293  17.2861886
  23.1345105   8.1854969  16.2704802  60.2109671  51.3490582  32.0786285
  60.6624842  51.7040062  32.8443789  60.8362484  50.7336855  31.6957831
  58.0400085  33.0742764  45.8100176  58.5685968  33.5055757  46.4814425
  57.3575544  33.7107515  45.5969858  64.6870184  54.2564869  23.0571318
  64.3146133  54.0702009  23.9190149  64.8159027  55.2049541  23.0518174
   6.6802255  24.2209803  81.9982189   5.9354249  24.7909247  82.1897179
   7.1244661  24.1165482  82.8396320  31.9548503  10.1887976  87.4141319
  31.7617265  10.8141838  86.7156848  32.7549354   9.7486912  87.1270781
  71.2072039  19.9692237  14.5049560  70.3847790  19.7659850  14.9505377
  71.6875553  19.1412950  14.4993997  63.5259008  69.2530870   2.7304128
  63.6972713  68.4360075   2.2621760  63.4901762  68.9978933   3.6522767
  12.0092527  51.2644421  80.3469103  12.1050636  51.7344700  79.5185840
  12.2035114  50.3528725  80.1288897  72.3298359  78.6893415   6.5045500
  71.8681812  77.9421091   6.1240840  73.1896114  78.6791277   6.0839427
  16.8973144  86.5862363  79.1639876  17.2953589  86.6109651  78.2938283
  17.5938781  86.8736523  79.7542631  29.3501369  60.5530201  86.9067673
  30.0951234  60.4904400  86.3090118  29.7098533  60.9573589  87.6962911
   7.7955143   0.6049334  81.5987581   8.1982461   1.3918005  81.9660163
   7.1189586   0.3644167  82.2317326  53.1301308  48.7293196   9.2271101
  53.8479757  48.1448984   9.4708002  53.5571194  49.4587135   8.7777799
  75.3117800  89.8566151  18.9188325  76.1581707  90.0032139  18.4964991
  74.9202394  89.1350937  18.4265602 104.5148277  87.5193208  87.5521743
 105.1475906  88.0572026  87.0762250 104.3325043  86.7867916  86.9636240
 100.7268572  79.7674697  49.2388147 101.0179281  80.5275100  49.7426456
  99.8063660  79.9459761  49.0462821  -0.0282391   1.4052425  66.0454648
   0.6519262   0.8399235  66.4115518  -0.3626235   1.8950258  66.7968148
  43.6158649  14.1243445  83.3285925  44.0086786  14.9970327  83.3101508
  43.2128850  14.0247999  82.4660802  68.8790274  60.5980158  17.5671721
  69.7630453  60.7934380  17.2564399  68.7378836  59.6821356  17.3274481
  12.3961679  11.9258629  71.9326931  12.3970977  11.1856924  72.5396305
  12.6848547  12.6696335  72.4615580  11.9990722  37.9984222  83.7620651
  12.5794689  37.9808270  84.5230266  11.2173597  38.4586083  84.0676501
  78.6101389  36.1831999  15.1972985  77.6574421  36.0908604  15.1889670
  78.7645245  37.0953035  14.9514019  61.3877296  86.7073154  11.5493453
  62.1523142  86.4834213  11.0187650  60.6525230  86.6705322  10.9375036
  74.3755484  46.2301111   6.3009673  75.0510025  45.8293390   6.8481231
  73.5741520  46.1596298   6.8196446  33.4350610  59.5597315  37.0001841
  33.5511112  60.5092907  37.0332932  34.2595243  59.2058945  37.3337889
  57.7323055  53.5852385   7.9071492  57.8046894  54.5391560   7.9394394
  58.0548477  53.2915878   8.7591863  93.7470865  90.4693096  77.8237599
  93.1243801  89.7857731  77.5762826  93.2021856  91.2343734  78.0081326
  30.6722522  52.5713444  14.1467154  30.9243369  53.3263540  13.6150730
  31.4709663  52.0480585  14.2135227  83.3413601  36.2007427   1.6120654
  83.7311935  35.6736183   2.3094925  83.6941242  35.8276963   0.8042116
  54.6919441  46.0308409  21.3601112  54.4278193  46.7671728  20.8084917
  54.4551086  46.2995243  22.2477770  40.9804908  49.1783939  76.7489546
  41.0782472  48.4467445  76.1395555  41.7471782  49.1193806  77.3189932
  24.9529822  85.2115696  81.7662960  25.4783710  85.4753917  81.0109126
  24.7036536  86.0358112  82.1842575   3.2151206  59.8352152  83.3754205
   3.3390220  60.6735390  82.9303443   3.9399417  59.2911231  83.0674761
  59.9940538  52.5181961   1.6387039  60.9296322  52.7148819   1.5913327
  59.8747969  51.7768574   1.0450494  16.5019695  37.0883118  55.6033104
  15.6727640  36.7185818  55.3000873  17.1723358  36.5710484  55.1568979
  23.6203901  18.1300961  68.1262010  24.3704883  18.4339224  67.6150506
  23.6904184  18.6003290  68.9569896  13.7266151  25.4807316  81.2103867
  13.1148616  25.8064734  81.8706012  13.1737319  25.0249134  80.5757326
  27.6884341  65.8694601  10.9754550  28.1062055  65.8213329  11.8353295
  28.0944347  66.6269255  10.5539775  53.4448624  27.3879552  17.5664258
  52.5502872  27.6084161  17.3068690  53.7023926  26.6874361  16.9671071
  69.4316101  51.7794752   2.3184229  68.8610029  52.0190239   3.0486634
  69.2985392  52.4735260   1.6728093  15.9496291  79.2041271  87.5453219
  15.5969127  78.9697831  88.4037531  16.8011840  78.7684887  87.5092213
  68.4636545  92.5827599  18.2467914  67.8578520  93.2868004  18.4782338
  69.0168285  92.4786091  19.0209877  65.4659404   6.8735443  79.0418589
  64.7542759   6.8588863  79.6818208  65.8710804   7.7335154  79.1538453
  64.8383427  39.7446132  28.4059310  65.7299614  39.7394514  28.7540913
  64.3003702  39.4028640  29.1200900   5.6712468  58.2977837  86.7323506
   6.2588676  59.0533828  86.7312321   6.0158332  57.7274018  87.4194859
  41.4545536  39.5647097  10.6831479  40.8230782  40.2336168  10.9477890
  41.1600018  38.7687731  11.1258161  50.5645943  34.5081544   2.6808387
  50.6377316  35.1690936   1.9923311  51.1630106  34.8079181   3.3651459
  14.6382371   8.0296026  77.7256399  15.0695316   7.4338184  77.1130591
  15.3573743   8.4521471  78.1952476  51.4633131  58.3359098  21.4024687
  52.0247793  58.2342148  20.6339335  51.2748909  59.2736673  21.4390349
  57.9018307  64.2058659   7.4339437  58.5938263  64.8671913   7.4387759
  57.7377319  64.0241480   8.3592987  -0.2445253  38.0092369  80.2370357
   0.6144849  38.2008301  79.8607003  -0.3597458  37.0683323  80.1042169
  90.1252222  96.2083142  88.1086534  90.2536297  96.0195487  87.1790769
  90.2056837  97.1599429  88.1731558  56.8253700  24.4999729  77.5880497
  56.7459766  23.5822760  77.8483456  57.7585498  24.6940266  77.6760810
   3.9276099  49.5717287  26.5619469   3.1715488  49.3467903  26.0197234
   4.6820772  49.4378948  25.9882736  36.5572111   4.8718821  63.1233352
  36.6880981   4.2493807  63.8385933  36.0539333   5.5852734  63.5157817
  55.6939173  68.1087780   9.5354271  55.3029490  68.6557817  10.2167213
  55.2846003  68.4082079   8.7236184  43.1673574  45.7520771   7.7904183
  43.5333872  45.0832558   7.2116816  42.7418280  45.2565193   8.4901178
   8.1229726   3.5539661  88.1115355   7.6941053   3.2586371  88.9147082
   7.7009098   3.0503069  87.4155292  56.0503149  12.1857083   8.7928379
  56.5553474  11.7904329   8.0822515  55.1706553  11.8218374   8.6926877
  28.9842741   6.4920698  54.9577254  28.8491432   6.9323956  55.7968229
  29.6413175   5.8209644  55.1424879  69.9165440  63.7460947   2.2172205
  69.4647503  62.9560280   2.5137219  69.4386673  64.4648457   2.6310578
  46.8653099   9.8062216  55.2175468  46.8202011   8.8981281  54.9182719
  47.7849094  10.0487362  55.1091283  85.7986402  94.7292178  65.8583301
  85.2138519  94.7916883  65.1031154  86.4687347  94.1001456  65.5909842
  95.0682068  55.6515694  16.8320847  94.8580074  56.4454222  17.3238623
  95.9510612  55.8050251  16.4955461  77.6030302  80.1646989  74.0590268
  78.2358265  79.6202605  73.5906380  78.0679417  80.9852212  74.2228454
  20.4077569  27.5082718  75.5747443  19.5636980  27.1117579  75.7905358
  21.0119859  26.7682205  75.5158978  33.9594245  41.3687325   5.1223451
  34.8825145  41.4992094   5.3394002  33.9557242  40.6112051   4.5372203
  50.5532980   7.2562855  23.9347601  50.2077436   6.8197429  24.7133851
  50.1848364   8.1389552  23.9716721  26.8507616  39.2574726  66.4343017
  26.5449468  40.0886475  66.0711664  27.3664896  39.5064865  67.2012752
  70.7245350  42.1464729  21.4705920  70.3947496  42.5861979  22.2542477
  71.6225624  41.9013405  21.6935039  28.5122625   2.1897446  68.6758750
  28.4296791   2.9684769  69.2263204  28.4241239   1.4559971  69.2842108
  81.2465429 100.6052964  87.6042963  80.3683567 100.4998201  87.9702059
  81.1533737 101.3025230  86.9551225  62.7932549  85.2220154   9.8203939
  62.3281050  85.1255798   8.9893883  62.6032162  84.4136333  10.2964568
  64.5575905  57.3735666   8.2612741  63.7660122  57.3183346   7.7259392
  64.8511124  58.2792330   8.1620640  66.9986486  93.6043739  11.2335622
  66.7826605  94.2475796  10.5583847  66.3421154  92.9159641  11.1273277
  22.6627660  56.3295889   3.9482951  22.2213173  56.3706970   3.0999634
  22.8963590  57.2376299   4.1409877  58.2897615  50.5518866   8.3073717
  57.6774073  50.0554657   8.8503438  59.1420698  50.4145813   8.7208253
  44.8219776  63.8123274   1.6971591  45.4367399  64.4111013   1.2731640
  44.1626358  63.6319351   1.0271175  50.9236709  19.1629397  63.8690537
  50.0106803  18.8781630  63.8293570  50.9650604  19.9172436  63.2812232
 101.1808061  85.9425109  85.8576141 101.4265680  85.6820696  84.9699178
 101.7643690  85.4389613  86.4251750  67.8609554  18.8607822  42.7288168
  67.5135604  18.0532585  43.1075638  67.5388710  19.5536696  43.3053559
  92.6268387  92.9685157  81.6147244  92.9949045  92.8495401  82.4902850
  92.2343635  92.1215957  81.4027816  26.4901614  75.2243662   0.6557240
  26.9464207  76.0596371   0.5538251  26.4651489  74.8558283  -0.2273300
   6.1112428  62.7339315  20.1215601   5.3049135  62.4326658  20.5402541
   5.8268631  63.0809259  19.2760110  69.4595385  88.5406685  12.4092734
  69.0543938  89.3667698  12.1453869  68.7741995  88.0823898  12.8956044
  50.6516933  55.6224489  15.0564420  50.6641340  56.1549902  15.8517277
  49.7223759  55.5203724  14.8510635  53.2761812  77.3252630  13.2107937
  52.9506302  77.5072622  12.3292470  52.6070595  77.6860714  13.7924528
  87.2717428  77.3558109  70.8472734  86.3627338  77.4660962  71.1261397
  87.5589561  78.2381838  70.6124097 104.3040085  80.3017419  66.8982118
 103.8390255  81.1381906  66.9176000 103.8788366  79.7755998  67.5754326
  34.1948207  77.6114648  76.4049333  33.9046462  78.2176059  75.7233005
  34.2024024  78.1367081  77.2051161  54.8969126  66.4058447   0.4008135
  54.9013329  65.6555939  -0.1936060  55.8207607  66.6326571   0.5071034
  16.3328059  76.5867870  85.5376622  16.3654693  75.6301492  85.5403506
  15.3995688  76.7944425  85.4909271  95.7109340   3.8408552  77.4900812
  96.1221608   3.0833851  77.9064470  96.0573419   3.8410936  76.5977615
  85.3226662  36.5057755  30.8191180  85.7972050  35.9536576  30.1976585
  84.7659874  37.0591593  30.2713060  90.4956865  87.3773497  87.8321878
  89.9251032  86.9298618  87.2073525  91.3684463  87.0277351  87.6525018
  46.4816189  82.7192211  10.1715839  45.5284023  82.8047943  10.1885772
  46.6753864  82.3714066   9.3011165  48.3996192   9.0682493  83.6351794
  48.0151454   9.2968498  82.7889234  47.6544372   9.0320288  84.2348647
  59.3107176  32.0821404   6.5693182  59.2705250  33.0254912   6.4121348
  58.5885191  31.9089627   7.1731967  99.3444069  11.2236534  38.7406653
  98.9514407  12.0692383  38.5243386  99.6632012  10.8864914  37.9034537
  61.5657663 101.2020588   3.7758017  61.4538527 101.9364548   4.3794325
  61.9045544 100.4926682   4.3218863  69.4131899  73.7579298  12.6779497
  68.7845659  73.6233854  13.3871484  70.0977468  73.1083775  12.8382361
 103.4092235  61.5744715  84.4643903 102.9262352  62.3529964  84.1871682
 103.0445719  61.3594645  85.3228953  58.3868313  89.2208385  13.2507622
  57.7012062  88.7943554  12.7367043  58.9715481  88.5080624  13.5082340
  47.9340935  70.4020309   6.6393286  48.4731340  71.1317444   6.9445962
  48.3664274  70.1031542   5.8393329  52.9635572  56.5153074  14.0157998
  52.8535223  57.3592901  14.4537759  52.1668386  56.0293388  14.2286456
  73.5449982  95.2154582  76.1979502  73.3229494  94.4642251  75.6478840
  73.6126995  94.8536437  77.0815438  54.6335077  51.3450718  12.2164249
  55.4668045  50.9914446  12.5275528  54.2639399  51.7923498  12.9777360
  22.0378105  14.6912323  83.7432316  21.2073938  15.0153338  84.0919447
  22.1035472  15.0872408  82.8742724   5.5610354 100.0697368  59.7704953
   5.7888730  99.2114490  60.1277894   4.7461827 100.3052180  60.2141088
  19.1072381  39.8395705  39.2838836  18.6401844  39.3041134  38.6424947
  18.4488845  40.0480080  39.9467230  40.7016706  17.1883559  28.2678723
  41.3103867  16.4795363  28.0598593  41.2642670  17.9233742  28.5117316
  45.7917881  61.2248564  18.7257850  46.5375566  60.6752634  18.4849346
  45.5953836  61.7231512  17.9324627  55.5604267  58.2762527   7.5522518
  54.8007774  57.9273272   8.0185378  55.3732538  59.2098475   7.4542630
  99.6160650  70.7985108  83.1460076  98.9102268  71.4425200  83.2032338
 100.0400352  70.8309942  84.0035766   9.0997827  48.8015747   9.1050971
   9.2650801  48.7671185  10.0472867   9.2754042  49.7111750   8.8642251
  31.7784254   1.8768583  51.9250172  31.9436399   1.1543928  52.5308054
  30.8330099   2.0185600  51.9734019   4.0749629  86.1254471  70.1187020
   3.4204801  85.7512515  69.5289021   4.8603328  85.5988353  69.9700182
  45.8952856  46.9357157   1.1474691  46.0982943  46.1362028   0.6618726
  45.1328707  46.7061853   1.6787644  79.4474792  56.8631124   4.1334608
  79.5895863  57.7572441   4.4442108  80.2932453  56.5978622   3.7721431
  32.0206523  46.6051054  25.0666118  31.8006015  46.2062979  24.2247295
  32.7528143  47.1897030  24.8706293  54.0350103  54.0778923  23.8457632
  53.8124943  54.7778130  23.2319021  54.6753311  53.5427189  23.3769274
  49.5565891  49.9907875  29.6733761  48.9935875  49.3838596  29.1928530
  50.3794956  49.9922800  29.1844416  26.9735757  12.5787197  70.9765750
  26.5458433  13.0840241  71.6679090  26.3564960  11.8744646  70.7779127
  82.3116112  90.6767099  72.5048238  81.4782667  90.6063789  72.9704672
  82.3966789  91.6090625  72.3055404  48.8295460  81.8772221  34.7838283
  49.4716167  81.5871143  34.1358948  48.7382698  81.1339474  35.3800130
  36.2380838  77.8559542  13.3546126  36.7585635  78.0792904  14.1262686
  36.2273979  76.8989038  13.3417058  57.3677969  31.4733100  23.6746144
  58.2144928  31.3490105  24.1034365  57.0408821  30.5856633  23.5281706
  73.5819149  57.4044514   4.2833108  73.8948393  57.1241331   3.4232333
  74.0128994  58.2460356   4.4323841  40.7376472   8.2969128  74.6029740
  40.1508657   8.5732828  75.3069192  40.3697149   8.6952816  73.8142007
  65.1219654  36.0497427   5.6025553  64.5710754  36.0284162   4.8200619
  65.5317831  36.9145656   5.5834520  53.6834097  34.2836714   9.7037482
  54.0913677  33.7004280  10.3437722  54.1086102  35.1294827   9.8452890
  20.9119550  10.8213173  77.7862888  20.2941123  10.3456532  78.3414876
  21.6996805  10.9069334  78.3233100  84.2533684  49.3804693  10.7792830
  84.1731358  50.2898932  11.0669243  84.7103119  48.9417219  11.4968741
  60.1866102  73.0801725  13.8230324  60.3460360  72.1539164  13.6417305
  60.3592777  73.1740379  14.7598398  70.6990862  77.4170845  76.0261947
  70.9527635  77.2837775  75.1128989  71.2186837  76.7786615  76.5147298
  65.7369709  73.1873417  10.8830154  65.1361513  72.6585245  11.4079905
  66.6084528  72.9258633  11.1803031 101.8694305  22.7046466   9.4888276
 101.5578747  23.4359169   8.9555252 101.6591644  22.9571962  10.3878498
  88.8157940  33.8579035  27.4286246  89.6243763  33.3633661  27.5622487
  89.1016006  34.6826315  27.0357251  70.8405733   2.8410539  15.5659139
  70.8367586   2.0102119  15.0906050  69.9382973   3.1550735  15.5065858
  80.3549576  64.9913168   8.9178169  79.8919916  65.6167746   9.4752163
  81.2689304  65.0540781   9.1952181  67.5749588  86.6540241  13.1588912
  67.7596331  85.7279682  13.3156061  67.2962284  86.9901562  14.0106869
  92.7832444  39.6704708  79.7805065  92.0616039  40.2882038  79.8983073
  92.7854737  39.1488873  80.5831116  70.6011915   2.2010826   7.5008422
  71.3520861   1.9124892   6.9820905  70.5797148   3.1508014   7.3833495
  68.9160538  43.0432272  23.7459850  68.1749773  42.5887394  24.1465783
  69.6349955  42.9220533  24.3662071  26.0147555  88.7187665  85.2323323
  26.4269431  89.2948049  85.8761576  25.4283126  89.2920750  84.7387403
  45.2830076  27.2644877  11.1087692  45.8744335  26.6767526  10.6386518
  45.5040264  28.1371665  10.7834733  46.1974764  27.4174118  13.9316237
  45.7657671  26.5986848  14.1756427  45.9274149  27.5699377  13.0260658
  61.3447571  47.0438766   9.6210086  61.6039896  47.3259687  10.4981947
  62.1303749  47.1664143   9.0880716  28.5065452  35.8477722  64.4251579
  29.1806737  36.5215908  64.5132059  28.0378334  36.0811649  63.6238664
  78.0420637  79.3621683  16.7121911  78.5099745  78.5558414  16.4950967
  78.1071329  79.8972273  15.9211731   3.5070166  41.7456007  26.7429662
   3.4222084  42.5587225  26.2451005   3.1549048  41.0712290  26.1620402
  68.0122256  76.9005674  62.8246587  67.4819851  77.1216577  62.0590251
  68.0252027  77.7027410  63.3467525  33.6396583  99.7561639  80.2163726
  33.9519103 100.6249421  79.9634742  32.6909526  99.7983163  80.0963503
  73.4421158  53.5662508   9.3830699  72.8846598  53.3858204  10.1399839
  73.5206079  52.7229977   8.9369810  38.6818258  22.6996981  77.2028833
  38.1091587  22.5006472  77.9436022  38.4460966  23.5925852  76.9510632
  57.7603149  62.8007984  22.1870780  57.7732515  63.5570860  21.6004896
  57.0050955  62.9514980  22.7555561  18.8576118  46.1449658  83.5571697
  19.5732681  45.5771862  83.8429957  18.5512201  45.7513081  82.7402329
  71.6082811  24.9186230  19.5914054  72.4686146  25.3172398  19.7224104
  71.4370871  24.4453740  20.4056287   2.0038779  75.4746836  62.9840010
   1.8331035  76.0857671  62.2673100   1.9015868  74.6084850  62.5897068
  86.6983318  42.8400278  18.2652020  87.2003174  43.5755014  18.6163712
  86.8764305  42.1186352  18.8686180  40.3190041  29.0664291   3.8802433
  39.6429086  28.4242678   4.0964663  41.1325836  28.5623074   3.8666862
  69.3795872  49.7532177   5.1778120  70.1301956  49.8405838   5.7653385
  69.4840813  48.8876057   4.7828144  78.1786775  96.7515176  86.7163166
  77.2580719  96.5140908  86.6051911  78.2483911  97.6260322  86.3334396
  60.0339603  79.3359280   0.8306652  59.5639563  79.1996050   1.6533090
  60.9368372  79.5099545   1.0966622  62.3721695  28.5812521  22.5404978
  62.8063917  28.9949417  23.2865191  61.5892839  29.1122699  22.3943996
  75.8797598  42.4636745  19.0996730  75.7611561  42.9016638  19.9424839
  74.9938774  42.3784828  18.7472630   0.4949657   5.5611454  73.9540249
   1.3805024   5.7375036  74.2717594   0.5228940   5.7932459  73.0258113
  69.1695642  61.7912817  34.1489172  70.0549316  61.8945503  33.8000774
  68.6060810  62.2148848  33.5013962  88.5179615  83.4798973  52.5140565
  87.6051617  83.3587235  52.7754849  88.8665867  82.5913184  52.4424904
   1.4100535  88.8306778  53.7214321   1.9930442  88.0838102  53.8576144
   1.9992049  89.5726483  53.5850209  17.3958007  20.7789312  66.6687268
  17.9270832  21.5681110  66.5630597  16.5228836  21.0363709  66.3721341
  72.2152138  31.6913462  10.4074800  72.9243279  31.7558742  11.0471857
  72.6600218  31.5800381   9.5672506  53.1881332  16.2108040  23.3370614
  52.7601576  16.1427760  22.4835730  52.9453421  15.4042208  23.7917113
  77.6923990  86.0974115  42.4160593  77.6104832  85.9298676  41.4772051
  77.0275307  85.5383080  42.8180378  58.5819244  22.1293688   1.5026949
  58.6795425  23.0686998   1.3466237  57.6389551  21.9742346   1.4481421
  46.6918802  42.8104639   3.5303259  46.9629478  42.2401810   2.8109282
  45.8392715  43.1501484   3.2584736   6.4116231   1.6296898  84.5038911
   6.0492460   2.2349821  85.1508331   7.2454969   2.0238148  84.2478496
  36.1122982   7.1744333  55.9255546  36.3613597   6.3470350  56.3373941
  36.9421474   7.6285206  55.7793063  71.7973423  18.5321200   0.9148893
  71.2921810  17.8031242   0.5548758  71.2337065  19.2964220   0.7949322
  86.9171619  28.6955786   7.3622775  86.2325096  29.0605068   7.9229081
  86.5878201  28.8174295   6.4718205  77.5774240  91.2023204  85.1683387
  78.4617042  90.9938901  84.8669517  77.6869011  91.4326518  86.0909393
  67.0503950  99.6827977  85.5238181  66.1485910  99.7035354  85.2035838
  67.3279643 100.5988448  85.5174014  55.7189512  54.2354584   6.1690187
  55.4392624  53.3506680   5.9341747  56.3870430  54.1047764   6.8419278
  42.8479576  32.5883055   3.1515962  41.8969727  32.5070357   3.2240796
  42.9822159  33.1730890   2.4057846  60.2863979  63.7123013  22.7936459
  59.9623728  64.6007347  22.9416990  59.4965887  63.1887674  22.6581979
  12.2752841  59.9484592  67.2784751  11.7325194  59.1701763  67.1523112
  11.9967731  60.5492985  66.5873521  25.4283992  24.0730654  67.5030702
  25.4972736  23.7330566  66.6109484  24.6395294  24.6151005  67.4925655
  21.5814574  81.4833062  78.0300706  21.0080798  82.0743721  78.5180384
  21.5825542  80.6742232  78.5415542  48.3570004  69.3686914   3.7864593
  48.0848980  69.2039442   2.8836572  49.0798283  69.9913740   3.7089151
  41.3800097  39.8803663  31.1917019  41.8622160  40.6497288  31.4946675
  41.0842371  39.4515347  31.9947314  64.7966719  87.1818447   8.9931703
  65.5733871  86.6693974   8.7687886  64.1429758  86.5289021   9.2433101
 105.1121267  11.6698538  22.7446145 104.8065599  11.9576536  23.6048668
 106.0355194  11.9209944  22.7220887  48.3612585  81.4975452  13.4803748
  47.6231050  81.3617897  14.0744627  48.1601048  80.9521294  12.7199149
   7.7637998  32.1769272  72.2825438   6.8680707  31.8428074  72.3301774
   8.0206720  32.3046433  73.1957453  52.1454811  67.3399687   6.9402665
  52.9740810  67.2317696   6.4734203  51.5153217  67.5736952   6.2587202
 107.6845598  79.8172777  72.1810907 106.8054867  80.1943844  72.1457177
 107.9171657  79.8386353  73.1093520  49.0336800  74.7742701   4.0674675
  48.3796644  75.4723835   4.1010162  49.8479605  75.2199316   3.8338727
  15.6074182   8.5473190  25.3728693  16.1838428   8.4920536  24.6106928
  16.0175792   7.9792963  26.0250538  55.6244755  51.5889215   4.9837306
  55.4911184  50.7400608   5.4054934  55.0424910  51.5729284   4.2239490
  59.4643879  56.2636757  35.2158523  58.8460636  55.5955648  34.9199986
  59.3430853  56.2989283  36.1646795  63.5015297  29.7755623  19.9581385
  64.0187883  29.5997715  19.1721547  63.6048126  28.9889765  20.4937196
  95.0104666  96.6737455  79.2226886  94.5155430  97.3167651  78.7149328
  94.7188616  95.8266299  78.8856542  93.2042646  89.7226136  87.4972222
  93.0995750  89.7899073  86.5481472  92.6283121  89.0014952  87.7511857
  13.8697235  23.2024227  69.1323882  13.1339065  22.6145874  69.3034345
  13.5974733  23.7109362  68.3684987  95.5618954  93.5640853  78.6137253
  94.6214819  93.3912414  78.6582190  95.8449316  93.5858625  79.5278632
  78.5822630  80.6566906  19.1755962  78.1267023  80.1214027  18.5258579
  79.4399214  80.8274841  18.7863958  94.8206075   6.5420233  84.4815519
  94.2815646   7.2863422  84.2138663  95.7150300   6.8829428  84.4848466
  19.7944776   3.0949246  77.6732772  19.4472400   3.4650789  78.4848475
  19.5530025   2.1693932  77.7096015  29.3613712  53.1179939  63.6397856
  29.5898048  53.8520561  63.0695218  29.5983259  52.3399101  63.1351417
 100.9903288  97.2627252  86.7414812 101.3319635  96.9468969  87.5780042
 100.1114178  97.5815099  86.9467213   6.2192384   8.0493437  62.7065629
   6.9868843   7.6714264  63.1356710   6.5649644   8.4561239  61.9120592
   8.5881082  28.8691507  75.0915950   8.2552520  28.2314430  75.7230752
   8.3413402  28.5124909  74.2382902 106.8103790  41.5734100  29.9081397
 107.5170517  41.2940788  30.4902244 106.5337944  42.4208736  30.2567506
  80.5645466  80.0449848  24.8649311  81.4974213  80.2588272  24.8491812
  80.5387306  79.0905619  24.9330235  23.9514152  10.5829226  84.3611732
  24.3527977   9.7213160  84.2482051  24.6900598  11.1739861  84.5070424
  34.1334558  62.6553440   7.1026456  33.4810805  61.9776011   7.2795647
  34.2436123  63.1061268   7.9398412  74.5974922  76.0655022   1.8374227
  74.1852903  75.9665155   2.6956338  74.0763044  75.5117416   1.2560891
  45.9117842  51.9494057   7.4759948  45.7011032  51.0156775   7.4746788
  46.4009237  52.0857143   6.6645801  40.1219789  38.6353241  66.8801850
  39.7223417  38.2294403  67.6494616  40.5092279  39.4457947  67.2109526
  46.7520380  79.1024876   1.6627349  47.3970556  79.7515440   1.3818240
  45.9221840  79.4197798   1.3065003  53.9426605  10.7886635  69.6904641
  53.4170715  10.3174101  70.3369206  53.3052150  11.2939392  69.1858929
  26.8241588  44.4052349  83.4445277  25.9737007  44.1687046  83.0743909
  27.1168939  45.1480900  82.9166013  62.6380539  49.2431974  37.9113412
  61.9637585  48.5687494  37.8296399  63.0887079  49.2348623  37.0669031
  19.5469745  88.8913935  42.9332274  19.5944770  89.8466271  42.9719943
  20.4568084  88.6031716  43.0064410   6.6825569  47.6865101  29.2217875
   6.7050070  46.7894077  29.5548582   5.7509863  47.8795862  29.1162992
  76.5561962  68.6686850  20.2697730  76.6606522  68.0477095  20.9906840
  76.0748911  68.1809759  19.6014011   1.2895099   4.4711059   0.7630058
   1.8906824   3.8428157   0.3629259   1.4676468   5.2951186   0.3096760
  41.4930192   4.9660812  85.0465709  42.1429006   4.6227299  85.6597569
  41.9365350   4.9584423  84.1983554  40.1925564  77.4011850   8.7697172
  39.2461205  77.4595451   8.9004230  40.4478359  78.2750368   8.4740019
  67.7108240  59.0521336   1.4546989  67.0840359  58.3492994   1.2832612
  67.8550196  59.4582176   0.5999855  72.2887039  78.7471581  23.3014178
  72.7223158  77.9573488  23.6245608  72.9062700  79.1187668  22.6715350
  48.2525492  75.3198957  23.9406109  48.4262848  76.1901283  23.5817933
  47.9292011  75.4861069  24.8260808  67.8295898  47.1343803   3.9474899
  67.4952221  46.2414455   4.0317425  68.1562614  47.3511934   4.8207065
  69.7451639  71.5619183  20.6137609  69.6631670  70.6226015  20.4488587
  70.2296734  71.6191149  21.4372969  18.1669275  14.7673355  83.3345347
  17.6691476  14.4283424  82.5905370  18.5022346  13.9860617  83.7743190
  46.7287636  68.4228754  25.0994635  47.2572327  68.3960009  25.8971071
  47.1239901  67.7644920  24.5280099  58.0071735  60.4871130  33.6772156
  57.1488380  60.0694036  33.6064410  57.9366684  61.2727261  33.1349277
  59.8717117  30.8076167  25.1210046  59.5909357  29.8955941  25.1959062
  59.9768257  31.1009622  26.0260630  81.9052696  88.6158794  76.7179030
  81.5989876  88.4994929  75.8185273  81.2465572  88.1746667  77.2542375
  41.1682455  40.7752739  82.7830153  40.2405683  40.9292542  82.9617369
  41.1961643  39.8981033  82.4009043  71.7458248  81.6267490  14.7673035
  71.0317421  81.1602306  14.3329322  71.3389778  82.4231148  15.1086235
  67.4764490  58.2039452  24.0139556  67.5947809  59.1163731  23.7499356
  67.5687408  58.2163763  24.9666142  43.6853353  30.2891766  62.4449295
  43.5900775  31.1395489  62.8739089  44.0608875  30.4936443  61.5885561
  73.1863546  99.4515038  20.5714464  72.2752142  99.5101738  20.8588719
  73.6726713  99.9746513  21.2086630  24.1829340   7.0347153  75.7536167
  23.9108697   7.7698217  75.2042287  23.7970344   7.2198807  76.6097849
  83.9660072  38.7075591   6.1901587  83.6120319  37.9481816   5.7272518
  83.4643078  39.4493675   5.8521563  32.0342247  38.7956177  75.1551693
  32.9536573  38.6050736  74.9692505  31.5846530  38.6399113  74.3245846
  56.7148876  86.5445709  23.6148262  56.8752623  85.6042385  23.6941338
  57.4738169  86.8774128  23.1357908 103.4627533  58.6834526   3.1085333
 102.6433563  59.1533422   3.2635728 104.1462326  59.3035793   3.3625683
 104.2227888  90.8516043  65.0342005 103.4060478  91.0805553  64.5906371
 104.1496610  89.9118274  65.2006358  29.3241874  45.0516449  80.5548924
  28.3694402  45.0952660  80.6077093  29.5245878  44.1171967  80.6085419
  89.6496820  95.5650561  65.9822052  88.9235163  96.1491340  66.2007493
  90.3770017  95.8748525  66.5218991  79.1510677  93.6642068  77.6666099
  79.5808029  94.5187419  77.7029508  78.2790422  93.8190072  78.0297118
  32.7247707  16.3149820  75.5316823  32.4457065  17.1645390  75.8731633
  33.6802999  16.3674818  75.5105763  53.1313888  19.9232565  84.6460464
  52.2055618  20.1378380  84.7602576  53.2891933  19.2078339  85.2620810
  77.7186346  74.8960257   3.5829026  77.0558548  74.2105818   3.4984887
  78.1452179  74.9234915   2.7264535  18.9964096   7.5165306  43.3166235
  19.3107835   6.9084583  42.6475590  19.4870464   8.3227860  43.1570595
  26.4295761   5.7313143  85.7808290  26.8351404   5.1094709  85.1766339
  27.0394603   5.7826935  86.5167850  31.5110612  84.3341732  24.4032526
  31.2829399  83.8046074  23.6392164  30.6869650  84.7450161  24.6646047
  97.6364326  51.6967773  13.1727791  97.1671486  51.6657019  14.0064645
  97.7364159  50.7790279  12.9198539  96.4753246  50.2034616  17.4438596
  96.2935925  50.9434414  16.8645179  95.7065773  49.6393204  17.3601580
  72.4810171  65.3314877   9.8169380  71.9936848  65.5265617  10.6173646
  73.1709957  65.9943485   9.7890550  10.7169763  10.7987104  70.1906329
  10.9300510  11.5929400  70.6805557   9.9944440  11.0569082  69.6183437
  60.8379364  39.8840022  22.8754616  61.6282225  39.5694160  22.4364662
  60.3139448  39.0959501  23.0191255  71.1742210  53.0249023  31.6001582
  70.6675434  53.1643677  30.8001208  71.4931774  52.1253014  31.5279007
  27.8550760  20.8557211  72.6467675  28.5445682  20.7151114  73.2956606
  27.2361366  20.1410185  72.7962559  87.6397419  73.5717392  15.2761173
  87.8174496  72.8548622  15.8850026  87.2323895  74.2491150  15.8159912
 105.8556127  88.9886253  79.2914927 106.6595793  88.5324782  79.5400905
 106.0468054  89.9134153  79.4478410  73.8048792  76.6339540  14.6952963
  73.5996008  77.4434996  14.2276073  73.2758379  76.6767931  15.4918587
  78.7320328  33.5123062   4.2856374  78.0264091  33.6387205   3.6513245
  79.3640471  34.2015505   4.0813637  78.2466221  91.1056900  22.8403187
  78.0783176  92.0465755  22.7889156  77.6285839  90.7176304  22.2209048
  85.9115696  91.8884468  26.4494801  86.0222149  91.0896683  25.9337997
  85.2563190  92.3947048  25.9692860  77.3035765  54.1087770  11.7304635
  78.1824398  54.2421007  11.3754261  76.9158030  54.9837923  11.7448878
  74.1494036  94.4318390  39.3313026  74.2217875  94.0647507  38.4502578
  74.6739388  93.8470840  39.8782492  73.8216066  86.7585373  19.9009860
  74.0783262  86.3131714  19.0935373  74.4041777  87.5163174  19.9521708
  54.9975872  50.5317497   7.6812983  54.8242188  51.2505627   8.2891542
  55.9133244  50.3012514   7.8378850  15.3123271  53.1840944   5.2000308
  16.1805272  53.3960104   4.8571745  14.7465575  53.1711578   4.4280404
  54.4866085  80.5350685  42.0203400  53.5667419  80.7969666  41.9818497
  54.7132015  80.5919743  42.9485893  31.5079141  76.3035250  14.2112911
  32.3327351  76.5058088  14.6528578  31.0372829  77.1367455  14.1894972
  69.7993231  62.1701002  55.8072424  70.2241135  62.1413565  54.9499416
  70.3135395  62.8032017  56.3082314  42.9627609  29.0244603  11.2061858
  43.2418346  29.6392941  10.5277085  43.3652925  28.1928205  10.9560335
  29.7532217  41.9342075  62.8975337  29.9161092  40.9945141  62.8157729
  29.9353830  42.1297871  63.8166612  52.7101326  18.9310920  18.9459825
  51.9342709  18.5660219  19.3714130  53.0957937  19.5078862  19.6053815
 104.0722044  50.1484238  80.9490716 104.7452935  50.7527386  80.6360453
 103.2639488  50.6609570  80.9329968  46.5707541  23.1561899  13.1389582
  47.1908998  23.3616233  13.8385606  46.4713573  22.2049952  13.1786740
  74.8506737  54.4224310  18.1367862  74.0188789  54.5245647  18.5992992
  75.4065466  55.1185083  18.4870934  30.1943580  42.2451531  80.5002159
  30.8841936  42.5818287  79.9283647  30.6642286  41.8183266  81.2166428
  69.7102690  28.9163733   6.8163884  69.1404057  28.7541318   7.5681633
  69.3033934  29.6542382   6.3622504  73.8339329  89.5460224   0.5572670
  74.2138577  89.7525501  -0.2966869  74.5634270  89.1892529   1.0640059
  37.0681286  53.9306164  24.8446131  37.4637699  53.9471769  23.9731622
  36.1429644  54.1224527  24.6913099  31.9332695  58.5561943  28.8343620
  31.1877251  57.9757977  28.6809611  31.9348121  58.6990595  29.7808409
  20.2697833  94.9558347  75.0495845  20.0012954  94.7208303  74.1613751
  19.4478972  95.1104634  75.5152327   1.0106198  50.3780209  69.5054084
   1.0041706  49.5526920  69.0206283   1.7915098  50.8340393  69.1915744
   0.8349546  85.6022924  80.9312528   1.3548406  85.7656687  80.1443243
  -0.0708453  85.5917566  80.6219810  63.2174063  79.0726995  38.6598825
  62.9245901  78.9125443  39.5570111  62.9453707  78.2927132  38.1763005
  74.0178490  85.6226063  28.3748460  73.0857992  85.7569218  28.2031703
  74.4373322  86.4229488  28.0590534  38.8612652  72.6042557   4.1278446
  38.8231230  71.6482401   4.1562447  38.0558872  72.8628874   3.6798435
  85.4866409  83.5051918  15.0555098  85.8703709  84.2659950  15.4915893
  85.5727005  82.7955627  15.6921029  40.5824518  86.1317730   8.1307822
  40.7949734  85.2063560   8.2519662  40.4422379  86.4634514   9.0176642
  75.4984617  41.1262035  12.9123998  74.8665333  40.4274702  13.0817294
  76.3041258  40.8279753  13.3345318  65.0134230  52.4734259   3.5861158
  64.3329716  51.8065023   3.4943014  65.6806469  52.0609093   4.1346359
  29.0504956  67.7658081  28.2752728  28.3519864  67.1237612  28.1484294
  29.6450543  67.6214790  27.5391340  50.9037296  36.0480724  64.9260920
  51.2457077  35.3922020  64.3185466  51.6426841  36.6352497  65.0855058
  76.9541883  47.7779484   7.6446795  76.1063290  47.8340340   8.0853856
  77.5517750  47.4487019   8.3160371  64.5043802  40.1792479  23.9342690
  64.3308020  39.3408227  23.5063148  64.4337225  39.9897671  24.8698640
  18.6531774   4.7185169  67.3522967  18.2327692   4.7265278  66.4923972
  19.4622365   4.2247330  67.2187584  71.7876053  60.9421062  14.0209913
  71.1627436  60.2196026  13.9596272  71.5977907  61.4883661  13.2582307
  87.4937057  81.3181019   3.8008308  87.2090912  80.8993721   4.6131694
  87.2589874  80.6935787   3.1144542 107.7188357   8.6689983  72.5467199
 107.8751500   8.1458269  71.7605322 107.6709183   9.5705973  72.2288304
  60.7213306  53.0136299  24.9455786  60.6942272  53.9702415  24.9654841
  60.7138968  52.7545881  25.8670306  78.0262661  45.8922243   9.7347397
  78.2566547  45.7814312  10.6571710  78.6401939  45.3276730   9.2650557
  34.0842811  32.5924049  69.5359081  33.6525289  31.8588196  69.0980881
  34.7193901  32.1811997  70.1222330  38.2270423  20.9432159  62.0608777
  38.9999763  20.6297051  62.5304669  38.3417455  20.6191717  61.1675280
  82.6524353  65.6847095  37.7940369  82.0278454  65.6651258  38.5191083
  83.0555439  66.5511799  37.8484988  76.7717409  94.4550133   7.9405200
  75.8174181  94.5290565   7.9361856  76.9464779  93.5892582   7.5715059
  17.3048385  99.4846624  85.7519421  16.5484126  98.9374488  85.5407518
  17.8317245  98.9471000  86.3432584  81.1304855  59.5799780  29.5348144
  81.4750576  60.3415489  29.0684271  80.8980274  59.9145603  30.4009843
  28.1712333  56.1391102  55.4835146  27.7625648  55.8204399  54.6787351
  27.4396078  56.2780129  56.0849017  64.0615273  70.8348751   7.2398388
  64.3242073  70.1073122   6.6760230  63.1643057  70.6251144   7.4991262
  25.7114116  24.8591076  62.2734588  25.2003376  24.6609627  63.0581706
  25.4626934  25.7548796  62.0454997  51.8020093  88.2858151  76.9485610
  51.9972741  87.7858179  76.1560291  51.3819349  87.6544612  77.5326508
  14.0353377  88.2192796  87.6153481  14.8184855  87.6942533  87.7804221
  13.3279975  87.5783532  87.5438214  36.9104139  69.7179161  73.8628453
  37.2854272  69.0185009  73.3276564  37.2987834  69.5915161  74.7285372
   7.3610433  87.0234912  75.0721770   7.3520644  87.8609245  75.5357033
   6.6024573  87.0639318  74.4898194  90.2539253  49.5667458  24.7014713
  90.4750729  50.2929258  25.2845621  89.6634102  49.9511147  24.0535593
  83.3116150  98.0823803  -0.0667049  84.0973186  97.5451374  -0.1680707
  82.6819420  97.5064182   0.3669011  53.0286026  81.7428589   5.3831536
  53.7626123  82.3517227   5.4652876  52.5623894  82.0340729   4.5995274
   0.2950938  61.7693567  12.8274500  -0.2746503  61.0174990  12.6651835
   0.7488998  61.5545177  13.6423981  44.2371170  17.2242104  75.7132536
  44.6489135  16.4127909  75.4161781  44.9093143  17.8939568  75.5874413
 105.9897614  85.6627560  45.7548857 105.6310558  84.8397923  45.4227924
 105.7332134  85.6811142  46.6768789  82.1051216  56.7289591   7.9969311
  82.4902534  55.9853029   7.5333804  82.1208096  57.4427748   7.3593956
  41.1504364  81.3801479  28.1594968  41.4289999  81.0529423  29.0148163
  41.8240261  81.0709190  27.5537848  70.7633662  88.7793558  70.4310971
  71.5612244  88.7508481  70.9591514  70.2301812  88.0572694  70.7635647
  66.9311523  16.6628683  26.4370155  67.7874184  16.7634308  26.0211730
  66.8444920  15.7206964  26.5820503  69.8428821  92.6239389  81.7757171
  70.3438139  91.8446344  81.5349215  69.1622710  92.6876634  81.1056870
  51.4595985  94.0190220   8.3075386  50.7154465  94.0632915   8.9079648
  51.1318779  93.5251045   7.5559586 101.2115630  15.1348721  85.3755271
 100.3350147  14.8143517  85.5880382 101.1060150  16.0824333  85.2905246
  90.5296135  68.8113242  73.2782346  89.9900722  68.0493110  73.4891027
  91.2744236  68.4515291  72.7965289  51.1766005  11.4845240   5.4839796
  50.8098316  11.4578807   4.6002340  50.5524731  10.9922743   6.0172594
  73.1460857  37.9654956  16.0634339  73.7072802  38.4290361  15.4418039
  73.1278563  37.0636153  15.7432640  55.3741419  99.1136973  62.6831072
  55.4141641 100.0458663  62.8968781  55.4566336  98.6705630  63.5275358
  69.4852726   2.0303045  65.0603384  70.3170959   2.4974190  65.1385063
  69.7149936   1.1095177  65.1852816  22.2326644  77.1219080  87.7643106
  22.7359279  77.7856963  87.2927757  22.8348907  76.7945665  88.4324469
  18.3448446  69.0666628   1.0588313  17.9583931  68.2404947   0.7684276
  17.6259875  69.5288944   1.4898938   6.8884786  97.1224492  77.9992932
   7.1837218  96.6952747  78.8033992   7.5407203  96.8756955  77.3436099
  83.5769558  36.8854117  19.4031763  82.8855705  37.5472069  19.4185102
  84.2994213  37.3045897  18.9356589  77.7037382  51.9623184  23.2920527
  78.6251736  52.1829844  23.4280419  77.7066851  51.0222912  23.1115699
  23.6152244  18.5076690   3.2604644  23.3324051  18.5597336   2.3474830
  24.4619465  18.0627489   3.2239094  99.1073084  83.8073152  62.9172367
  98.8506651  83.1695383  63.5832756  99.9334669  83.4713452  62.5696462
  40.8673954  29.9780202  18.9724028  40.4577208  30.2660489  19.7881460
  40.9660912  29.0314817  19.0751362  72.1306372  46.9092464   8.1301600
  71.5587997  47.4841356   8.6388260  71.9187927  46.0278177   8.4374744
  53.7276649  36.3891149  11.8905294  53.4445143  37.2590446  11.6089594
  54.2309570  36.5478683  12.6891088  30.0622066  78.5839265  87.1406945
  30.4251464  78.7268465  86.2665747  29.1146262  78.5657733  87.0065684
  56.8797350  40.4713249   1.4788449  55.9262466  40.5296850   1.4180675
  57.1405029  39.9873471   0.6952666 105.4354572  70.0045984  86.8243958
 105.5937290  70.6892055  87.4743929 105.1692295  69.2426723  87.3390052
  67.0688486  34.9495602  10.3150856  66.8143845  35.7729650  10.7315981
  66.8654871  34.2786217  10.9667897 107.3204136  93.3161538  77.0848804
 107.6943970  94.1878312  77.2135049 106.8006515  93.3941882  76.2848896
   5.3085406 100.3714936  79.8827404   6.2338098 100.1266139  79.8947453
   4.8562797  99.6174091  80.2609598 102.1939945  83.1113213  54.0727466
 103.0705118  82.8401368  54.3455213 101.6476583  82.3393362  54.2203539
  71.8329906  44.1362858  23.5744715  72.5897074  43.8479185  24.0848184
  71.1278248  44.2173767  24.2166495  26.4517585  18.6514221  73.7861770
  27.0350544  18.4038387  74.5036024  25.9888212  17.8435551  73.5642045
  28.5957130  91.8057149  60.4944151  27.8537066  92.2229522  60.9321207
  28.7570746  92.3509782  59.7244256  48.0781929  29.0238415  69.8502916
  48.6815826  28.3268963  70.1080209  48.5808364  29.8303448  69.9648684
 106.6127539  93.8088887  66.1213511 106.6011715  92.9616969  65.6759757
 105.7718038  94.2081302  65.8985346  31.1939994   9.8422514  81.0452181
  30.6924430  10.2965580  81.7221802  31.6912881  10.5348478  80.6101960
 100.7981491  65.2537423  86.0158598 100.5984783  65.9860247  85.4326549
 101.3690615  64.6849709  85.4993450  68.8633919  67.5379467  11.6288650
  68.4165001  67.2933912  10.8184874  68.1883478  67.4711037  12.3042023
  27.9133550   7.5499331  57.6849812  28.0905525   7.0968424  58.5093254
  28.3688537   8.3875691  57.7693552  53.5113430  39.0963244  11.2648118
  53.1753683  39.9785757  11.1067462  54.4618082  39.1859937  11.1954725
   7.0300229  92.5352090  68.6097127   7.2616084  93.3000224  69.1366416
   6.0856803  92.6143163  68.4748429  91.9762087  66.7888349  68.1704026
  91.2351036  66.7978232  68.7761360  92.5033617  66.0396462  68.4479981
  55.7761566  26.5828024  81.3925463  56.6761867  26.2572037  81.3801086
  55.5524818  26.7038857  80.4697561   1.0575517  86.2572687  73.2039135
   2.0010694  86.1939638  73.0555993   0.8937343  87.1946471  73.3074385
  97.1928167  69.0742069  86.3189037  96.7709303  69.8912840  86.5846604
  97.9398393  68.9867633  86.9109724  65.7811165  54.4173193   1.7781012
  65.4256296  54.2655993   0.9024060  65.2869797  53.8235712   2.3433682
  84.2478180  71.6713064  74.5368248  83.4064197  71.5737384  74.0910047
  84.4821405  70.7823341  74.8033863  32.0441429  27.9839598  62.6895779
  31.9434444  27.1083723  62.3161620  32.8857986  28.2922398  62.3537081
  71.7215300  39.7583556  12.7450311  71.4424372  40.6709146  12.6703763
  71.6165686  39.4028306  11.8625247 103.4840393  59.1231680  11.7589748
 103.5459137  59.5322943  12.6221204 102.7178001  58.5526085  11.8187344
  69.4976783  61.5548783  81.0079992  70.4267526  61.7770713  81.0686695
  69.0913057  62.0231383  81.7372638  29.4364635  11.9180952  71.4638406
  29.8252145  11.4943348  70.6986397  28.5590259  12.1715485  71.1773139
  74.3200183  79.1983407  46.4180296  73.6545372  78.6841624  45.9608763
  73.9197850  79.4131010  47.2606009   8.9585097  83.8794702  82.3293662
   9.6267970  84.5412295  82.1513539   9.2228587  83.1246107  81.8034970
  58.6693120  87.0422834  74.8458117  58.1268978  86.2562745  74.9106830
  58.3777547  87.5950020  75.5708831  72.7611327  71.2710136  61.2825483
  72.0392322  71.6907566  61.7504257  72.7635026  70.3696924  61.6047972
  88.2944202  90.1791351  83.6274785  87.4775648  90.6415504  83.4399944
  88.5832214  90.5343407  84.4681060  65.2977347  81.9186037  68.1716853
  66.0830951  82.4501222  68.0415648  64.5947695  82.4269097  67.7670878
  16.2882026  71.3445061  86.7934730  15.4286750  71.6062968  87.1234711
  16.3930114  70.4401653  87.0891383 103.7051439  89.0257137  83.6071354
 104.2208910  89.7962587  83.3694425 103.5832929  89.1016691  84.5535049
  38.5739064  42.9097891   4.1929162  38.0810356  42.5069857   4.9078026
  37.9825401  43.5739040   3.8387051  35.7800412  60.7103586   5.9064251
  35.5255103  61.5339470   6.3225406  35.3004003  60.7022619   5.0781071
  81.0862732  76.7999744  19.6582997  81.5115833  77.3114777  18.9700329
  80.2672386  77.2644901  19.8304963  66.1469364  13.6055863   9.8056406
  65.9762001  13.8689578  10.7099175  66.5507364  12.7409339   9.8801827
  55.9036636  21.5224266   2.2608486  55.7533503  20.8727431   2.9475424
  55.7087278  22.3615146   2.6781803  87.5452947  88.9837855  54.9812358
  86.7126989  88.5154098  55.0415700  88.1947231  88.2985132  54.8235124
   8.7595216   7.4193512  75.5720418   9.4667379   8.0521618  75.4470271
   7.9607622   7.9465614  75.5559593  50.6965542  38.4465241   4.0129060
  50.9657145  38.3724403   4.9284917  51.1816359  37.7542019   3.5638881
  93.4437656  70.2444839  36.7875457  93.9113998  70.3447342  37.6167035
  93.3070660  69.3009424  36.7022252  30.7070390  13.2298122  77.7307421
  30.2191774  14.0208374  77.9598802  30.2163164  12.8481756  77.0028847
  52.4175310   7.3719770  12.9076624  52.7269268   6.5327120  13.2484567
  53.0463123   8.0122113  13.2407761  98.8908720  76.1409491  69.5134765
  98.5884952  75.3714102  69.0311795  98.2591009  76.2407940  70.2256089
  12.1392480   3.9487206  63.0337542  12.8295080   3.4061276  62.6524871
  11.8055574   4.4631992  62.2987765  73.8540554  58.5863584  55.3701919
  74.4391727  59.2681205  55.0399321  73.1263876  59.0662151  55.7657498
  82.7940941  91.0852521  65.7017487  83.4268761  91.6079276  65.2091807
  82.6348448  90.3194516  65.1500028  23.6438314   8.2430731  71.3893288
  23.5726635   7.2945582  71.4965063  23.5756198   8.5903917  72.2786826
  78.6847973  41.9974232  21.3044906  77.8633118  42.1821022  21.7597771
  78.4275389  41.4618969  20.5539846  89.9863052  55.9498262  13.8563311
  90.4202747  56.5551519  14.4575727  89.7405910  55.2038193  14.4034421
  29.6792118  17.3048435  53.5345787  30.1986782  17.2621380  54.3374270
  30.0451557  18.0458628  53.0516618  79.6317530  26.8591094   1.1136878
  78.8621330  27.3675299   1.3694714  80.3443241  27.4978566   1.0917789
  45.6605387  13.2443607   2.4858570  46.0240173  12.6402509   3.1332889
  44.7158337  13.0945778   2.5223589  41.3884870  36.0710178  77.1136337
  41.4710657  37.0143639  76.9739264  41.0637084  35.9892212  78.0103272
  71.1916161  58.8875437   5.0128931  71.9896841  58.4003592   4.8080212
  70.9687567  58.6183214   5.9040082  31.8008415  31.4601170  77.8044325
  31.1143009  32.1072899  77.9658824  32.6179067  31.9514977  77.8891557
  92.0775604  98.9404678  39.6476150  92.1204758  99.4626522  38.8465476
  91.2950420  99.2575455  40.0985765  97.0997143  71.7785263  41.7912722
  96.8827534  70.8577585  41.9373894  97.8711796  71.7558861  41.2250853
  73.2796955  61.2500000   9.5941895  74.0883875  61.0944223   9.1062909
  72.8304958  61.9362497   9.1007173  89.7729492  45.3883457   9.3907112
  90.2750015  44.7207689   8.9232528  89.6879864  45.0450420  10.2801800
 105.0728486  67.8721380  57.0238209 105.9491826  67.5124168  57.1612024
 104.4863785  67.2386503  57.4373198  14.7332537  74.0092897  74.4542933
  14.3126047  73.7134886  75.2616310  14.9499321  73.2021999  73.9875078
  20.2773603   7.0716517  20.6573796  20.4793497   7.6108115  21.4220619
  19.5032879   7.4825042  20.2723551  85.9446879  38.3584248  69.8846429
  85.0058111  38.5347115  69.9451714  86.3592764  39.1419159  70.2458828
   7.6766562  80.1234722  68.9270353   8.0055982  79.2262840  68.8715267
   6.8659848  80.0506210  69.4307566   4.5399326  34.8069549  21.8273687
   4.6517229  35.3574443  22.6024127   5.3438371  34.9358869  21.3240337
  95.9828250  70.3590202  58.0644321  95.3955452  70.4134226  57.3105240
  96.5311615  71.1407614  57.9977894  85.5631964  93.7097931  46.0888004
  85.5199806  93.5478306  47.0312071  84.6702663  93.5590363  45.7786751
  10.7475889  84.8771381  28.8336825  10.8219111  85.3727531  28.0181646
   9.8082548  84.8563766  29.0165830  97.6381866  59.3932009  59.2760038
  97.7454190  58.8822937  58.4736872  98.5011600  59.3734503  59.6896696
  71.6265400  11.4374679   6.5720993  71.4473375  12.2893851   6.1741698
  71.8204196  10.8631175   5.8313107   6.1338025  54.4294119  53.1293869
   5.3249604  53.9952850  52.8582096   5.9008181  55.3560829  53.1862307
  45.8230748   9.4593852  65.9734869  46.2241503   8.7741225  65.4389048
  46.1697575   9.3105834  66.8532038 104.1285760  56.9543791  40.2950001
 104.4423367  57.8063774  39.9918795 103.3630709  57.1583414  40.8322477
  90.9446041  75.7696581  40.5626678  91.4301948  76.5861416  40.6800795
  90.6235878  75.5538797  41.4382362  18.1815811  30.3302138  28.4713078
  18.7864979  30.9231322  28.0254889  18.4223720  30.3928702  29.3956041
  87.5820152  93.0022812  48.6432028  86.7771141  93.4296989  48.9359140
  88.1596486  93.0313396  49.4059181  36.5208340  87.5810337  23.1452537
  35.8867049  86.9444180  22.8153539  37.1756625  87.6489639  22.4504042
  26.1089373  90.7350731  51.7940140  25.9101748  91.2760925  52.5582266
  27.0545912  90.5940819  51.8397856 101.1649333  88.2774162  44.7568178
 102.0496951  88.0654526  45.0543070 100.6007437  87.6630783  45.2264023
  50.8081623  25.4944938  59.5756912  51.0051735  24.8670905  58.8801432
  50.1328763  25.0653689  60.1011133   2.7269751  79.6512461  36.0370374
   3.1470272  79.9829054  36.8306303   2.1270335  78.9737034  36.3488579
  78.4105110  93.0345345  69.7060108  77.7381754  93.1309700  70.3804731
  79.2364120  93.0312443  70.1898575 107.8591596  52.9211521  31.1793852
 107.6629723  52.8104305  30.2490711 108.3004909  53.7689161  31.2318492
 100.0244520 100.7586575  52.4998808 100.1752500 100.2175713  53.2749414
  99.3562619 100.2856541  52.0038748  63.3885924  88.0782032  30.6699347
  62.5922267  88.6041832  30.5965638  63.2523934  87.3513412  30.0621915
  66.9716843  13.4691661  27.0665932  66.1437782  13.6174148  27.5235701
  67.3392876  12.6899665  27.4836659  82.9116960  20.2139889  80.1433903
  83.0439647  21.1200892  79.8646098  82.7186044  19.7402464  79.3343693
  25.6756973  94.3631935  69.3981314  26.0860538  94.9162865  68.7333536
  25.1028943  93.7779617  68.9025068   8.2692748  56.5307999  34.8251176
   8.7763417  56.3420820  34.0354967   7.3605609  56.5575361  34.5255256
  92.4954776  65.2489567  46.9071722  93.2509152  65.8272934  46.8019629
  91.7545811  65.7614756  46.5837097 101.8777673  96.4876842  10.2126658
 102.6730935  96.9072151  10.5408144 101.7513011  96.8626785   9.3411058
 105.3544862  96.4152145  18.3910048 105.1166378  96.5340805  17.4714768
 104.9442838  97.1532631  18.8418376  64.5017954  11.2140165  83.2997435
  63.6613806  11.3914953  83.7221598  65.1253756  11.7736946  83.7624928
  99.6702538  67.0568800  28.3646703  99.0570019  66.6817570  27.7326608
  99.8231707  66.3540316  28.9962125   3.6391246  89.7751045  19.7719347
   4.1967624  89.0253735  19.9797380   3.4472254  89.6795940  18.8390446
  33.3376479  58.4939432  11.7416608  33.3115053  58.3661461  10.7933903
  33.9728355  59.1982460  11.8710005 107.4222372  78.6440468  62.9510069
 107.1085935  79.5358515  63.1011438 107.7825253  78.3716059  63.7949276
  29.5167160  72.4494123  46.8748665  29.1787171  73.2176876  47.3350239
  29.5082164  71.7535973  47.5321341  15.7509303  59.7289896  74.3442822
  15.4637396  59.2373228  73.5748529  14.9590707  59.8317671  74.8721313
  19.5624562   6.9539779  15.8861423  19.0034481   6.2028544  16.0850358
  20.4114684   6.5695517  15.6679058  92.5501828  81.8792725  19.7305524
  92.3262350  82.2438908  20.5867863  93.4277336  81.5152645  19.8473275
  29.4505954  90.6784630   8.8953274  29.1538191  89.7869778   8.7125510
  30.3534508  90.7001019   8.5781240   6.8484771  91.4568138  34.2532563
   5.9478343  91.1326790  34.2499638   6.8997109  92.0295334  33.4880090
  90.0255362  47.6141071  56.9948101  90.4194586  48.2635975  56.4123821
  89.3243424  47.2206545  56.4754295  20.2002144  71.7278051  50.5424452
  19.5021439  72.2904015  50.8777285  20.3484058  72.0368147  49.6486950
  18.6338520  97.1547794  26.8391681  19.1836214  96.6674232  27.4527359
  17.9079032  96.5618706  26.6450334  41.2114819   1.4127868  53.4005308
  40.3178414   1.7557567  53.4036827  41.6595402   1.9054645  54.0880919
  38.7169971   7.4538272  15.0917912  38.0847981   8.0814021  15.4420841
  38.2904147   6.6028254  15.1920581   3.8566768  80.7612991  59.2714357
   3.3902824  81.1514187  58.5321712   4.4161931  80.0929451  58.8758659
  34.3759775  79.2975712  30.7125473  34.0040088  78.4962749  30.3440404
  33.7521434  79.5624065  31.3885117  19.2124867  45.9500599  44.0544081
  20.0453043  46.2992668  44.3717480  18.7578595  46.7093039  43.6895895
  30.2944589  99.7551250  30.9861541  30.5344272  99.8352623  30.0629950
  30.1991558  98.8132954  31.1279702   8.9569670  71.9284868  53.2919693
   9.7956371  72.1595001  53.6913347   8.6329406  72.7501583  52.9230642
  31.8386912 100.1336765  46.7266893  32.4337506 100.5344296  46.0930204
  32.0595145  99.2025089  46.7069530 101.5610097  84.2621613  38.2900453
 102.2266738  83.7705708  37.8089356 101.9201193  85.1467133  38.3596230
  81.3921974  25.2297599   6.7394620  82.2332839  25.4066092   6.3181192
  80.7864015  25.8507211   6.3349229  81.9334404  52.5433922  30.1093030
  81.9325344  52.1125507  30.9640574  81.3728539  53.3102798  30.2270389
  15.4311383  56.1406708  43.7127304  15.2413177  55.9932566  44.6392679
  16.1070585  56.8184328  43.7116051  55.6974284  80.8948231  86.0890675
  55.4711549  81.1195755  85.1865673  55.8660428  79.9528694  86.0662556
   7.0098847  94.7434902  70.1117706   7.8192079  95.2543259  70.0952244
   6.5096933  95.1107693  70.8405733  24.3260058  34.9375289  38.2061076
  24.1855153  34.1770785  37.6420140  24.7339948  35.5877822  37.6343131
  38.3503556  60.8320045  50.4040480  38.5418701  61.7494583  50.2095461
  39.0855551  60.5432749  50.9447384 103.8709353  65.8658409   3.5543147
 103.2393463  65.8734274   2.8351003 103.5643018  66.5498590   4.1495678
  44.2857101   0.2630465  28.5674334  44.1844126   1.0930675  28.1015658
  45.1590332  -0.0435407  28.3234167  63.2282718   1.6511004  25.8605170
  64.0019449   1.0939067  25.7757354  62.6900800   1.4309638  25.1001763
 102.5719808  81.5346909  13.1042242 101.8497477  80.9266663  13.2620919
 102.2468678  82.3790455  13.4166276  14.3631601  68.6078024  33.2162476
  14.0581381  67.9728889  33.8643813  14.4541895  68.1012774  32.4091697
  26.4347959  81.5763664  29.9350834  26.7617869  80.7244873  29.6459317
  25.7621431  81.8050289  29.2936158   0.3163989  84.4677925  27.3856807
  -0.4720303  84.5744228  27.9178858   0.8398070  83.8216400  27.8597665
  87.2098986  63.3718443  19.2230284  86.6321413  63.5102987  18.4725225
  88.0844967  63.2967520  18.8413620   8.3554494  86.5439034  20.8807230
   9.1350341  86.1766815  20.4640388   7.9947007  85.8205795  21.3934588
   1.4303209  82.2262383  24.7240758   1.6437188  81.4452744  24.2134070
   2.2464100  82.4503708  25.1712871  38.0748478  23.2323306  53.7629652
  38.9728441  23.4405559  53.5051346  37.8946114  22.3905032  53.3445549
  13.5465026  88.6392498  69.6764088  12.7817035  88.8984871  69.1624928
  13.5135961  89.1976452  70.4531622  17.2407484  79.3964052  26.7511272
  17.7859557  79.1934395  27.5112486  17.5522387  78.8030434  26.0676599
  86.6777055  95.5723667  24.7867274  86.6006295  95.1874352  23.9137340
  87.5289432  96.0100937  24.7811770  12.1517897  92.3066521  32.1000481
  12.0341587  93.2365131  31.9057226  11.2620103  91.9562340  32.1416616
   6.8624002  57.3461199  17.2915685   7.6430821  56.7925453  17.3094976
   6.3857007  57.0627356  16.5113890   5.6483674  88.2891750  57.4177122
   5.5299914  87.4734497  57.9043388   6.1144060  88.8645077  58.0243683
   5.4108483  78.4094381  38.4489012   5.1262778  79.3186045  38.5419655
   4.6006906  77.9005671  38.4794068  75.6602200   9.8911422  17.7465749
  75.5121573  10.8344024  17.8141165  76.2595089   9.6906798  18.4655309
  21.2014862  10.2382796  57.8029633  20.2714845  10.1548903  57.5923109
  21.3491698   9.5932811  58.4946251  95.5415658  89.3619823  31.4991593
  95.1008264  88.8369751  30.8310723  94.9026052  90.0343990  31.7354321
   0.6559169  44.7978449  20.1954412   1.5092777  44.5910263  19.8143482
   0.2585229  43.9447403  20.3701472  80.5383508  75.1097202  49.9707270
  80.2011196  75.7847166  49.3817568  80.9263341  75.5976868  50.6970787
  89.3539254  61.4084482  28.5183167  89.4614713  60.9484243  27.6858282
  88.6059455  61.9886541  28.3764648  27.5279737  38.6633039  31.7371726
  27.8069925  37.9374838  31.1789918  26.5907788  38.5186791  31.8674827
  73.0598640  73.4300082  51.7384332  73.8902855  73.9039581  51.7831820
  72.7093410  73.4764569  52.6279300   9.1400200  50.8038568  39.1307592
   8.5898519  50.4884148  38.4137917   8.8137567  50.3429699  39.9036551
  94.3314139  64.5167017  22.4739408  93.9342932  63.6964273  22.7666497
  93.7587730  65.1986837  22.8249574  86.8552605  70.0180721  18.9377344
  87.2029750  69.2771196  19.4340384  85.9128086  69.8563337  18.8946271
  96.8786828  73.9552927   2.2594859  96.2323372  73.3722258   1.8613563
  97.7132980  73.6844730   1.8769881 104.4893016  52.5826120  27.5722265
 105.2435501  53.1038666  27.8472424 104.4893275  52.6466370  26.6171694
  82.2417228  68.7103176  45.7624388  82.4486462  67.8462839  45.4062700
  82.4928490  69.3213367  45.0697470  96.9659082  60.0662327  32.0683002
  96.1749057  60.6014347  32.1323681  97.1233479  59.9831438  31.1277986
   4.4140220  47.0031309  47.6501703   4.3456674  46.5740442  46.7972660
   4.5582518  46.2863874  48.2679939  26.3436174  66.5069437  38.5462070
  27.1073413  65.9776115  38.3165050  26.6305733  67.4107361  38.4156299
  96.0186176  58.2644463  56.6420698  95.0743131  58.3863592  56.7403507
  96.1093263  57.3880339  56.2680387  14.1793692  96.9533730  46.2561512
  14.5384133  96.5563869  45.4626036  14.4662488  96.3760376  46.9636869
 102.2098980  23.3455682  41.6954803 101.2610010  23.2929254  41.5812254
 102.5613699  22.7031469  41.0790443 107.8121488  24.1927981  40.7017183
 108.1455243  23.5908175  41.3670826 107.0905480  23.7180781  40.2892113
  61.9930710  20.0056492  70.3005177  62.6024403  20.7373510  70.2029723
  62.3915191  19.4497715  70.9701949  92.6460461  46.1194468  15.9533203
  93.4827368  45.6547070  15.9392643  92.2712342  45.9641886  15.0863469
  50.5165180  11.8901621  82.5225389  50.3904136  11.1649452  81.9106602
  49.7039016  12.3931252  82.4685675  85.7761518  58.6734867  47.0172787
  86.0853378  57.7923679  47.2276735  85.1585404  58.8841724  47.7175665
  30.2837873  90.0267029   3.1560993  29.7192788  89.2922878   2.9148406
  29.6814418  90.6935596   3.4858143   3.4710905  84.1511345  55.1859093
   4.1918480  84.7340870  54.9473572   3.0019486  84.0019798  54.3650007
   8.5036588  59.4552755  17.8165662   7.9748905  58.7332010  17.4770880
   8.9070469  59.8426104  17.0397234  25.3111744  79.6757889   5.3714240
  24.8240232  79.2793179   4.6491200  26.1202145  79.1667986   5.4225624
   3.9928269  84.4304180  36.5506458   3.5894459  84.9520588  35.8568072
   4.5649841  83.8181210  36.0880947  22.8559136  68.2407141  43.2807827
  23.0932331  68.5517359  44.1543865  23.2187152  67.3561335  43.2347250
  20.9625864  87.9330921  33.3473444  21.4331770  88.6867142  33.7034655
  21.6497588  87.3051643  33.1243491  27.6472974  68.0261803  23.2282901
  27.1258259  68.6701298  22.7490926  27.3229480  68.0766106  24.1274476
   9.4608063  82.4723721  49.5368290   9.3889523  81.6385365  49.0723038
   8.8274741  83.0438137  49.1025734   4.2531899  38.2057929  56.0430336
   5.0863004  38.3766437  56.4823151   4.0811369  37.2787452  56.2080002
  24.0182424  41.5447140   7.7868134  24.5048881  41.1095095   7.0868099
  23.6333537  42.3146248   7.3680848  45.8987284  54.1127825  32.7414179
  46.6129637  53.5236359  32.9843330  45.5561638  54.4310045  33.5766506
  49.8362446  55.0905561  23.2081628  49.5773649  55.8241606  23.7658691
  49.0311480  54.5877409  23.0847716  98.6344669  97.4338245  53.3068085
  98.2135330  98.1915665  53.7128544  98.6650942  97.6479435  52.3743677
  66.8778386   0.6039606  85.0024149  66.2073298   0.3482472  84.3689632
  67.5977304   0.9382330  84.4673925 104.6428172  39.0907812   6.1084980
 105.5624628  39.1247368   5.8451903 104.5349569  38.2196021   6.4901304
   2.8077343  55.2806711  43.3880997   2.3137766  55.5341673  44.1678286
   2.4092251  55.7838726  42.6780224  13.4880948  36.8188667  18.0587590
  14.2757142  36.6421223  18.5731995  13.7647951  37.4687433  17.4127483
   1.3419783  56.2104797  19.8058021   1.9946143  56.1858988  20.5055833
   1.8086770  55.8951616  19.0318525   7.9467946  82.8664780  19.1824126
   8.7138259  82.4551964  18.7839854   7.5490671  82.1726322  19.7083652
   5.2811939  91.7655373  30.5510116   5.0619149  91.8955326  29.6283770
   4.4339573  91.7039490  30.9921789  16.1870766  27.6866293  20.7171726
  17.0031404  28.0408907  20.3639460  16.3916409  26.7747712  20.9242988
  15.0506246  48.7591600  59.3803072  14.1589701  48.4809732  59.1710281
  15.6033278  48.0376577  59.0799952 107.4960051  80.6151104  46.0137558
 107.1687381  80.4633141  45.1271391 107.4064254  79.7680426  46.4504290
  78.3922617  79.6943808   2.1001302  78.5146992  78.7541819   2.2315323
  77.5198380  79.8736238   2.4508165  58.3916140  53.7598372  28.4427857
  58.8398027  53.6549854  29.2820477  57.5182438  53.3971024  28.5907006
  91.1250679  52.7305698   7.4487001  90.6119673  52.2913265   8.1269521
  91.0813264  53.6587048   7.6786619  97.5911681  84.9127388   5.9160620
  97.0356969  85.3732395   6.5450430  98.0897431  84.2914295   6.4467585
  89.3292431 101.3642597   3.3457181  89.1222946 101.6628265   2.4601346
  88.4852640 101.1021614   3.7134606  69.4650297  23.0457340  81.9459367
  69.3086397  23.9251982  82.2899061  70.2020361  22.7152239  82.4595666
  30.5240043  -0.2879769  64.2647552  30.0473561   0.2428191  64.9029541
  30.6651070   0.2994864  63.5223198  54.6641620  14.4964927   5.0104290
  54.4452067  14.0663760   4.1838139  54.4422766  13.8516181   5.6820983
 102.7946744 100.9491920  30.7366371 102.3032908 101.7338753  30.4936647
 103.0713720 100.5717468  29.9016500  20.2682972  83.9269733  24.9842238
  19.7560251  84.5568752  25.4912043  19.8078835  83.0957413  25.0995708
 102.3754434  97.4009323  15.6599391 101.6691826  97.0588398  16.2080252
 102.3232858  98.3506680  15.7672298   1.6295503  77.6300812  16.6094828
   0.6960362  77.8416252  16.6037548   2.0454438  78.3925104  17.0119321
  20.1131892  69.1458988  11.6621923  19.8317325  68.5083818  11.0059988
  20.8489370  68.7239695  12.1059108  10.2077460  52.2427177  31.2116814
   9.3237936  52.0199442  31.5036249  10.7095408  51.4362764  31.3303542
   4.1800919  73.2001495  31.3998675   4.0721971  72.5611925  30.6953645
   4.8999554  72.8550625  31.9280195  20.0292492  59.9281073  42.6500654
  19.6479964  59.6245575  41.8262100  20.4103351  60.7801914  42.4380398
  19.3016815  68.6172962  34.4421029  18.6787355  69.1695261  33.9696455
  20.0921941  69.1526556  34.5107913 101.8908660  59.4115067  53.1528902
 101.9537936  59.8959541  53.9760447 101.6349743  58.5270166  53.4144831
  15.1855302  98.5405445  76.7779922  15.0048172  98.1289101  75.9329319
  15.9180200  99.1318417  76.6046238  10.0279617  67.9109240  13.2141888
  10.7719409  68.4856176  13.3943343   9.2595303  68.4386206  13.4316301
  87.0153658  68.2715654  10.7200277  87.3911588  69.1301155  10.9147096
  86.9619314  68.2445478   9.7647017  86.5377204  87.2271061  11.7548800
  86.5815632  86.3712978  11.3283694  85.6161229  87.4783516  11.6935384
  15.7470354   1.0163920  15.4925871  15.4227217   1.8800776  15.2374554
  16.2221106   0.7020991  14.7233295  99.6381662  27.3394442  64.2071819
  99.5306418  27.5471807  63.2790041  99.2126624  28.0640101  64.6656418
  13.8797045  64.5432043  72.1668339  13.1098568  64.8430252  72.6502323
  14.2083228  63.8020086  72.6756287  41.3788652  73.3753157  53.1657410
  41.5699053  74.2493534  53.5060263  41.9119549  73.3047962  52.3738575
  18.4749162  86.2769508  23.4748006  19.2437315  86.7791843  23.7448215
  17.8493571  86.9377613  23.1777620  55.2990015   1.8571990  27.9071760
  55.3474530   2.6077598  28.4992337  54.3646284   1.7546027  27.7264762
   9.7200346  73.3129311  19.4255829  10.5319464  73.2850313  18.9193690
   9.5790046  74.2432928  19.6009982  15.9471488  79.6851826  20.5076957
  15.1083755  79.3500948  20.8245707  15.7116377  80.3124142  19.8240674
  58.7412914  10.3815120  13.9510143  58.6619004  11.3173430  13.7662387
  59.6831735  10.2329867  14.0348780   1.0534396  55.7842064  32.1045542
   0.6342611  55.2681160  32.7931571   0.4860800  56.5478182  31.9985509
  36.1056550  11.4375530  62.5174254  35.3450354  10.8681189  62.4015134
  36.4936169  11.4996182  61.6445774 101.6408090  91.1836243  30.1701403
 101.6369031  92.0009422  30.6683493 102.0065216  90.5369568  30.7737136
  46.0631943  33.5327291   2.6729608  45.6169510  32.7358055   2.9593369
  45.4035282  34.0084028   2.1681768  16.6200662  80.8982372  41.9121790
  16.7819476  81.8296051  41.7619419  16.1189854  80.6157589  41.1470890
   2.1597642  66.0617352  16.9015467   2.3833331  65.3625727  17.5158906
   2.3501651  65.6927156  16.0391068  47.3007794  12.6550143  56.1505699
  46.6022166  13.3091872  56.1676455  46.8444439  11.8199580  56.0472536
  30.4594227   6.1415046   6.9522899  29.6625408   6.6688579   7.0081055
  30.5287918   5.7208770   7.8093147  -0.1692017  75.3124142  21.0010123
  -0.3255007  75.2406883  20.0593877   0.6730043  74.8785591  21.1377358
   0.4978601  67.2308826  28.8544989  -0.2260340  66.8017769  29.3106532
   0.1013222  68.0008888  28.4469628  41.8197646   1.2843268  76.5859365
  42.1104725   1.3530772  75.6765461  41.0183521   0.7627242  76.5424204
  99.0872721  98.5411739  50.3422356  98.3423857  98.6927605  49.7605181
  99.8549066  98.7310982  49.8028898  85.6747572  68.8779163  26.3897729
  85.5215566  68.9159632  25.4456782  86.5906421  68.6125612  26.4732885
  96.0167364  95.8529949  59.0590382  96.1784868  95.7334518  58.1232071
  95.0637810  95.9047985  59.1326904  96.3223700  67.5801373  39.7553635
  96.1694996  66.6962290  40.0893831  97.2038202  67.5466061  39.3836737
  15.4444981  67.2982693  14.9214566  15.2851117  66.5913916  15.5468750
  14.6036363  67.7502394  14.8514342  15.7605660  62.6013756  75.4812527
  15.0556695  61.9555235  75.5285025  15.5561101  63.2301378  76.1734152
  97.7472929  76.9406509  35.3420115  97.7359287  77.0442581  36.2935209
  97.5238232  77.8078413  35.0039721  21.0781264  69.5018816  31.6460538
  20.1775074  69.2772388  31.8798304  21.5799904  69.3421936  32.4453449
  92.0428221  48.5918474  43.5259914  92.2205440  47.9977131  44.2551327
  91.0993223  48.7475395  43.5684013  91.6723879   9.7803634  62.8454590
  92.4417838   9.7311061  62.2781563  91.7358168   9.0048449  63.4029388
  70.8267601   6.5244906   0.3775031  69.9666031   6.7189162   0.7497436
  70.8528026   7.0235675  -0.4388773  82.5548597  14.6446453  85.6947492
  81.8860986  14.9094091  86.3263269  83.3235176  14.4453178  86.2292251
  17.2717190  72.2972059  36.6787696  16.7363548  71.9922495  37.4113131
  18.1215274  71.8773413  36.8120790  94.4826571  55.1094294   8.9715308
  94.6021013  54.8913956   9.8958826  93.6463193  54.7073793   8.7367427
  86.8650357  94.6994686  58.6391354  87.0730535  93.9886284  59.2454910
  86.8762128  94.2880726  57.7749252   7.9353011  57.0100355  47.6979733
   7.3468179  56.8917704  48.4435844   7.4943423  57.6547861  47.1447277
  20.2525902  84.5030975   9.8543572  19.4449484  83.9903545   9.8866743
  20.3237891  84.8929882  10.7256484   8.3101094  93.3981037  25.8445859
   8.4332019  94.3455124  25.9036803   9.1982961  93.0428123  25.8110976
   8.9409387  65.6326675  17.0765769   9.7547930  65.8578968  16.6258585
   8.7656713  64.7282219  16.8167984 105.5043678  81.0936546  10.0391424
 104.6491576  80.9682274  10.4503810 105.5058314  80.4861641   9.2994213
 106.0140425  49.8107862  23.1112313 106.4491836  48.9615917  23.1870747
 106.1517988  50.0699759  22.2001481   9.5307434  44.6083927  42.9034042
  10.0428653  45.4075289  42.7795267   9.7197247  44.3397665  43.8024902
  91.7654375  91.3002205  61.6481590  92.4601344  91.0993195  62.2752714
  91.9411866  92.2010708  61.3764858  72.6925991  30.7353626  81.7062241
  72.7198735  30.9891449  82.6287669  71.7597472  30.7033096  81.4941126
  36.0675168  37.2085881  19.7755861  36.0768032  37.6341224  20.6329465
  35.1919103  36.8280959  19.7065175  28.3429050  49.1066170  40.9477472
  27.3924685  49.0048409  40.9982109  28.4779263  50.0490046  40.8482504
  80.3175418  74.8416090   6.4810449  81.1277954  75.1567268   6.0805172
  79.6742408  75.5238438   6.2888151  75.3137732  78.5915613   5.7888794
  75.6431723  78.6120558   6.6873831  75.4710722  79.4750834   5.4558986
   9.9691349  82.8309059  64.0056896   9.9728376  82.6037979  64.9355507
  10.8947027  82.8677368  63.7644482  14.2702150  60.8341837  26.5029120
  13.7848854  60.0329638  26.3060951  14.5855105  61.1383915  25.6518650
  15.9035027  96.2853050  53.7676430  15.1113415  96.3211536  54.3037653
  16.6201031  96.4050674  54.3908405 101.0554479  76.5744305  13.9480841
 101.9685672  76.5012026  13.6704469 101.0955731  76.5796614  14.9044287
  12.6411128  90.5797100  34.0039492  13.4377265  90.6188011  34.5332026
  12.7661049  91.2509155  33.3330584  16.6693091  65.7635164  24.0410042
  16.6265285  65.4678822  23.1316090  15.7792532  65.6462622  24.3730974
  93.0690746  42.9786015  12.5401521  93.2688407  43.8716841  12.2595608
  92.4077968  43.0846739  13.2240319  51.2674268   0.0079291  20.0056148
  51.8689867   0.7482474  19.9262571  50.4002484   0.4090732  20.0632167
  56.3265737  16.0733169  11.3983262  55.3982790  16.0020965  11.1759996
  56.4938982  15.3246062  11.9707465  47.4087127   7.8726714  26.9280839
  48.1352325   7.9119628  27.5500631  46.7984506   8.5455554  27.2298169
   6.2809888  42.0015465  87.1194720   5.4630891  41.6361271  87.4567282
   6.8225423  42.1347843  87.8974153  76.5826957  46.5916573  69.1427105
  75.6366094  46.5417038  69.2793053  76.9397380  45.8831249  69.6781832
  85.5937966  25.2989946  54.8130315  85.0944730  24.6148573  54.3670863
  85.8447572  25.9052311  54.1160911  20.0067496  91.5178394  43.0807829
  19.9770224  92.4399662  43.3358002  20.9153271  91.3712788  42.8176594
  31.4527440  61.3084507  22.5243664  32.0060444  61.2324858  21.7469883
  32.0677423  61.3002634  23.2578111  22.6884842  63.3154488   4.9953181
  22.8664303  62.4464607   4.6355650  23.5244226  63.7772417   4.9306092
  27.6906457  32.8529876  41.1406040  27.4375942  32.0922606  40.6176472
  26.9883963  33.4872096  40.9962273 106.9194585  47.5680828  24.2575622
 107.2934533  46.7016315  24.0975022 107.0981130  47.7389717  25.1822829
  18.4468790  20.3430884  36.6167974  18.3117147  19.4581073  36.2780237
  17.6050039  20.7800143  36.4880466  12.1615398  86.9180489  21.6799784
  11.4817834  86.4686012  21.1778235  11.8231928  87.8053188  21.8003941
  73.3795277  50.1888691  84.9095729  73.2244801  50.3212772  85.8448058
  72.5965319  50.5394112  84.4849968  23.0287655  18.5209983  27.4508095
  22.8210457  17.7370112  26.9424319  22.2847446  19.1052382  27.3047900
 102.6574258  86.5715122  38.5468411 103.4023098  87.0545578  38.1890011
 102.9648094  86.2510777  39.3948174  74.8051860  39.5208584  66.8991703
  74.1832629  38.8804375  67.2445768  75.5054583  39.5503937  67.5510758
 107.3618015  96.9775963   4.6529007 106.5561188  96.4899254   4.4817901
 107.6910434  96.6151905   5.4753900  53.7904998  10.6015532  41.7608356
  53.8246902  10.4106753  40.8234835  54.0170010   9.7726100  42.1824789
   4.5877045  68.9853764  39.6608973   5.4123318  68.5219717  39.8074484
   3.9277619  68.4418869  40.0913906  39.1630888  63.5800552  13.7121916
  39.4616818  63.7811041  12.8252566  38.5450625  62.8579426  13.5989273
  87.1026333   9.6579974   7.4823326  87.9372653   9.5921081   7.9463071
  87.2223528  10.3895419   6.8767363  16.8096864  94.8259258  15.0383377
  17.6181018  95.2117062  14.7008896  16.6340697  95.3070164  15.8470058
  20.1885819  76.3395357  47.9139519  19.3268490  76.0325241  48.1957197
  20.2569985  77.2240686  48.2733250  16.8198359 100.4108620  37.2108245
  17.3285639 100.2982330  36.4078665  17.2149384  99.7995090  37.8324175
  49.0760764  38.3110087  12.3160303  49.8511334  38.0335658  12.8044426
  48.9030393  39.1998904  12.6261461  93.6704723  73.1061602  51.0907984
  92.9779343  72.5626040  51.4665270  93.6896114  73.8865042  51.6448069
   4.8064044  90.5535412   6.5067625   5.2949709  91.0959053   7.1259296
   5.4238850  89.8691559   6.2487537  85.8328215  89.4985771  68.9721680
  85.1646416  90.1282120  68.7013626  85.6045596  88.6928368  68.5085964
  64.1334121  78.9731884  26.1998391  64.1691796  79.1484165  27.1401834
  63.2424657  78.6575603  26.0487413  43.8772865   6.5706580  45.6216097
  44.7775622   6.7711299  45.3655958  43.9656450   5.9215301  46.3195086
   2.2224472  30.1175976  11.0184145   1.6800493  29.8237228  10.2865160
   3.0959859  30.2236629  10.6417024  13.8971504  35.3864329  35.5954552
  13.6593827  36.2908690  35.3912854  14.8543461  35.3841155  35.5933547
  80.1625840  97.9506683  48.3539820  79.2885486  97.7494717  48.6883736
  80.1325146  98.8859367  48.1524992  64.0197881  14.7322886  32.5098205
  64.0586623  14.2800849  33.3525705  64.2697843  15.6342738  32.7102375
  56.7029246  17.0647185  19.3731058  56.7427286  16.1359542  19.1449654
  57.3504981  17.4793475  18.8030481   8.1574351  27.1517086   5.1547086
   7.9247946  26.5010381   4.4923344   7.3596823  27.6668334   5.2749938
 101.5210984  69.2641973  20.3947759 101.2361614  69.3946791  19.4903326
 102.4769507  69.2523003  20.3454113  52.1547802  19.8434775  37.4428153
  51.5834673  19.8511165  38.2107830  52.9221138  20.3494399  37.7100968
   8.8475990  97.9329586  39.5868444   8.3789068  98.4039783  38.8978624
   9.6608698  98.4243774  39.7023129  58.6314440  65.2710485  78.6326075
  59.0542126  64.4298649  78.4596729  58.0157280  65.0882339  79.3423271
 103.4475131  89.7615433  31.5538049 103.4256659  88.8847828  31.1703467
 104.1224004  90.2236652  31.0566092  12.4870141  20.8825438  12.6636541
  13.3242830  20.4935115  12.4109459  12.6874050  21.3938754  13.4476280
  16.9118261  74.4107676  39.7954392  16.0120201  74.5553923  40.0881243
  17.2612405  75.2902555  39.6517634  44.0828510   4.2496150  37.9614019
  43.8430162   4.5504420  38.8378811  44.9366566   3.8325160  38.0766225
  97.0907299  36.1156988   3.1308839  97.5912098  36.1532474   3.9459556
  97.4052588  35.3248215   2.6929128  93.5142414  83.8867950   0.5953695
  93.6982111  83.1445026   1.1710395  93.6990170  83.5589027  -0.2847297
  30.9234333  88.5570431  36.4659739  31.3693881  88.5325813  37.3125887
  30.2323055  87.8989697  36.5402102 105.3277789  92.8201294  15.5295515
 104.4046311  92.9700661  15.3257167 105.5203165  91.9622040  15.1512265
  88.6577837  78.6276674  33.7212467  88.4644131  79.2066002  32.9839039
  88.8323669  77.7770472  33.3185172 106.9515737  43.4516655  68.1051796
 106.9244655  43.5637318  67.1549481 106.1564763  42.9601227  68.3111638
  21.6437074   2.5490134   9.8358339  21.2001201   2.7055877   9.0021998
  22.3001011   3.2434314   9.8920012  85.0846156  21.1095088  44.7934198
  85.9158429  21.0054057  45.2565145  85.0232371  22.0488112  44.6196842
  98.2311110  70.9474087  31.4685893  98.3215348  70.5462503  32.3329544
  99.0721742  71.3778734  31.3151479 105.1144624   2.4856990   6.1450803
 104.9892378   3.4330028   6.2013495 106.0089827   2.3811953   5.8208263
  23.4594584  57.7209425  64.5166636  24.3030190  58.0794048  64.7925949
  23.3963752  56.8805122  64.9704599  82.5281334  86.8403530  38.9343643
  81.6871548  86.8019867  39.3899012  82.2961903  86.9480896  38.0119610
  62.9699572   8.1749385  59.7593546  62.5434597   7.3239177  59.8598814
  63.7159880   8.1411879  60.3581285  21.2910994   6.4132827  25.6281948
  20.9181460   5.9508269  26.3787079  22.2187193   6.1773723  25.6383228
  72.6835402  21.7968505  78.1240368  72.6926669  21.3948672  77.2553825
  71.7947491  22.1389144  78.2203293  42.8432751  96.2918854  38.7346029
  42.4547672  95.5881882  39.2543244  42.1055079  96.8586159  38.5093307
  96.5787498  41.2598467  16.7193508  95.8636288  40.6263256  16.6602695
  96.3344113  41.9545650  16.1078835  92.7576176  95.8592796  33.7161589
  93.5807494  96.0206890  33.2550383  92.8257589  94.9534416  34.0179062
  62.2278484  16.6891997  19.3366063  62.1607121  17.5595229  19.7293580
  62.1654924  16.0865539  20.0776625  87.7543966  54.1590738  25.4481387
  87.4813978  54.5001316  24.5964456  88.6840872  54.3790627  25.5074143
  28.8648558  61.5944099  35.8990526  29.6333766  61.3587332  35.3793740
  28.8785148  60.9847784  36.6368842  90.7592384  90.8043575  20.7196641
  90.3966264  91.2507534  21.4848256  90.3330902  91.2248230  19.9727821
 106.2133519  54.9515057  61.1344290 107.1473544  54.7558975  61.2093115
 106.1610384  55.6077433  60.4395580  22.3295450  88.2211399  42.6843357
  22.4725413  87.8071976  43.5354710  23.2066178  88.3123302  42.3119688
  36.2089849  83.6790752  38.2997155  35.4945111  83.5390472  38.9211249
  36.6941905  82.8539658  38.3027291  58.8097104   4.5116370  33.8842511
  59.4436797   3.7991374  33.9658475  58.5753211   4.7282069  34.7866893
  38.3683593  16.8495410  17.7117038  38.4847953  17.0656627  16.7865193
  39.1933998  16.4367240  17.9669034  27.3012376  71.5198040   6.3052368
  26.6610384  70.8185816   6.4263129  26.8371844  72.1819639   5.7929534
  79.6414916  77.2955608  37.4795651  79.6745579  77.3558998  36.5248418
  80.3013675  77.9195356  37.7819872   3.1980935  79.3599510  65.3076506
   3.8356349  79.0508556  64.6640396   2.3688813  78.9712858  65.0291252
  28.9373233  13.0871146  33.3634329  29.2931320  13.0122130  32.4779820
  28.0491301  12.7368682  33.2950687  20.8134913  90.6758308  13.3750021
  20.6141663  91.1129379  12.5470889  21.2237000  89.8502731  13.1172931
  65.9803995  10.9262126   7.5877357  65.4300769  10.2699798   7.1602565
  65.9395512  11.6871589   7.0084894   3.6039385  56.0698843  46.5796566
   2.7856815  56.3387012  46.9972944   3.4884810  56.2984896  45.6573534
  14.4752419  78.6011839  56.2446690  15.3069210  78.1303358  56.1913681
  13.9947832  78.1601286  56.9452858  53.1688499  68.1065989  21.4021420
  53.1007338  69.0532732  21.2780738  52.3447943  67.7602625  21.0597825
  94.1182308  38.6429882  51.4632750  93.8394729  39.5235467  51.2119961
  94.9183945  38.7806106  51.9702578  30.4825091  89.4013882  27.9550195
  29.8214579  90.0148964  28.2757258  31.2946081  89.6823025  28.3766961
  17.9300153  85.3932095  30.3157115  17.6957667  86.1306763  30.8791876
  18.2970881  84.7420692  30.9136319  37.1341904   5.8226340   6.9632781
  36.7280047   5.2200740   7.5863099  37.0417641   5.3885215   6.1151993
 104.6800597  38.5045372  83.2544052 104.1273316  37.8953396  83.7439057
 104.1265734  39.2734848  83.1180501  46.8691206  86.1664581  32.9381514
  46.5487957  86.0256481  33.8291049  47.3708582  85.3766632  32.7364016
  32.9160261  96.7443085  71.2727118  32.3415422  96.8260384  72.0339775
  33.5968685  96.1317921  71.5511131   1.9681244  57.4578953  41.7878819
   2.1670246  58.1700563  42.3957443   2.7272081  57.4206638  41.2059593
  93.9308508   6.7349189  41.8990088  94.5033701   7.5012534  41.8644857
  93.0632075   7.0740550  41.6789532  46.8788894  13.5920089  33.7800097
  46.0359665  13.1477015  33.6889052  47.3951288  13.2811110  33.0363226
  23.5383844  84.4536972  33.1713033  23.5742259  84.3507385  32.2203326
  24.4286275  84.7034931  33.4188938  23.1745478   2.1701281  58.5717487
  22.4069782   2.5869697  58.1801939  23.8966545   2.4008315  57.9873085
  64.8003205   0.6075900  12.2003102  65.3426202  -0.1064450  12.5354302
  64.7420319   0.4427093  11.2592208 102.3492472  78.1467342  51.5245342
 102.2241275  77.2136259  51.6974115 101.4929215  78.5388851  51.6952801
  60.9988364  10.5884593  47.5510931  60.8449110   9.8784392  48.1743193
  60.4860457  11.3214629  47.8916693  20.2089524  65.8830833  34.0465188
  19.9194002  66.7953396  34.0329313  21.1178732  65.9246922  34.3437791
  16.5876758  91.2762356  43.0481482  16.2969589  92.1265316  42.7184343
  15.8211863  90.7098961  42.9587936  49.3507322   9.9223750   7.0774382
  48.9718767   9.0671199   7.2805130  49.6733948  10.2471011   7.9180741
  34.0744739  12.4644988  23.5232067  34.1252299  12.0367186  24.3779945
  34.6788772  11.9685977  22.9709339  10.5885705   9.3005221  40.5427980
   9.8568495   9.1770404  39.9381757  11.2842258   8.7432425  40.1939058
 100.7244818  95.8417034  29.8801231 100.7146917  95.3600121  29.0530157
 100.4065100  96.7153263  29.6522880 100.2253566  90.3864574  52.1523333
 100.5792789  89.5095444  52.3006678 100.9356670  90.8616543  51.7212009
  76.2300740  51.9683654  -0.1794642  76.3622783  51.3342196   0.5252344
  76.8164222  52.6931960   0.0374681  86.8688433  92.6420975  29.1118097
  86.3264934  93.4253693  29.0191865  86.6583888  92.1127129  28.3425927
  10.2289891  92.9121494  17.5705016   9.6367031  92.8928471  16.8187988
   9.8832572  93.6075687  18.1300449  79.8886172  93.4624004  51.3025045
  79.5526974  94.2620754  51.7073584  79.1923968  93.1846142  50.7072353
  13.4556878  73.5726452  76.9146729  13.8376927  74.3001080  77.4056959
  12.9908550  73.0568552  77.5735521  46.1428627   0.4183047  74.3774605
  45.3251853   0.1776164  74.8130131  46.8084057  -0.1238687  74.8009396
  27.9448142   0.4669707  25.6899548  27.5453301   1.0268062  26.3557053
  27.8700908   0.9691279  24.8784804   6.8611819  60.1659250  20.3023148
   6.9393557  61.0998917  20.4967976   7.3265290  60.0541210  19.4733500
  38.0098963  91.3885403  42.2167349  38.7779284  91.3512611  42.7867985
  37.3736358  91.9101906  42.7058983  39.7701216  86.5281296  34.8166490
  38.9682817  86.0277367  34.6653438  39.9084067  87.0110703  34.0018630
  62.2067611  77.5402260  15.6525695  61.8265502  78.4138250  15.5603826
  62.7242390  77.4190044  14.8564827  63.6782285  19.1296087  63.8422745
  64.1382035  18.9570795  63.0207604  64.2063036  19.7996841  64.2762941
 106.0332417  71.4448404  31.7047024 105.5459936  72.1987343  31.3723421
 106.5294404  71.1285925  30.9497142  19.8624396  95.8071613  31.0108662
  19.5415223  96.5757370  31.4826059  19.6765196  95.0723934  31.5954971
  34.0907288  73.6468792  68.7282658  33.2413101  74.0636158  68.8733530
  34.7265029  74.3536043  68.8403320  60.8571990  13.8305228   8.6601686
  61.1006006  12.9504340   8.3730727  61.5162190  14.0595000   9.3155295
  19.5240736  78.7793970   6.5797782  19.0801430  79.4989347   7.0285803
  19.5853937  78.0876923   7.2385752  36.6630173  93.2644463  13.3914983
  37.0753813  92.4726963  13.0460739  35.7236338  93.0898666  13.3339572
  19.1571105  35.5653524  14.7128820  18.2909381  35.9435868  14.5614970
  19.1266906  34.7144842  14.2754734  31.7640400  72.2699547   4.6720731
  31.7928886  71.7564583   3.8647807  31.6163945  71.6232395   5.3621411
  19.6026921  45.5728388  11.8980801  18.8962531  45.6035376  11.2529182
  20.0445843  44.7405529  11.7299652  77.0473965  28.1035846  28.7354875
  77.5928315  28.8765948  28.5898995  76.8560942  27.7764361  27.8565049
   4.1428265  48.0853558  29.1182208   3.3534923  47.5451756  29.1554785
   4.0197736  48.6362600  28.3451772  11.8452954  67.8107405   6.9468248
  11.7348897  67.1401024   7.6208293  11.4116585  67.4478006   6.1745143
  35.7621861  63.0370760  48.4197283  35.7367444  63.6694050  47.7015734
  36.1922312  62.2677469  48.0463362  14.8127401  51.5904903  14.0697634
  15.0328767  51.5050840  14.9973822  14.4737709  50.7297754  13.8238072
  33.7169173   8.6924785  32.9037142  34.0372673   8.8662951  33.7888122
  33.3735865   9.5341056  32.6036811  98.2615827  61.8659401  20.4349232
  97.3723606  62.1949625  20.5662966  98.8175009  62.4800825  20.9145236
   4.6890858  97.0238590  25.3564715   5.6395602  97.1249962  25.4074740
   4.5586589  96.1094666  25.1052737  24.9041462  75.2133322  47.3219919
  24.5126152  75.7936144  46.6691446  25.4361081  75.7918787  47.8683758
  14.8322618  90.4666805   8.2364190  15.0435627  90.8181667   7.3715252
  14.7502637  89.5230961   8.0979937  16.4924061  76.7258787  43.3216381
  16.2339818  77.4557543  42.7588511  17.3610628  76.9672728  43.6431932
  77.0586936  83.4419250  61.1843967  77.9943864  83.6206722  61.0908079
  76.8418495  82.8979969  60.4271936  25.3463125  84.9028015  19.6175444
  25.0489998  84.2597389  20.2612114  25.9881020  85.4341793  20.0886893
  40.2872705  96.8470764  17.8836155  40.5678034  96.7930984  18.7971902
  39.4088840  97.2251987  17.9247391   8.4715557  52.7028561  47.2929096
   9.0928811  52.8686094  46.5838909   7.6111174  52.7943850  46.8836451
 100.3158341  72.5580549  30.4506421 100.7820241  72.3868465  29.6323586
 100.9536539  73.0155516  30.9984684  92.9799895  89.1259098  20.7991242
  92.6812677  88.2237053  20.6849432  92.1961657  89.6056557  21.0668731
  74.3266138  21.2009185   8.6060214  73.5919221  20.6394046   8.8533372
  73.9171108  21.9734137   8.2164305 104.2388363  73.1522131  22.6428771
 104.0836088  72.9561615  21.7189193 104.7868017  73.9369774  22.6324320
  18.6753976  46.3497448  22.1832371  19.1232646  45.8264494  22.8479242
  19.3201542  47.0069361  21.9212794 103.2354341  16.2145221  41.2045240
 103.9217923  16.0140204  40.5681753 103.2903973  15.5070889  41.8469810
   4.6513778  85.9531498  59.6961117   4.5064935  86.8592644  59.9684954
   3.9611402  85.7824039  59.0552902   7.4301994  81.4885807  23.4223890
   8.0214024  81.0806370  24.0550709   6.8897223  82.0798588  23.9463234
  12.8125679  67.9267406  63.1109953  11.8621981  68.0395794  63.1282234
  13.0264747  67.8383970  62.1821976  33.0921388  71.6080332  46.2445879
  33.1762338  70.6809187  46.4673328  33.9840841  71.9503784  46.3035011
  17.8935432  51.6539669  66.5461636  17.1598566  52.2148752  66.2945318
  18.3494842  52.1474695  67.2279263   4.2899126  59.1840506   6.4142871
   5.0802952  59.0176249   6.9279313   4.5608777  59.0468788   5.5065459
 106.1427270  57.2748566  32.8876853 105.9213709  58.1400108  33.2322764
 105.9676766  57.3390245  31.9488168   1.7789447  64.9741077  47.6550913
   2.1399710  64.1902876  47.2409391   1.1700685  65.3285313  47.0071077
  55.9194871   5.8909171  42.6958942  55.4954227   5.0330298  42.7164364
  56.8458088   5.7039111  42.8481817  18.8540316  62.2054243   3.4275132
  18.7688804  61.6417599   4.1964477  18.5629463  63.0662966   3.7281862
   5.6288171  93.5341835  60.0775909   6.0956228  94.1028214  59.4652414
   5.0472742  93.0126572  59.5243692  90.9210305  93.8763905   8.2330155
  91.6730611  93.8514137   7.6413584  90.1730542  93.6525917   7.6792312
  22.5150939   4.5355838  81.7987633  22.6577600   4.0215819  82.5935459
  22.2162481   3.8972514  81.1511135  93.5164623  91.4219952  33.0100751
  92.6444952  91.2235737  32.6687050  93.3546857  91.9815254  33.7696719
  41.6070175  85.5909061  36.6450763  41.3885927  84.9917412  37.3588896
  40.7826853  85.7129574  36.1741042  43.8579702  57.6125622  18.0104566
  44.7733641  57.3396969  18.0723357  43.3879614  56.8183708  17.7563274
  72.3939308   3.2636111   9.7659647  73.3319386   3.1032508   9.6627337
  71.9837626   2.4218314   9.5674425   9.0413588  85.6356716  50.8850718
   9.1129392  86.5888882  50.8353424   9.9065387  85.3167820  50.6281471
  91.2439827  71.1897373  20.3608584  90.3997092  70.8845282  20.6929445
  91.1550848  71.1506939  19.4085956  27.2884011  85.9465504  38.7503481
  27.1056294  86.8795300  38.8615894  27.7353239  85.6921196  39.5576620
  99.2290036  84.1018772   2.7100360  99.4618354  84.8629379   3.2418305
  98.2976316  84.2171860   2.5216737  66.0326936  30.5879246  79.4401633
  65.3641274  29.9523960  79.6958232  65.8143004  30.8147846  78.5362440
 106.4274159  86.6627979  40.3726292 106.4649020  87.4499702  39.8293257
 107.2689435  86.6460896  40.8284664  65.5355660  75.1357794  32.2025180
  65.4137151  74.2971849  31.7573881  64.8921315  75.7175016  31.7977619
  10.5815446 101.0159874  27.5974727  10.2476299 100.9113598  26.7065263
  11.5331352 101.0355091  27.4958587  97.5527756  97.6756001  60.3578234
  98.0693428  97.0910549  60.9125185  97.0352868  97.0880127  59.8072100
  33.7579966  95.0926208  63.0753565  33.6367726  95.8797264  63.6063814
  34.1527343  95.4100800  62.2631788 106.4107212  69.4670534   5.6668901
 106.1445847  70.1474190   5.0484186 106.2599058  68.6457491   5.1989782
  10.6315184  78.0911303  29.4169950   9.8437804  78.0062914  28.8798714
  11.1844754  78.7065840  28.9356518  61.4230689   9.7528594   3.5407677
  61.1376341  10.3794520   2.8758258  61.8098529  10.2938025   4.2292550
  49.1079887   3.9175933  63.8892841  49.1322478   4.7408622  64.3770123
  49.7002419   3.3379024  64.3682623  97.8271095  93.1072235   6.1394876
  97.2393648  93.2941055   5.4074603  98.1249021  92.2107887   5.9847248
  27.4220729  97.1606445  39.1274977  27.0428729  96.5220737  38.5236263
  26.6729307  97.6659489  39.4432330  22.7599823  98.7401288  84.0999615
  21.8218374  98.8578742  83.9507869  23.0468225  99.5676797  84.4861132
  66.2334331   0.7728236  36.0436988  65.4164823   0.8105319  36.5410972
  66.8519648   0.3391593  36.6315627  93.6117725  52.1998882  55.4106140
  92.7531735  52.5136805  55.1267576  93.4388201  51.7382908  56.2311316
 104.5397906  81.5297794  51.6099358 104.8583088  80.6330967  51.7136145
 104.8355601  81.9818783  52.4000978 103.2567191  31.6372626   4.8853803
 103.3458495  30.8324950   4.3748620 102.4661279  31.5030234   5.4080445
  33.8410449  91.6805458  43.9885139  34.6087265  92.1709347  43.6945391
  34.1213560  91.2622070  44.8025465  16.0817289  72.9744005  53.1818199
  15.8839774  72.1391821  52.7581024  16.8824363  73.2767439  52.7532339
  53.9423128  16.5650027  18.9578390  53.4020849  17.3419421  18.8138092
  54.7569176  16.9049685  19.3280721  29.1362119  87.6264572  32.2036362
  29.7956371  87.0825100  31.7729259  29.2110324  87.4038696  33.1315827
  37.2534251 100.6124210  38.5780549  37.2415519  99.9693203  39.2869401
  38.1533027 100.9384537  38.5654926 102.0414790  51.8331467  80.7115245
 101.3373860  51.4153133  80.2156335 102.1847041  52.6684891  80.2666479
  66.1459859  33.0271190  26.3522768  66.8026956  33.7075465  26.5005326
  65.3114708  33.4527820  26.5488219  57.0577002  80.8649254   4.7369233
  56.2924576  80.5583096   5.2233601  56.7052174  81.4945507   4.1079822
  51.6483947  29.1925185  32.1522498  51.5379580  28.5599559  31.4423895
  50.7833739  29.2507117  32.5579405  73.8942345   4.2298835  70.4301214
  73.5884317   4.9688666  69.9041796  73.1932958   4.0813106  71.0648203
  36.9014826  10.2640288  32.3231196  36.9603484  11.2194007  32.3168468
  36.7126826  10.0416797  33.2347918  96.9505199  40.8874832  84.6155470
  97.7356394  41.3946377  84.8219844  96.2241038  41.4733826  84.8283118
  94.4719426 100.4115391  42.0330858  94.0803282  99.5528412  42.1928215
  95.3285782 100.2171040  41.6528130   4.7288886  79.3459702  42.4889898
   4.1442788  79.3889761  41.7322779   5.5888820  79.5815754  42.1409512
  86.0934409  25.5544322  29.4965696  85.4475125  26.2471145  29.6351027
  86.0186919  25.3397124  28.5667634 104.5062588  66.5248585  48.0711412
 104.5396365  66.0275269  48.8883209 103.8717322  66.0546207  47.5303221
  45.7049163  14.5205062   5.3076953  46.2973209  13.7982028   5.0989699
  45.5418505  14.4327968   6.2468153  82.6081952  22.1229785  36.0612965
  83.4870823  21.9005340  36.3683891  82.7469214  22.8267234  35.4274750
  33.6220186   3.7024730  51.5123844  33.0552404   2.9319995  51.4754343
  33.1187843   4.3463176  52.0108366  18.0426919  90.4688168  45.0759649
  17.4013162  90.8751965  44.4931078  18.8886845  90.6571770  44.6696997
  34.5548662  18.2012885   4.5557460  33.7458923  18.6993735   4.6728098
  34.3219059  17.3053878   4.7993231  14.6700966  94.7970963  48.2331133
  14.2435288  93.9538383  48.0808306  14.4022012  95.0446701  49.1180801
   0.1160851  90.6453896  27.1337342   0.2232737  91.5901279  27.0232296
  -0.1977276  90.3388119  26.2829924  51.7053755  12.5021022  44.0755796
  52.4707123  11.9596045  44.2657995  52.0688256  13.3585780  43.8506508
   4.7520524  87.4817371  34.9882698   5.0340974  88.3779240  35.1713824
   4.0379605  87.5793552  34.3583703  21.5049481  90.8071995  79.6020412
  21.2054324  91.6003704  79.1577482  22.3271704  90.5841923  79.1656351
  16.7014694  63.2041883  73.0202150  16.3582289  62.5157022  72.4506474
  16.3082349  63.0264091  73.8746071  88.1953255  85.0281525  35.8706212
  87.3726122  84.9906063  36.3584375  87.9279939  85.1412296  34.9584913
  34.0731240  32.7779239  25.3321457  34.8723490  33.0015700  25.8090663
  33.8221875  33.5896628  24.8913002  65.6857570  30.2647822  26.3296461
  65.7215556  31.1750262  26.0356879  66.3143834  29.8077529  25.7709146
  15.7838655  96.6410732  19.9417055  15.6571460  95.6960583  20.0261378
  15.1953530  97.0208836  20.5941081   2.9551357  89.3589401  16.8492532
   3.0356076  88.4345818  16.6140807   2.0559515  89.5883846  16.6146076
  61.5063604   5.9400409  41.6602755  61.7344268   6.8668311  41.5875244
  61.3846334   5.7962935  42.5987577  43.7050357  23.2974093  29.6166348
  42.7782055  23.2090228  29.3943596  43.9054080  24.2178195  29.4465828
  52.1599611   8.4473174  46.4717150  51.6157409   8.2918017  47.2436428
  51.5363284   8.5152953  45.7487392  43.8208427  33.0240100  58.3349895
  43.9398315  33.0368941  57.3853016  43.6140694  33.9304297  58.5627794
  51.8404611  53.2588809  21.5716505  51.4887091  53.2201236  20.6822705
  51.3371714  53.9523833  21.9982553  92.7030567  93.8972187  26.7435598
  92.4527292  93.0096817  26.4869499  93.6420659  93.8396263  26.9201303
  18.0356777  74.5671368  17.5325263  18.8812447  74.5153427  17.0869184
  17.9616511  75.4831982  17.8000700 106.6933306  50.0405823  79.0724694
 106.2024148  50.0214325  78.2509660 106.4682039  50.8834015  79.4664299
  53.7564929   0.4640716  32.5597143  53.7803002  -0.3474385  33.0667758
  54.4887503   0.3859752  31.9482136  15.3299224  72.8083181   9.4605118
  16.1508775  73.1598854   9.1160387  15.3028917  73.1092548  10.3687727
  45.2911901  87.9912853  13.3708847  44.9096823  88.8295078  13.1099784
  46.0847187  88.2283306  13.8508344  17.2547563  14.1309302  36.6469288
  17.2423037  13.3796733  36.0538983  17.5838359  13.7780707  37.4736238
  42.9600620  96.1618423  19.8642337  42.9826403  97.1152878  19.7826719
  43.1996870  95.8413219  18.9947033  46.6098102   2.4969809  21.7378211
  46.6465624   3.3767837  22.1131015  47.1247800   1.9585555  22.3387623
  44.9006796  93.2910824  27.0233035  44.1745377  93.1027031  26.4287734
  44.6334028  94.0868664  27.4832153 100.9197243  74.2180668  76.7165965
 100.6219133  74.7327648  77.4666804 100.6948026  73.3151852  76.9411951
 101.0023745   9.5381206  14.2981899 100.9194287   9.5332091  15.2517772
 101.6467246   8.8556617  14.1102993  93.0363707  75.9018803  26.2072039
  93.1943206  76.3993835  25.4048491  93.2866816  75.0048590  25.9860134
  36.0821258  12.9839652  39.4665170  35.6109433  13.2155173  40.2668953
  35.3940448  12.7619689  38.8392282  12.0747757  75.9357500  30.9850049
  11.4431763  75.6372404  31.6393805  11.6285563  76.6497469  30.5296755
  40.5859693   0.4458182  11.4077818  41.3192292   0.5543273  12.0134127
  40.8905860  -0.2068765  10.7773590  23.9984608  88.4002495  17.5111520
  24.4284296  88.3193493  16.6597915  24.7177434  88.4118652  18.1426013
  41.5673341  26.3293879  65.1460171  42.0051100  27.1390479  64.8832750
  41.5437093  25.8002704  64.3487072  94.5183667  42.1988147  14.6666038
  94.5266779  41.2416690  14.6602345  94.1285094  42.4405425  13.8264799
   2.6569426  82.8261375  43.7455893   3.0507281  82.0528984  44.1496468
   3.3503652  83.4857178  43.7646198  67.8175815   7.8158420  86.5221691
  68.7173923   7.7370971  86.2053585  67.8176197   7.3541587  87.3606682
  45.1017787  34.2025035  28.0541348  45.0541874  35.1582950  28.0333209
  45.0540241  33.9402430  27.1348047  14.5207953  92.4830246  28.2251048
  14.6986687  92.7568245  29.1248965  14.1876960  93.2713032  27.7962852
 104.2109702  93.9548683  22.3301649 103.8002129  94.7598362  22.6456785
 103.8656200  93.8408852  21.4447451  24.5799494  71.9308662  50.8138418
  24.7770333  71.6813612  51.7166901  24.3722582  72.8639603  50.8631134
  22.9540205  66.4082336   6.3906312  23.1429982  66.3163328   5.4567826
  23.3195305  67.2609663   6.6261786  41.5729096  30.1888888  75.8744669
  42.0702656  30.8653109  76.3341665  41.2054392  30.6376403  75.1130056
  87.0336533  94.1729355  17.5613546  86.3124657  94.7870636  17.4236774
  87.2280979  93.8322163  16.6882336  44.6400227  20.9376281  71.4455652
  44.8726787  21.8610995  71.5420008  45.3335031  20.5720084  70.8963490
   8.6741948 100.1573181  17.3504221   9.3822765  99.5353985  17.5179362
   9.1038358 101.0126305  17.3412204  44.1276594  11.8362086  17.1819353
  43.2696017  11.4244311  17.0799208  44.2505380  12.3367446  16.3753378
  77.6604940   4.5026671  86.2298682  76.7971312   4.9140535  86.2698172
  78.1548067   4.9139200  86.9389225  71.0371741  20.9668582   3.1662759
  71.9841584  20.9147494   3.0369031  70.8935889  20.5957454   4.0368438
  50.3819307  25.8594077  37.0620108  49.4294425  25.8558791  37.1568060
  50.6667884  25.0444453  37.4754405  99.2219265  20.6631225  31.9159961
  99.2680748  20.1420348  32.7175975 100.1360234  20.8115142  31.6738343
  15.5702543  68.0672026  11.4752924  14.9419284  67.6144409  10.9127581
  15.2463424  67.9191780  12.3637748  30.7949781  84.0053272  20.0184822
  30.7468605  83.5739231  20.8715987  30.0912046  83.6052322  19.5077360
  10.3966343  82.2950554  17.4419737  10.6859136  83.1991291  17.3187137
  10.3875101  81.9240856  16.5596271   0.5675616  88.0540943   1.5870497
   0.5600553  87.1269226   1.8248053  -0.0219541  88.4678173   2.2175545
  31.4979935  68.0036449   6.0780263  30.8221698  67.8158188   5.4267061
  32.3224735  67.8223801   5.6267965  68.9391311   8.7205832  41.4335299
  68.3295640   8.9579337  40.7347298  69.4180306   9.5285075  41.6182804
  78.3633955   1.9537299  76.5403748  78.4002837   1.1149924  77.0001459
  79.0728148   1.9069426  75.8994579   1.4302832  90.1868439  44.4545507
   1.7157906  91.0481739  44.7592402   0.4816722  90.1898670  44.5824575
  49.5221754   0.0385135  59.9673653  49.1932388   0.6533759  59.3116379
  50.1233586   0.5572932  60.5018616  32.5780874   4.5625537  33.6044240
  32.4261024   3.8550418  34.2309761  33.5272498   4.6862643  33.6084604
  22.1582723  73.4443617  32.1186590  22.8418016  72.7795696  32.2027326
  21.5923142  73.1187916  31.4187098  64.5861395  14.2694896  63.5427094
  64.8435696  14.7228759  62.7399635  64.2239674  14.9576514  64.1008282
  53.7352467  73.7930775   2.4436305  52.9991007  74.3736029   2.2504696
  53.5573196  73.0028391   1.9336316  38.5564375 101.2020779  29.1000152
  39.1803217 100.6927109  28.5827661  37.7003169 100.8480930  28.8592219
  27.3696995  89.2865086  31.3822842  27.9637218  88.5620022  31.5783668
  26.5285134  89.0120888  31.7474270  28.1455227   1.4761298  21.1307573
  29.0150507   1.1887973  21.4093089  27.6197865   0.6762641  21.1237621
  83.9512213  21.5632670  68.0996799  83.5904940  22.2007029  68.7159491
  83.1950816  21.0487788  67.8172207  33.3679199  64.2460966  15.4880643
  32.6300454  63.7323380  15.8164310  33.6839318  63.7541103  14.7302270
  51.1204418  15.4816478   3.4429374  51.7778989  16.1695712   3.3392587
  51.2179705  15.1918738   4.3499944   0.5015142  96.1780548  39.8309588
   1.1395682  96.4235592  40.5009222   1.0186088  95.7336330  39.1591477
 106.6637802  87.7623272  27.1353889 107.4626977  88.1554127  27.4867392
 106.8583572  87.6102352  26.2105966  28.8600183  90.7946301  51.6581440
  28.9902163  91.7416286  51.6083479  29.3955994  90.5179977  52.4016905
  12.4981272  72.6022100  23.2038808  13.0959463  71.9548845  23.5777950
  12.8952146  73.4465361  23.4175801  31.5940714  87.2252464  33.9608264
  31.3362169  87.7360153  34.7281981  32.1017671  86.4964771  34.3177319
  76.6035708   6.3334411  11.3226807  76.9232520   6.9722503  10.6855369
  76.5275343   5.5181544  10.8269382  21.1749506  60.5303431  25.3882766
  20.9976840  61.1249065  26.1171818  20.5591726  60.7976675  24.7059369
  49.7351789  66.2895727  15.0267994  50.4996729  66.3912058  15.5937624
  49.7882462  67.0268869  14.4187033  90.3311547   8.3068126  55.5969667
  90.6018980   8.5195678  54.7038460  90.3021534   7.3502582  55.6170082
  40.6068035  10.0171512  30.0763273  41.4294060  10.0652450  30.5634046
  40.8685561   9.7781413  29.1871762  90.3682737  69.3881798  26.2291908
  90.4043536  69.9441099  27.0075679  91.2541632  69.4234753  25.8683777
  10.9198165  71.4760876  76.3321209  10.1989174  71.8919611  75.8592701
  11.5085101  71.1639404  75.6449270 104.2891463   4.7683948  41.8515968
 103.7481984   5.4150527  42.3048449 105.0211438   5.2738898  41.4982033
   0.3936759  85.4748535  47.7999067   0.9741344  85.1642704  47.1050406
  -0.1566625  84.7197342  48.0076313  47.6733828  60.9271908   4.2933908
  48.0468369  60.5214405   5.0757802  48.3969641  60.9507513   3.6672026
  79.6937998   1.8390220  11.7261410  80.5292185   2.2743266  11.5563977
  79.0467652   2.5439399  11.7000365  66.4291366  20.2805274  49.8264694
  65.6169184  19.7770637  49.7711754  66.3062080  20.8508628  50.5853033
   9.2418838 101.1874866   1.3527595   8.7550324 100.3655052   1.4124264
   9.0820128 101.4963531   0.4609788  54.7770568   2.7066749  33.9266229
  54.6507557   2.5769179  34.8665380  54.5553740   1.8612998  33.5362101
  73.5330828  24.4697802  39.5404387  73.4175333  25.3219264  39.1200399
  72.6537188  24.0923350  39.5623970  15.9677958  96.3240814  34.1609216
  16.8873537  96.5896797  34.1507959  15.7001138  96.4225006  35.0746465
  51.2254425   3.4492915  39.1574454  51.9844624   3.8666575  39.5647883
  51.5971216   2.7546447  38.6137986  62.6100302  77.1282816  12.6958406
  63.2483530  76.4182091  12.7634847  63.0027342  77.7453613  12.0784092
  34.2992356  36.9735377  31.0139227  34.4440742  36.0921328  31.3579822
  35.1769717  37.3016017  30.8185172  66.6014870  16.4980452  41.3402271
  66.3378700  16.6503852  42.2477102  66.3673266  17.3062365  40.8838987
  36.8410563  99.5528507  56.6542768  37.0222759  99.5136356  55.7152081
  36.6508603  98.6473560  56.8995190  48.7669706  94.4545555  38.8326025
  47.8898764  94.5335484  39.2076969  48.7368488  93.6459351  38.3212662
  34.6656728  98.7747669  36.1150932  35.4855704  98.2894802  36.2072706
  34.8793221  99.4956303  35.5226874  10.5701534  37.0618759  74.3257469
   9.8739234  37.2287689  74.9610728  11.3117305  36.7679058  74.8547810
  89.1482584  28.0604887  38.9347100  88.7148456  27.8744340  39.7676373
  89.0175216  27.2677851  38.4143639  15.5956471  18.7328231  18.0204725
  16.3953733  18.8182652  18.5394788  15.0698483  18.0888939  18.4949434
  91.4485149  18.0184340  21.1837292  91.4948801  18.1166935  20.2327156
  91.5963511  18.9011192  21.5232062 103.4399606  57.2011232   0.9313117
 104.3245147  56.8486595   0.8335066 103.3938940  57.4823999   1.8450908
  42.3824739  37.5032640   7.0267743  42.5401211  37.2693300   6.1120868
  41.6643667  36.9322371   7.2996938  97.9971169  27.0189023  32.9058957
  97.9568772  26.7258549  31.9955468  98.3942853  27.8886151  32.8602123
 102.6576809  53.4212780  18.2209802 103.2923163  52.8181458  18.6078930
 102.4669031  54.0482235  18.9186704  27.0057845  77.6195002   7.2880495
  27.9189110  77.4838209   7.0350242  27.0523953  77.9496622   8.1852967
 105.9379394  50.4903269  20.3501654 106.7908761  50.0765896  20.2176785
 105.4366652  50.2617025  19.5674229  73.3887355  24.7274494  30.6580877
  73.9444773  25.2597094  31.2273717  73.7055651  23.8328171  30.7825279
 106.4524908  52.1756935  14.9902308 105.9975183  52.1144199  15.8301568
 105.8023379  52.5439548  14.3919671 104.1327008   5.0562750  82.7709144
 103.2178315   5.0813709  83.0513024 104.0893610   4.9282347  81.8233072
  98.1366227   7.9511338  35.5669355  98.5701547   7.9790735  34.7139978
  98.0279271   7.0178932  35.7499075   4.2672673  52.4178743  17.9791296
   3.6319974  51.8308687  17.5691426   4.6447137  51.9022131  18.6917734
  77.3937027  28.2608485   1.4305042  77.0134417  29.1216636   1.6055150
  76.6922681  27.6428509   1.6361740  23.0189133  11.8881428  16.2680650
  22.1903801  12.3674536  16.2631798  22.7889109  11.0091770  15.9668195
  95.7241217  43.7842035  42.0896626  95.5758528  43.3978415  41.2265491
  95.9053985  44.7069597  41.9110823  74.2569019 101.4227458  42.9817677
  74.9194988 100.8406077  42.6098633  73.4269330 101.0902620  42.6399517
  74.5675421  36.9106913   2.6604673  73.6229229  36.9301367   2.5070086
  74.8957968  37.7023554   2.2341502  90.7836966  43.1644440  46.7194605
  91.3104050  42.9203939  45.9583759  90.1167123  43.7552118  46.3696671
  95.3050892  44.4703817   4.2411688  96.1455552  44.7898340   3.9128432
  94.9575154  43.9344692   3.5282728  15.2842081  38.7604237   2.9221046
  15.2231157  39.0765858   3.8235146  15.0841808  37.8262663   2.9818621
  16.5686226  56.7329884   8.2757264  16.5510440  57.6636457   8.0525708
  15.6548023  56.5127039   8.4563911  12.9740095  87.3301833  80.4330533
  13.3542061  86.5114992  80.7515478  13.6766243  87.7403062  79.9287075
  69.8276973  91.3028424  70.8969241  68.9037180  91.1732476  70.6831544
  70.2146554  90.4302352  70.8258539  71.3695661  61.3678122  16.6767776
  71.7957370  61.3234186  15.8208334  71.7950002  62.1028423  17.1183252
  75.7159082  72.9447746   5.6824863  75.2584140  73.7004089   5.3137714
  75.0166694  72.3461580   5.9450799   0.6596816   9.0446514   1.0174582
  -0.2215646   8.9520079   1.3794723   0.7893281   9.9899995   0.9416885
  19.5445657  92.8256600  57.5315374  18.7123060  92.4409621  57.2566074
  19.4779539  92.8846019  58.4845966  39.7805595  30.0054622  49.3816805
  39.2327857  29.4220114  48.8565493  39.2195296  30.7586265  49.5666695
  70.9344045  65.8015680  12.0437407  70.1049582  66.2276363  11.8275976
  71.3507811  66.3923979  12.6712596  94.1613921   8.8692366  66.9298881
  94.4790634   7.9856812  67.1160310  93.3322366   8.9305245  67.4042052
  93.3526139  51.9497967  23.0472159  93.3403282  52.1126080  23.9903879
  94.1319005  51.4119053  22.9071450  98.1381659  91.8884182  12.0696568
  97.7088134  92.6870155  12.3764741  98.3621113  92.0722485  11.1573577
  14.1289318  64.1026974  47.9902315  14.4806695  63.2159710  47.9113436
  13.2669938  64.0561438  47.5765562 100.9828119  57.5311184  41.3069820
 101.3808368  58.1253815  41.9431067 100.2396337  58.0205727  40.9543419
  93.1723603   9.5086752  79.2145401  92.5155171  10.1839672  79.3841606
  92.6640232   8.7389027  78.9590406   8.3159554  20.4042768  41.6945028
   8.6890751  19.7809184  42.3177481   7.4191135  20.5406523  41.9999647
  25.7271457  53.2389879  28.4133601  25.8542681  53.2629490  29.3617773
  26.0169601  52.3640966  28.1548929  34.7876365   6.1763995  29.3538666
  34.8420919   6.7753737  30.0985146  35.6010064   5.6731551  29.3913078
  93.6530916  39.5104957  32.9134345  93.4373776  39.7843146  33.8049054
  94.0853910  38.6632895  33.0210924  98.1613414  40.4455471  14.2492843
  97.7572684  40.1117992  13.4483039  97.6390867  40.0671911  14.9566245
  95.1462523  41.6813135  55.7912350  95.8917753  41.6760635  56.3915682
  95.1486842  42.5610495  55.4140186  94.9495582  58.1143856  18.3352029
  95.5157058  58.5551882  18.9687669  94.6023802  58.8215876  17.7915442
  61.2087790  43.3508492  -0.0309860  60.3085009  43.0262423  -0.0499392
  61.1756007  44.1155720   0.5437595  97.3316924  79.4525242  21.2587953
  96.9448833  80.2002335  20.8032322  97.9905323  79.1165066  20.6511307
 104.6892027  15.8098912  45.0222349 104.3138496  15.5054104  45.8484554
 103.9306794  16.0235965  44.4789076  14.8940051  31.9835758   1.3606541
  14.8368478  31.2779260   0.7164325  15.5292225  32.5959015   0.9894551
  25.2275705  52.0041227  16.7755747  24.5994568  52.6811981  17.0271182
  25.1853275  51.9814968  15.8195746  10.5081224  25.5033875  18.5278487
   9.6207500  25.1992559  18.3373094  10.5796719  26.3382936  18.0651999
  12.8943992  54.4337225  70.8766890  13.3503211  54.3949890  71.7174435
  13.5855269  54.3213415  70.2240419   5.5562615  29.7651863  13.8778102
   6.4411312  29.9909329  14.1646481   5.1303118  30.6092453  13.7282646
  27.7967167  78.1510925  41.4367247  28.7137985  78.3143759  41.6570234
  27.5151682  77.4838686  42.0626402  66.6343450  85.3509992  85.6812592
  66.9983935  84.5020383  85.9321862  66.2993598  85.2154201  84.7948986
 105.0385438  19.5650673  57.3381138 104.3755363  19.8949230  56.7316103
 105.2239395  18.6776888  57.0308352  79.1673295  64.3102312  22.0022154
  79.9303023  64.0036917  21.5121746  79.4723050  64.3698931  22.9075670
  86.3665907  38.1446648   7.4177378  86.9137613  37.6851416   6.7808121
  85.5737678  38.3725166   6.9321990  13.8052881  31.5883923  16.6243088
  14.6233320  31.1818671  16.3383472  13.1270802  31.1476731  16.1124182
   3.6499614  17.6307690   9.3125993   3.9754894  16.9092798   8.7743455
   3.4036508  17.2193575  10.1410341   6.2794274  69.8385620  43.1452322
   6.1402756  69.2912483  42.3723698   6.7630792  70.5969000  42.8177691
  99.7266493  36.9876170  12.5908995  98.9484493  37.2188973  13.0979943
 100.3862618  36.7709899  13.2498503   5.3628618  50.7596970  36.7758679
   5.2165955  51.6090584  36.3594341   4.5594046  50.2680111  36.6057611
  13.7296987  13.0860853   3.1662616  13.6905015  13.0594683   2.2102350
  14.4601512  13.6736488   3.3597594  28.3394623  98.1035751  85.1781657
  28.5798782  98.5074418  86.0120257  29.1420704  97.6765721  84.8786345
  13.8992655  30.5986929  22.7407074  14.5426238  29.8987603  22.8521276
  13.3132493  30.5071855  23.4920025  29.4707203  44.9100971  12.6297605
  29.9945402  44.5906496  13.3644676  29.9569345  45.6656075  12.2995591
  30.2119446  44.3527985  15.1082730  29.4336820  44.7493982  15.4997432
  30.9410024  44.8749304  15.4430687  84.1920535  43.6109209  17.8756332
  84.3421618  44.3772793  17.3220992  85.0587527  43.2187986  17.9819548
   1.4958841  21.6897631  20.7276487   2.3836163  21.7333817  21.0829806
   1.0387652  21.0736728  21.3001060   5.8464193  50.9605265  39.4390130
   5.9657252  50.7936907  38.5040474   5.9687483  50.1058769  39.8523378
   8.4795515  28.2207190  81.3713330   8.3641330  27.5493895  80.6988555
   8.4123365  27.7446638  82.1990323  22.5648785  22.6230431   9.0314478
  22.7371478  22.3946452   9.9448979  22.7807403  21.8296528   8.5413772
  18.5440218  94.1089153   9.3674839  18.9471841  93.9848614  10.2267277
  18.1619513  94.9856949   9.4065285  75.3934150  94.1916318  55.1580954
  75.7676600  94.7285891  54.4596338  75.2010511  94.8126239  55.8606625
  72.1942290   9.5098291  79.0018552  71.9110571  10.1354538  78.3350444
  71.7212029   9.7712933  79.7918647   4.9589592  79.7183561  31.4241385
   5.3894484  80.3554249  31.9942713   5.5687237  79.5979166  30.6961870
  58.7768682  14.0696131  78.8562262  58.7085458  13.1569229  79.1364985
  59.2191478  14.5104681  79.5816701  53.8580906  96.8389648  67.9709166
  54.8007965  96.6984885  67.8825754  53.5115802  96.6999095  67.0895403
  21.6329193  50.9815979  22.1661854  21.7807102  51.9240952  22.2441792
  22.0836902  50.7344818  21.3587356  34.6014237  68.8344717  40.5180311
  35.3674603  69.0554190  39.9883151  34.2554784  69.6801519  40.8032894
  13.4549153  59.5724773  21.7634749  12.8092360  59.3438244  21.0948563
  13.6735010  58.7389946  22.1803117  15.5323303  86.2019920  16.7222309
  14.7637582  86.3221455  17.2799861  15.3278780  85.4290199  16.1959779
  10.6895971  91.4033413  36.5877533  10.4238880  90.5512905  36.2418509
  11.3412583  91.7226028  35.9635401  29.2632318  59.7392035  23.0933237
  30.0830150  60.2000761  22.9150343  28.5883260  60.2874279  22.6930928
  10.5399120  30.9206486  23.2344460   9.8210406  30.3345728  23.4710336
  11.2119460  30.3420615  22.8741145   9.9545789  10.0647175  17.4978912
   9.6857184   9.9119091  16.5920234  10.4597819   9.2862380  17.7323508
  15.7110441  61.2295675  42.7892542  15.0038743  61.7370510  42.3910046
  15.3030670  60.7987404  43.5403681  93.2865207  34.7419715  22.0317340
  93.5481540  34.1258836  21.3474727  92.3906116  34.4878149  22.2530580
  12.4593651  38.8109803  25.8222890  12.0598209  38.0179954  26.1797404
  13.3294296  38.8410640  26.2201738  27.7194715  85.1356316   5.7677400
  27.2002387  84.4753361   5.3087950  28.5990548  85.0461292   5.4009217
  16.0921955  42.3130846  12.9799330  16.5005910  42.2283316  13.8414788
  16.8213749  42.2554636  12.3625112  30.3920984  69.4020653  46.2173319
  29.6093678  69.7210407  45.7680893  30.1496720  69.3925238  47.1432734
   9.8237318  19.9305403  32.7725554  10.2913368  20.7532954  32.6288533
   9.0825945  20.1702738  33.3288598  33.5796356  71.5683603  41.5795088
  32.6695180  71.5634203  41.8759775  34.0902495  71.7128897  42.3761415
  28.2415533  76.4439726  28.4163976  28.1158590  77.1579027  29.0414882
  29.1916323  76.3657713  28.3299923   5.3378779  62.8594112  43.5309505
   5.2427977  63.2491589  42.6618767   5.9352112  62.1231604  43.3992195
 105.0781144  42.6550102  23.6966491 104.9665017  42.1842480  24.5225787
 106.0219450  42.6398134  23.5379529  92.3915418  46.7344795  68.4382015
  92.6581915  47.1276604  69.2691880  91.5273662  46.3629566  68.6153990
  91.6674515  37.5359188  68.6129659  91.0405775  36.8319927  68.4463829
  91.3210984  37.9879795  69.3823224  12.0998144  24.1520691  26.4715958
  12.2058535  24.7975516  27.1704078  11.9421959  23.3266258  26.9298911
   5.0791303  10.2679144  87.4903641   4.6096126  10.1529156  88.3165384
   5.9477846   9.9012981  87.6554912  25.2949154 101.3579028  77.8581828
  25.6410134 102.1240419  77.4004906  24.4110119 101.2484687  77.5075119
  94.9339787  56.8189716   6.7147666  94.3693320  57.4428511   7.1710354
  94.9617867  56.0551977   7.2910547 105.8438213  50.3891182  34.8157644
 106.5821646  50.5004501  35.4146695 105.6694175  51.2699747  34.4842362
 100.6730292  53.8612556  13.1619918 100.0429980  53.1862164  13.4142113
 101.1944084  53.4554720  12.4693620  24.3156600  68.7950897  15.5185068
  25.2711940  68.7810278  15.5731583  24.0660810  69.6352053  15.9034121
  84.3279203   3.6766945  83.1457096  84.6007009   4.2115818  82.4002439
  83.4081467   3.9049326  83.2804510  39.9546528  46.4233255  21.0910583
  39.8630142  46.1857319  22.0137644  40.0936460  45.5896521  20.6417274
  81.9841806  55.0625515  13.9441895  82.0390074  55.5667210  14.7560024
  81.4825932  55.6201029  13.3493972  38.7797642  47.4880362  12.2786486
  39.0586329  47.6265335  13.1837904  38.0341721  46.8915987  12.3463380
 106.9720097  14.1857898  44.5949125 107.0926462  14.4593883  43.6856174
 106.2410685  14.7174418  44.9100399  33.7203670  88.1054592   3.0350012
  33.7998128  88.4612274   2.1499300  33.6026740  87.1644306   2.9052091
  36.4737654   8.2924025  12.7667320  37.0260421   7.7364581  12.2170472
  35.9509487   8.7994998  12.1456516  84.7946612  46.7494774  50.2765846
  84.4568316  45.8615685  50.3937197  85.5314962  46.8075657  50.8848047
  20.8362436  45.8739281   3.3310014  19.9112058  45.6677198   3.4652284
  21.2980127  45.0706434   3.5712919  37.2354555  67.8074503  32.2888160
  38.1597733  67.5794125  32.1894813  36.7641425  67.0767593  31.8885875
   2.8114530  64.5598507  32.5082874   2.5563118  65.4312944  32.2054243
   3.5438800  64.7181988  33.1038618  80.9945746  31.4341580  69.5054835
  81.4164593  31.5772854  68.6582762  80.2472695  30.8693729  69.3085366
 105.4062856  59.3762159  53.5858917 105.0855459  60.1563454  53.1333923
 106.3519178  59.3852282  53.4378052  86.7133109  85.7307243  61.2835121
  86.0563723  85.7929611  61.9769049  86.2037484  85.6433105  60.4779482
  68.6126395 101.5419814   7.1351248  69.4568022 101.3267580   7.5317359
  68.7001171 102.4567772   6.8673044  27.1312696  80.6011766  84.6467301
  27.3014247  81.2952822  85.2835160  26.7489391  81.0541313  83.8951394
  70.1211226  23.4609686  88.2209900  70.1847330  24.2931305  88.6897090
  70.6070683  23.6056267  87.4091010  39.4057918  67.8725386  16.6501641
  39.0142345  68.4384108  17.3155236  40.3424883  68.0648232  16.6932988
  32.2612667  90.4286807  83.0118173  32.7890384  89.6995538  82.6861459
  32.1224576  90.2291124  83.9376336   6.9355480  50.0203167  78.0072576
   7.5895921  50.6918465  77.8136044   7.2859041  49.5570885  78.7681180
  93.8901575  11.2734686  85.2534160  93.8154372  11.6527496  86.1290835
  94.8321088  11.2396561  85.0866261  75.0816297  19.2066752  53.5990971
  75.7772141  18.6602388  53.9648908  75.0707748  19.9851643  54.1559309
  43.2993269  20.5063319   1.3375705  43.2309294  20.0092125   0.5224462
  42.5124550  20.2702498   1.8288314  92.3119156  54.5265913  31.2837720
  93.0957012  54.2320967  31.7476535  91.9846765  53.7417698  30.8442187
 107.0940529  61.7575788  44.9069595 107.2657285  62.2052717  45.7354116
 106.1591385  61.5540171  44.9339676   3.7563178  84.1620922  14.6900320
   2.9448575  84.6659851  14.7521281   3.7566626  83.8177299  13.7969220
  20.9026074  42.6906061  57.2524166  20.5326915  42.3632717  58.0723238
  20.3453612  42.3143148  56.5711594  32.8914547 101.2570953  44.4473410
  33.6610031 101.2987709  43.8796329  32.1525121 101.1797810  43.8438368
   0.2972362  73.8719225  18.3926904   0.4961517  74.6568823  17.8822958
  -0.1989355  73.3153248  17.7924860  66.7162895  94.4416278  87.6878657
  65.8448505  94.1339772  87.9372116  66.6034078  94.7896951  86.8033653
  22.5481939  91.7703056  42.1159649  23.4972835  91.6643906  42.1810770
  22.3440289  91.5470886  41.2078190  23.1749654  74.8650169   5.8769542
  22.9562068  75.2386141   6.7306525  23.7527943  75.5125141   5.4731101
  35.4075027  74.7785711  18.8142705  35.0717306  74.2229176  19.5176482
  36.3570380  74.7700357  18.9348638  98.1374834  49.1255951  37.7334309
  98.7646077  48.7292433  37.1285725  98.0537526  50.0304651  37.4327135
 101.5855489  61.9645929  23.0508065 101.0153006  61.2316418  22.8187871
 101.0074143  62.7274752  23.0498838  63.0197167  87.3614925  81.2274515
  63.6305427  88.0919068  81.3255059  62.2427559  87.7511829  80.8265704
  94.3081371  64.2490339  27.9937315  95.1004676  64.6039295  28.3968353
  93.6734382  64.2075777  28.7090445  31.6133358   1.3949626  25.4012680
  31.1691569   1.0041659  26.1537433  31.4427712   2.3332732  25.4832125
   2.5506210  14.7684336  24.9229908   2.7726007  14.2761409  25.7133102
   1.9143739  14.2167401  24.4679570 103.8296808  48.3605146   4.0530422
 103.5657809  47.9176998   4.8595804 104.4656841  49.0169668   4.3373027
 106.7270015  83.5635185  19.4959342 107.0273868  82.9240894  20.1417947
 106.6736593  84.3869686  19.9810243  47.0515617  31.1169087  80.0627488
  47.5008543  31.9612442  80.1010710  47.7467163  30.4700028  80.1831865
  31.3833952  63.5049629  17.6888466  31.4368272  62.5544930  17.7887762
  31.6090226  63.8496923  18.5528398  94.6207897  62.2096586   9.2572963
  95.1547782  62.2563982  10.0503314  94.3453948  63.1128597   9.1004068
  99.4262503  68.6991644   9.7822744  99.9815820  67.9446840   9.5858043
  99.4232581  68.7519503  10.7380128   4.3506286  14.6032190   1.1536303
   3.7003323  14.5151210   1.8504699   4.9594289  13.8794816   1.3012682
  25.7690644  69.3068838  21.8055606  25.5338478  69.6434402  20.9408998
  24.9478054  68.9686966  22.1624827  99.5981119  52.8768492  45.0579739
  99.2145405  53.3523655  45.7948494  98.9434115  52.9437208  44.3628979
  80.7116715  58.4975004  18.7016952  80.9771315  58.2349777  19.5830834
  81.5311758  58.5472965  18.2095921 106.4424239   8.4912729  59.9401140
 105.6601025   8.2349867  60.4285049 106.8805297   7.6644254  59.7385740
  18.4472287  65.2472925   3.0842167  18.2575023  65.7849550   3.8530833
  17.6161337  65.2038670   2.6113233 105.2021862  21.7837429  22.0115471
 104.3097917  21.4712191  21.8625736 105.2070419  22.6726723  21.6565609
 102.0241342  35.5900192  35.8383536 102.5673793  36.2939143  35.4838824
 102.0911382  34.8871374  35.1920581  13.2717132  94.5644754  71.2953216
  13.5621548  95.0347465  70.5138343  13.4939718  95.1468461  72.0217377
  27.6271510  79.8672915  15.5963647  28.2761621  79.2004871  15.3718710
  26.8761039  79.3707132  15.9212792 106.3666294  98.5258007   8.6854118
 105.5154024  98.9627266   8.7126577 106.2059207  97.6640224   9.0697759
 102.3398678  65.1805782  25.4192328 102.9162781  64.4683981  25.1421309
 102.9351829  65.8887243  25.6649184  12.8955531  94.0120888  17.5051117
  12.0667434  93.6813831  17.8514349  12.8729403  93.7878036  16.5748346
 107.5507421  83.3721828  15.0001097 107.9804618  83.7166119  15.7830143
 106.6167529  83.3997250  15.2078056  36.0944796  55.4875469  56.0234928
  35.8484960  54.6002388  55.7619524  35.5640340  55.6639481  56.8004990
 102.4643604  56.2766361  54.7552204 102.6091276  56.0325336  53.8410616
 103.3237572  56.1848497  55.1666164  54.0132427  70.6105423  20.9317374
  53.6349392  70.9611082  21.7381024  54.3362904  71.3807487  20.4641342
  85.3243582  56.1028910  40.1923513  84.5122473  55.6611586  40.4405022
  85.9785454  55.7617903  40.8022070  89.3427913  80.5081749  46.5002584
  88.4422092  80.2626896  46.2883091  89.7158269  80.7936478  45.6662464
  82.3891028   1.8395792  68.0739706  82.8256067   1.4684473  67.3071879
  82.2195979   1.0870396  68.6407035  19.9722064  45.0456953  32.9798746
  19.1729677  44.7355509  33.4056211  20.5949998  44.3267155  33.0867767
  39.9908352  94.5327800  64.6646493  39.6459341  93.6920255  64.9653214
  40.2837953  94.3649715  63.7689680  14.9804187  80.0390720   9.7353619
  14.9441695  80.8803272   9.2801607  14.2145896  80.0442505  10.3095663
  95.2583186  74.7502041  20.3618360  95.7545463  73.9690208  20.6062579
  95.6428103  75.0277615  19.5303559 104.5879660  92.7002716  24.8131657
 104.5450069  93.2189369  24.0098095 104.0721149  91.9172955  24.6206284
  85.3214518  61.1918116  37.0962691  85.2139966  62.1158791  37.3216248
  85.3011696  60.7361317  37.9378009   2.1122411  96.5277290  44.6235704
   2.7063504  96.8891239  45.2813387   1.2638828  96.4849186  45.0648022
  91.2399904  39.2329121   4.9517968  90.7120125  39.7021461   4.3058154
  90.8847980  38.3440542   4.9513516  55.6733998   9.4717346  67.4520224
  55.0460168   9.7489725  68.1196755  55.5438765  10.0879131  66.7310637
  11.2228191  39.5498109  16.6158926  10.4765463  40.1223135  16.4382708
  11.9084954  40.1400995  16.9283652  78.1390659  58.8226414  27.8234172
  77.7607934  58.1374025  28.3744097  79.0445940  58.8991022  28.1240916
   9.6651554  60.5541372  22.8898335   9.9976367  61.2237120  23.4876275
   9.3521041  61.0453367  22.1302557  18.2378745 100.8517593  73.6811620
  18.1275439 101.5109962  72.9959863  18.7968433 100.1842063  73.2834726
  20.3476357  58.2560635  13.3947539  19.3912971  58.2531357  13.3542788
  20.5477214  58.2653713  14.3307626  16.0542703  68.3059263  19.2622125
  16.6760290  69.0314531  19.3193209  15.3351510  68.5607004  19.8403049
  71.5405112  40.8338677  74.8492402  70.9494861  41.3800369  74.3309527
  71.7053842  40.0691258  74.2976874  26.4178920  60.3882122  31.8430781
  27.2285795  59.8806238  31.8800879  26.2209606  60.5920172  32.7573609
  26.0606146  81.8257713  14.7236168  26.7365408  81.2612152  15.0986326
  26.3095737  82.7095795  14.9940479  98.4599112  70.4534817  39.2124987
  99.1173486  70.0237846  39.7596455  98.4179829  69.9158621  38.4216523
  96.4888803  44.2183495  54.2210054  96.8544022  45.1005316  54.2871428
  95.8339230  44.2819548  53.5258675 105.9719035  46.9209051   5.8132660
 105.3732799  47.0156097   6.5541518 106.7740283  46.5667534   6.1971998
   9.4115716  36.9504738   6.2684178   9.1079003  36.5968132   5.4323912
   8.6460400  36.9024372   6.8410307  39.3539362   4.2230552  11.2490845
  39.5692574   3.9038318  10.3727484  38.5987922   3.6989348  11.5160751
  73.5875535  14.1938387  83.8066026  74.2856823  13.5620676  83.9789712
  74.0201074  15.0466143  83.8502353  80.5498757   6.6730820  84.2043403
  80.4590019   7.3703610  84.8537847  79.6503856   6.4512955  83.9635926
   3.3741111  66.4182711  40.4392433   2.5910214  66.1345720  40.9109640
   3.1296441  66.3649368  39.5153236  86.0880725  78.9394617  54.8857594
  86.3890139  78.3665180  55.5910254  86.6713969  78.7434864  54.1525745
   4.0170157  55.8511639   4.2294261   3.1173500  55.8900928   4.5539537
   4.3767753  56.7182779   4.4163015 102.8266553  37.6403475  19.0354633
 102.2121314  37.1811509  18.4629858 102.3203306  38.3686376  19.3952692
  15.8525121  49.1457605  34.0123630  15.8355594  48.8300705  34.9158478
  15.3133762  48.5192680  33.5295892  55.1405223   1.7009967   4.7723556
  55.5834445   0.8700698   4.9444410  55.3458436   2.2439712   5.5334401
  12.5989234  38.7261152  22.5986552  12.2097361  37.9996920  22.1117496
  12.1574652  38.7090635  23.4478068   6.3033205  58.3078241  26.4718795
   5.9406853  58.7310362  27.2500920   6.7011607  57.5018215  26.8009949
  19.9453282  79.1034555  13.2852232  20.4981685  78.4078169  12.9292917
  19.1173267  79.0166759  12.8128743  70.9412169  96.0406345  87.7335531
  71.2996149  96.1398118  86.8515399  70.1236296  96.5381425  87.7172055
  14.1250658  67.2767060  87.5433573  14.6068263  67.5712352  86.7704458
  14.7635889  67.3215311  88.2550531 107.4356410  54.2863655  44.4654846
 107.4118039  54.8720837  43.7087822 106.5257714  54.0151501  44.5871878
  31.2907791  38.8046217  14.0515816  30.4137063  38.4217286  14.0323472
  31.1441207  39.7293258  14.2506850  84.6278437  49.0193783  77.5537759
  84.7365006  48.1706463  77.1247416  84.4815107  49.6341740  76.8348580
   9.6509176  41.7552042  11.3727474   9.5433784  42.4673176  10.7422256
   9.8797244  42.1935177  12.1923590  39.9854144  89.8539394  63.3082360
  39.1390443  89.8583167  62.8611678  40.6192788  89.6551102  62.6190966
   8.4401071  20.2298760  20.4602170   9.0259200  20.1681471  19.7057331
   9.0108067  20.1007891  21.2177587  38.3855438  54.7361708  40.7303190
  39.0084529  55.2132845  41.2785673  38.8694382  54.5479202  39.9261785
  24.2258477  41.7109442  25.0894356  23.6273932  40.9891415  24.8968673
  24.7174406  41.8374872  24.2779207  14.5604336  68.1739378  21.9334102
  14.0351903  68.8986111  22.2728181  14.1504979  67.3896217  22.2981524
   3.6159217  82.0048332  49.1132307   3.2300803  81.8261623  48.2556581
   2.9077354  81.8353653  49.7345066  25.7015395  55.8982038  50.3814411
  25.6179738  56.5277910  49.6652889  25.2941418  56.3324785  51.1308861
  62.1484478   2.4881499  60.0630331  61.4566740   1.9139712  60.3916693
  62.4896439   2.0350497  59.2919874  29.5892286  81.1597633  42.0241976
  28.9347076  81.1610794  41.3257504  29.7582459  80.2327156  42.1923065
  25.3693986  52.4697924  70.5542660  25.9734750  51.9423246  70.0316763
  25.4490781  52.1174622  71.4406919  97.8617791  52.7976561  25.9977913
  97.9226748  51.9154835  26.3642526  98.4632520  53.3196449  26.5288162
  25.7959390  46.9258308   7.8515536  25.5810189  47.1890354   8.7464088
  26.2542152  47.6811886   7.4832475   2.4043164  22.9427719  17.2203267
   2.4544144  23.2631612  18.1209219   3.2479796  23.1790304  16.8347800
  56.2040146  10.0806468  13.8012230  55.8052953  10.9174483  14.0400159
  57.1141251  10.1586860  14.0872991 103.6762727  91.7738914  34.0144658
 103.5053007  91.1158276  33.3407044 104.0042348  92.5321102  33.5309601
  21.4011550  43.2244539   2.7167961  20.5831003  42.7275467   2.7065915
  21.3423634  43.7983036   1.9529447  83.3282558  49.1807938  24.5298314
  83.8079850  48.9479256  23.7349319  83.5277001  48.4753323  25.1452827
   9.2202274   8.1553780  72.6349085   8.6249773   7.6552950  73.1933230
   9.5624439   8.8435684  73.2054442  15.2276564  52.6152611  50.6892586
  15.3573215  51.7390490  50.3263903  16.0993052  52.8867769  50.9769011
  10.6233636   2.1977840  86.0022746  11.3445417   2.3166882  86.6203299
  10.2447263   3.0715166  85.9050552  34.7062778  75.4225874  38.8244462
  34.4639301  75.2621746  39.7364593  33.8719630  75.4488039  38.3559775
   6.9667310  47.1830559   8.7798327   7.7813667  47.6854563   8.7937146
   6.3718927  47.6756191   9.3453228  57.5250395  24.5911108  80.9127825
  57.7213724  24.2044674  81.7661255  57.6187166  23.8665901  80.2942955
  32.4291532  62.4468940   9.8442709  31.5533235  62.6954787  10.1398325
  32.2780215  61.9428389   9.0446895  77.7806612  14.6723305  82.5147634
  77.0828547  14.4139801  81.9126391  77.3738535  15.3217732  83.0883175
  12.3305583  25.7934570  14.7740853  12.9348326  25.9514213  15.4994345
  12.6960206  26.2939310  14.0445673 104.8173089  80.3106403  26.8005228
 105.2176968  80.0410175  27.6270986 104.7409613  81.2622166  26.8705368
  73.7031714  54.2158985  30.7569647  73.4293000  54.9335527  30.1858282
  72.8849379  53.7985706  31.0263419  21.0541654  38.6767960   2.1409780
  20.9756780  39.6038175   2.3661511  20.4425073  38.2346869   2.7297461
  73.9796678  17.3802076  79.8032593  73.9379593  18.2868229  79.4990474
  73.5520152  17.3949658  80.6594878  77.3781483  72.2022486  52.4492884
  78.2117574  72.2971439  52.9100704  77.2501795  71.2563229  52.3780632
  43.7000036  46.0246277  22.5784636  44.6522284  45.9440756  22.6333666
  43.5171270  46.0692596  21.6399574  12.7348351  63.6657286  20.5650163
  12.2873473  63.0374050  19.9982762  13.5299420  63.2120657  20.8447027
  90.1464812  61.0683346  41.1551905  89.9003879  60.1802683  40.8963346
  89.3156354  61.4966726  41.3612270  61.8222284  83.5484594  82.4441963
  62.6245785  84.0449684  82.6052797  61.4149523  83.4651344  83.3064115
  37.6083708  41.5503550  44.2761087  36.9604301  40.8486032  44.3389845
  38.4465885  41.1176682  44.4386148  59.1253614  96.4514535  70.1427108
  59.0190482  95.5069726  70.0292104  59.9413586  96.5432304  70.6346029
  23.2302594  72.4050236  15.3541756  23.3267093  72.9110527  16.1609352
  22.8417611  71.5768194  15.6359291  86.3546379  10.1501642  77.6388710
  86.2786396  11.0545956  77.9429453  85.4502614   9.8451220  77.5661891
   2.9866093  79.1989565  40.1867199   2.1915504  79.6679258  40.4400682
   3.4618717  79.8162651  39.6305847  87.2377010  28.4573256  72.6008075
  88.1466909  28.2299076  72.4052316  86.7955585  28.4278475  71.7523545
  37.4730825  50.3623629  49.2075920  36.5631866  50.2010250  49.4571781
  37.5872493  49.8762226  48.3909750   6.5353918  43.9896345   6.1000848
   6.5970224  43.3666325   5.3759980   6.1451811  43.4875154   6.8155164
   0.4258937  51.8932581  27.2626376  -0.3613741  51.3736963  27.0998597
   0.1140220  52.7977371  27.2924614  27.7732301  62.8294230  12.6408529
  27.4600410  62.8464079  11.7364979  27.0131207  62.5522947  13.1523883
  57.4599933  78.2939571  74.1742748  57.5223708  79.2437833  74.2751246
  57.8818917  77.9416721  74.9579388  16.0807908  38.1185389  12.1116590
  15.3949034  38.4673405  12.6809812  16.7912412  38.7570047  12.1737158
  92.8715495  68.3328724  15.3993034  93.7121145  68.1183815  14.9947357
  92.2187070  67.9560089  14.8093832  37.8363872  81.3752270  11.1452496
  38.3755374  81.6950893  10.4218984  37.3619318  80.6291008  10.7786238
  24.2196941  46.2283993  42.1337080  24.0524840  45.3751230  41.7334652
  23.5340977  46.7963552  41.7821169  14.5657214   8.4939139  12.8539407
  14.6087559   8.5725921  11.9009519  14.8007067   7.5828402  13.0299067
  70.4920310  47.8870140  88.0112199  71.3794471  47.5511395  87.8850563
  70.0654074  47.2339951  88.5660131  51.7946672  38.1080008  13.2154942
  52.1599913  38.6358190  12.5054383  51.7881060  38.6951351  13.9714444
  14.4455433  80.3782845  34.4139719  15.1322305  80.0959110  33.8098526
  13.6523056  79.9501562  34.0919256  22.2833300  54.9772024   6.3311076
  22.4373865  54.9035501   5.3892618  22.7015114  55.8019352   6.5784323
  88.3764593  72.2203970  19.7394180  88.7484495  71.7585135  20.4907632
  87.9118006  71.5430641  19.2479503  69.8687333  34.2743527  87.8560671
  69.2932229  34.9037396  88.2906817  69.3349071  33.9092480  87.1504038
  88.3421167  15.0649868  78.4537428  89.2740615  15.0456749  78.2361698
  87.8977450  15.0394379  77.6063281  74.1969051   2.0198141  66.2673276
  74.2777083   2.6907574  66.9452208  74.0556393   2.5121342  65.4586929
  32.3945657   4.1841780  79.2854130  31.5490524   3.7575279  79.1464507
  32.5350229   4.7014748  78.4923750  18.8270259  82.4157619  19.7241414
  18.8926995  83.1398487  20.3467345  17.9749215  82.5366688  19.3051755
  58.1611776  51.7570210  15.6767094  58.6012173  52.3645115  16.2713110
  58.0272913  50.9658337  16.1985612   0.7928261  64.6020508  62.5981092
   0.5161778  63.7230825  62.3390436   0.7233150  65.1209402  61.7967653
  80.5825122  47.4062382  78.7409901  80.2108159  46.7814194  79.3636322
  80.0347402  47.3213707  77.9606217  41.8622001  17.5199359  16.3151002
  42.7876767  17.5772899  16.5526640  41.8597349  17.0769065  15.4666018
  40.6504345  59.1581059  19.5996761  40.9046888  58.2503557  19.7657537
  41.4792967  59.6349239  19.5564938  87.2848268   8.4061037  86.8980391
  87.9992588   8.8796745  86.4719529  86.6875597   8.1811796  86.1846569
  54.6512437  98.7339538  70.0205403  54.3229854  98.0291360  69.4622320
  55.0379181  98.2840818  70.7717579   3.1577444  91.8260670  13.1573761
   3.7122706  92.6051044  13.1145763   2.5469124  92.0058441  13.8720775
  94.4630150  77.8066683  19.1661870  94.1748182  76.9083977  19.3283141
  94.1698531  78.2948208  19.9355996   2.8424826  43.4787941  16.5986586
   1.8971981  43.3329391  16.6360164   3.2231671  42.6043653  16.6804385
  60.0397778  69.9678516  16.5086412  60.2652073  70.8950806  16.5838706
  60.1666117  69.7649574  15.5818295  98.7027715  82.5846291  27.4868965
  99.0709571  81.7666245  27.1529055  99.2291520  83.2699299  27.0751739
  41.0636759  98.6185265   5.2356845  40.1441765  98.8777828   5.1762110
  41.1082268  97.7848339   4.7674856  94.5507153  43.0608021  78.8844138
  94.8713287  42.6818405  79.7028452  95.2584966  42.9109798  78.2576513
  61.7520197  74.3540035  88.2242217  62.0541765  75.0917660  87.6944710
  61.7661341  73.6074387  87.6253281  69.5356750  83.2332516   8.1716692
  69.4706345  82.9428959   9.0814471  69.9937439  82.5211811   7.7251649
  87.5459703  68.8602673  81.1217445  87.1323391  68.2928883  81.7723024
  86.8400677  69.4311653  80.8184224  26.1998677  79.7982502  12.6323748
  26.1196828  80.3066826  13.4394050  26.6599607  80.3801250  12.0274234
  94.0592297  12.8148590  87.5000651  93.6527308  13.4722267  88.0647442
  94.9100717  13.1888901  87.2711425  33.2365131  90.1239967   5.0606561
  33.5877419  89.7246456   4.2647973  32.4497867  90.5853271   4.7700337
  28.7768912  78.1947374  26.0234737  29.0716767  77.4319124  26.5209007
  28.0084229  77.8855276  25.5438066   5.8404342  42.3408638  81.0466498
   6.7623226  42.4805389  81.2630874   5.6632368  41.4415680  81.3225096
  25.8222795  74.3912745  43.7456560  24.8888230  74.2433882  43.5939264
  26.1738920  74.6080685  42.8821754  87.0113726  74.7023712  81.2504565
  86.0546537  74.6746193  81.2382030  87.2660847  74.5867191  80.3350454
  86.3346474  84.6076488  38.1038141  86.0972540  85.4594326  38.4703255
  85.4962580  84.1844082  37.9188681  42.3405170  68.4743452  16.8811285
  42.7800465  69.0431070  16.2490249  42.8517962  67.6651907  16.8712640
  27.8487182  97.5742245  31.9208622  27.8008032  98.3978748  31.4355540
  28.4779835  97.0442200  31.4316249  16.3353837  88.3967113  42.2112751
  15.6921494  88.4564972  42.9176092  17.1699739  88.6099243  42.6286840
  26.0199690  45.7202482  24.4449949  25.9733820  45.5810642  23.4991145
  25.2991104  45.1997280  24.7994709  96.2216194  35.8078419  81.4282399
  96.8150624  36.2592732  82.0284623  96.7511495  35.6404625  80.6486153
 108.1833390  42.2973061  20.6612444 107.2325636  42.1875954  20.6463623
 108.4897296  41.6461420  21.2923908  42.8007984  78.4988117  48.6004400
  43.4492445  77.8495407  48.8728380  42.3084021  78.0672121  47.9022264
  28.4417772  63.1620789  24.5641565  27.9030037  62.3735142  24.4999886
  27.8275418  63.8520765  24.8148513 105.7502553  96.0233498  44.4820070
 105.7895553  96.9794559  44.4583607 105.8134372  95.7582760  43.5644197
  30.5061364  92.8381348  14.2545223  30.0156569  93.6317921  14.0406084
  30.9292459  92.5892639  13.4327722  26.4631224  87.1156979  43.6140347
  26.4628196  87.8566742  44.2199850  27.3824406  86.8559742  43.5537386
  26.4937647  10.4524653  15.6132948  26.6093918   9.5047419  15.6816220
  26.2737866  10.7316153  16.5020692 102.9304908  60.7761860   9.3695426
 103.0827139  61.6989994   9.5731956 103.3483703  60.3004074  10.0873470
  32.9863954  76.6591597   9.6706104  33.5012937  76.5831804   8.8672805
  33.5209274  76.2306929  10.3391349  46.2846851  55.9989357   5.0151294
  46.2992764  55.4559612   4.2269677  46.0102081  55.4026031   5.7117504
 105.2965234  64.8698997  27.0936298 106.1883406  64.5255852  27.0452285
 105.2601520  65.5377913  26.4089227  43.5475254  69.2901087  14.5057082
  44.1769409  68.7111902  14.0756798  44.0329266  70.1009941  14.6576512
 102.6846393  45.5121361  74.9187571 103.4263666  45.6300865  74.3253261
 103.0526574  45.6474243  75.7919639  14.4170833  76.3036633  10.2484906
  15.2483273  76.0407114   9.8533642  14.0179420  76.8855953   9.6017545
  17.2894251  77.6686287   3.7000379  16.5405869  77.1134186   3.4827533
  17.6557088  77.2771883   4.4930345  25.1927845  37.5356899  64.4105023
  25.6989566  37.9394470  65.1154893  24.8277084  36.7421185  64.8019069
  21.3567877  55.1641655  26.8189073  21.3781214  56.1170721  26.9069266
  20.7157993  55.0018597  26.1267924  17.4690938  81.6841888   7.1808898
  17.8238201  82.2801399   7.8406262  17.6775503  82.1010017   6.3447988
  30.2764773  66.8309021  30.5028534  30.4808712  65.9557009  30.1734948
  29.6986032  67.2076273  29.8392487  28.2121229  83.3860874  21.6010022
  27.6245832  82.6310825  21.5694571  29.0196753  83.0452442  21.9856048
  34.0097165  82.4245453   2.8762421  34.8574710  82.2909355   3.3001494
  34.1776371  82.2612667   1.9481388 103.1603225  44.6302448  80.4193502
 102.6402267  45.0310551  81.1158251 103.8120230  44.1023098  80.8806592
   7.9036657  17.4064909  86.6314162   8.5456316  18.1023394  86.4903420
   8.4014789  16.7017876  87.0459182  35.2309203  75.7942677   3.8278970
  35.7237363  75.7855844   3.0073541  35.8932376  75.6634521   4.5064664
   9.0825599  77.5753975   2.0272149   8.6633676  77.6576042   2.8838083
   9.0461957  78.4574127   1.6571316   1.6059645  53.3032513  10.2219474
   1.5429845  54.1028929   9.6996111   0.7074077  53.1285810  10.5018008
  23.7070465  65.5323362  42.8249025  24.2450237  64.7406530  42.8177929
  23.8358951  65.9172630  41.9580317  24.0833259  86.6619778   9.5264435
  23.7329149  86.6608906   8.6356896  24.5726967  87.4821377   9.5903105
   6.0779405  90.1800346  24.3897319   5.5991209  90.7750702  23.8127589
   6.6588956  89.6944237  23.8041496  79.0475990  41.9709621  58.5172170
  79.7285034  41.3578259  58.7940997  78.3230140  41.8135677  59.1225546
  29.1061568  79.3063545  12.1674347  29.8861504  79.3861532  12.7165008
  28.4333730  78.9631844  12.7555060  17.9002738  99.1680241  28.8496113
  18.0794275  98.6001301  28.1001878  18.5255075  98.8872051  29.5177865
  10.2776567  40.9545075  87.0834135  10.3632204  41.8198811  86.6833538
  10.9152643  40.9565865  87.7973332  95.2585642  98.5358238  36.7399740
  95.3702394  99.3724346  36.2884736  94.3460910  98.5396385  37.0291257
  57.2238731  75.8310890   3.6014566  56.6441774  76.5906620   3.6583695
  57.0570850  75.3416204   4.4069594  30.8132148  35.8573937  19.2194426
  30.2959418  36.0375834  20.0044227  30.5687881  34.9659133  18.9709496
  19.9877918  94.5943451  11.4900923  19.8790765  94.8568630  12.4041474
  20.5575132  93.8260746  11.5276825  16.4336085  64.6310616  59.5676708
  16.2026608  64.4482183  60.4784203  17.3212326  64.2858791  59.4717264
  22.3024440  53.6533499  22.1968079  23.0370951  53.8886404  21.6301012
  22.4370790  54.1708231  22.9907417  91.7453186  54.0593147  11.3127363
  92.0952670  54.4087982  10.4932070  90.9553377  53.5852861  11.0530043
   4.6401587  96.6235638  30.1354194   4.0507999  97.0891762  29.5420480
   4.0909973  96.3896942  30.8837247   0.1989331  52.9325104  21.2147593
   1.1249080  53.1607389  21.1328244   0.0024762  52.4391556  20.4183698
  23.6548877  75.8129215  34.5324802  23.5282040  75.0555515  35.1039481
  24.4245124  75.5913448  34.0082550  50.0761414  69.9655676  10.3822255
  49.2529297  70.4285049  10.2265048  50.7541275  70.6218290  10.2213192
   3.0184668  54.7861624  17.9091823   2.2953454  54.3736982  17.4367416
   3.6516371  54.0805674  18.0413353  23.0539266  21.6044842  65.7697528
  22.2348253  21.6514145  65.2766937  22.7859823  21.6715895  66.6862339
  69.6291797  14.5711981  78.3875775  69.7548248  15.4435669  78.7609642
  68.7828084  14.2837320  78.7299990  40.0298882  75.1842880  36.0982823
  40.2125692  74.4958305  35.4588413  39.4902587  74.7565508  36.7631698
  23.7362266  66.2134504  37.3671126  24.6373916  66.3437176  37.0718789
  23.7898254  66.2473297  38.3222079  16.3912670   8.3673321  80.0302046
  16.9239990   8.0831848  79.2874491  17.0191900   8.4906756  80.7420534
  12.7390051  73.8619137  45.7302856  12.0288324  74.0832853  45.1278925
  13.3831942  74.5592070  45.6076717  38.7790394  75.9923601  11.8999386
  38.1529117  76.1781311  11.2001634  38.4595132  75.1828957  12.2985625
  24.1188908  50.2965593  37.1123028  23.5846710  49.9185753  36.4137554
  24.9922228  49.9314213  36.9701862  26.0627961  92.2679615  28.2127571
  25.2633715  92.6530933  28.5716701  25.8902478  92.1888351  27.2745681
  82.2288474   6.0647052  42.9331732  81.3810976   6.1037391  43.3759308
  82.8419789   6.4570659  43.5547447  84.2455693  73.0326687  86.6450453
  85.0886734  72.5823151  86.6959902  83.8851841  72.7711998  85.7977012
   8.5681287  20.6905781  81.4886141   7.9478685  19.9623428  81.4541626
   9.4253913  20.2716290  81.5648436  23.5451412  90.4571342  33.6244583
  24.1450214  91.2024212  33.6548400  22.9395509  90.6659508  32.9132009
  55.3933104  13.3913367  25.6658840  55.7039126  14.1237967  26.1981153
  55.9635242  13.3951800  24.8970723  75.4987597 101.6365998  87.6697992
  75.7190490 101.9615453  88.5427911  74.5439935 101.6905349  87.6280331
  81.3512238   1.1778014  24.8859310  81.3706692   0.6580966  25.6895208
  80.5088242   0.9657710  24.4838905   1.0206823  77.6252794  36.8958306
   1.3664182  76.8742371  36.4135051   1.1780968  77.4122763  37.8156590
  25.8369517  99.6014786  15.0897574  26.5799546  99.3632889  15.6442356
  26.2178898  99.7301388  14.2210996  12.5363533   8.2897030  75.9269184
  12.3088066   7.3622976  75.8607560  13.1346075   8.3369194  76.6726333
  38.8057876  84.2901707   9.7450471  37.9209614  84.2064095   9.3896592
  38.6752319  84.4223213  10.6840479  65.3140195   6.7260116  40.3287506
  64.8329338   6.3108104  41.0445738  65.9823307   6.0851996  40.0859404
   1.1605517  79.9073921  84.6865615   1.2949268  79.4770847  83.8421607
   1.1509768  79.1911732  85.3215256  28.5041094  87.4389458  14.8552144
  28.8841128  87.0449543  14.0699720  28.7321019  88.3664513  14.7921443
  11.8075383  81.6897488   7.2542512  12.3085976  81.7170334   8.0693752
  11.8765509  82.5766563   6.9008875  19.7924435  77.3115540  43.1364202
  20.4479814  77.4782324  42.4591303  19.4799256  76.4253187  42.9543352
  96.0128935  62.8998123  61.7101186  95.1095637  62.5883137  61.6536325
  96.2419470  63.1346260  60.8108800   0.6976668   9.9283110  80.5392736
   0.6656853  10.8615862  80.7495367  -0.1461562   9.5870195  80.8354342
  92.3866781   8.1627928  69.1466969  91.5481957   7.8259312  68.8309329
  92.6857193   7.5078093  69.7774106  36.6465354  73.4195042  38.9960837
  35.8924556  73.9806557  38.8152289  36.3551497  72.5408745  38.7525034
  17.3639822  93.3943748  29.2293954  16.9430315  93.0989456  28.4220815
  16.7580104  94.0399361  29.5931077  29.9243951  58.8158226   9.3004382
  29.8696876  57.9953527   9.7904062  30.8619428  58.9497805   9.1615337
  76.2176566  50.6248890  75.5138641  76.7534759  51.0697971  74.8572165
  76.1212437  49.7329937  75.1800245  69.9767637  60.4851532  39.4188428
  69.6410561  60.6410313  38.5361004  70.6606483  59.8256969  39.3020272
   4.6866173  82.7186966  16.6401517   4.3300369  83.1669235  15.8732283
   4.0748474  82.9281139  17.3459232  44.6536972   6.5157359  28.5255384
  43.7908193   6.7749827  28.2023239  45.2613314   7.1171325  28.0950284
  10.1852838  30.2584778  76.6579634   9.5577613  30.5308949  77.3274737
   9.6553270  29.8018585  76.0046071  16.9618952  68.0791187   8.2997262
  16.2693918  68.7333012   8.2063407  16.9386959  67.8362370   9.2253077
  28.7147379  69.7077608  42.3254824  29.0428019  68.8997316  41.9308996
  27.7681732  69.6747732  42.1870613 101.4901857  41.7951393  21.8649340
 101.4685993  42.6631260  22.2678852 101.2620614  41.1955404  22.5753355
  29.5049667  72.9635239   7.0913684  28.8589954  72.4932528   6.5643007
  30.2715874  72.3903942   7.0981503   3.4179041  73.0330086  44.6025562
   3.4434864  73.8478422  44.1009378   3.9333850  73.2186508  45.3874445
  21.7513776  57.5532436  21.4048290  21.8488574  57.8093576  20.4876947
  22.0172501  56.6339636  21.4263463   5.3493619  59.4876671  29.3497109
   4.4694826  59.2718172  29.6586704   5.8947623  59.4512844  30.1354885
  18.1442165  91.3012028  31.1989236  17.3510599  90.9329224  31.5881634
  17.8311062  91.8017769  30.4455209  26.4102793  64.3729448  29.8713994
  26.8466783  64.3251419  30.7219887  25.7900190  65.0964975  29.9607611
  91.5337471  80.0505733  13.1450629  91.0361699  80.7996178  13.4730458
  91.4461092  79.3867683  13.8291085  13.6047304  81.0046768  48.9494467
  14.3986845  81.4602184  48.6695480  13.1351638  81.6468525  49.4817448
   5.1358658  66.7289734  23.1811523   4.2450857  66.4302826  22.9980516
   5.3893441  67.2197866  22.3994327  21.1307669  94.9499607   4.7794038
  20.8145285  94.9194527   3.8764676  21.9346309  95.4676533   4.7342750
  37.0120016 100.8273690  84.3484875  36.3069948 100.3332084  83.9301562
  37.7051264 100.8605950  83.6891651   1.4017749  87.7890205  19.0437818
   1.3299921  87.7759457  18.0893672   0.5096024  87.9539585  19.3488348
  51.8121624  51.6124487   1.6765235  51.5025234  52.0961285   0.9107508
  51.0149908  51.3881254   2.1565561   2.3161514  85.9704113  25.2177525
   2.0958681  85.7616234  24.3099427   1.5708658  85.6488705  25.7250929
 105.2627810  37.4069916  59.7760170 104.4006761  37.3720203  60.1904815
 105.8311160  36.9082581  60.3629535  30.1412630  75.6719065  10.3211081
  31.0725546  75.8441925  10.1823676  29.8114967  75.4274178   9.4564044
  95.6383447  90.3144550  21.1540914  94.6842281  90.3200531  21.2306571
  95.8941964  91.2280178  21.2812805  26.5412903  74.1934204  27.7099204
  26.9147801  75.0732708  27.7608418  25.5952168  74.3361044  27.6813388
   7.4504364  92.1108723  44.9956512   8.1730384  92.2465897  44.3827391
   6.8761683  91.4851761  44.5541096  46.0353518  60.1458216   1.7135203
  46.7079163  60.5889368   1.1962752  46.4636517  59.9515152   2.5472075
  31.1214685  72.7539015  44.6644926  31.8313408  72.4217415  45.2140236
  30.3224659  72.5068045  45.1300812  26.0519685  18.1671756  25.1457548
  26.2994256  18.3573764  26.0506392  26.8701824  18.2370704  24.6539474
  15.1057100  42.0400381  31.4740562  14.4946194  41.3090467  31.5660000
  15.0694406  42.2671175  30.5448890  87.8613134  45.5641590  82.7669394
  88.4851452  45.4876267  83.4888875  87.9179676  44.7242294  82.3113876
  87.7008863   4.4969688  83.9120987  88.6562820   4.5401655  83.8722783
  87.5135871   4.1277157  84.7751170  10.2624551  37.6468025  86.2570987
  10.0569860  38.3602463  86.8612703  10.9398309  37.1406685  86.7056742
   7.1502340  74.5525789  21.1115170   7.2038776  74.4551468  22.0622325
   7.5577456  73.7583637  20.7659841  24.9553895  70.3370237  12.5388908
  24.9692202  70.6326103  11.6285777  25.6674218  69.6997356  12.5946224
   3.7427942  18.8915049  81.0852027   4.4834034  18.6019741  81.6180271
   3.4085933  19.6648155  81.5396654  73.6666857  62.9270683  84.4723329
  74.5327022  62.7733074  84.8499620  73.8123787  62.9153954  83.5263577
  22.8804398  61.4453936  36.3079810  23.2359147  62.0905256  36.9192696
  23.1384206  60.5999184  36.6752052 106.2471620  35.4427600  32.6464486
 106.2132457  34.6175861  32.1625376 105.7096360  36.0446143  32.1316004
  28.9442515  98.8960361   5.4573417  28.1647635  99.1084099   5.9706926
  29.6694708  98.9828968   6.0760063  64.1665936  45.4807377   8.2924414
  64.4374228  45.5111217   7.3748577  64.1501999  46.3973284   8.5678053
  18.3961475  57.3327684  48.9351749  18.0513382  57.2513247  49.8243904
  17.6284862  57.2391987  48.3711052  46.4645672  75.1655436  28.8584256
  46.3628674  76.1111450  28.7501574  46.5533161  74.8304796  27.9661894
  11.7585826  67.2390938  19.3912053  11.5828311  68.0057192  19.9367630
  11.4227414  67.4778748  18.5272455  81.4671191  35.4590355  80.2345031
  81.8771787  35.4415928  79.3697613  80.5363675  35.3180824  80.0611061
  71.4015444  26.7887538   5.3895158  70.6513771  27.3627799   5.2346379
  72.1426471  27.3857158   5.4926628  40.0820684  66.3784647  14.6089017
  40.7215309  65.7371855  14.9188673  39.7741413  66.8132830  15.4041052
  41.2038952  97.5382083  81.8663108  41.7575550  97.9050296  81.1770105
  41.6434187  97.7811092  82.6812046   6.3158023  65.9671211  20.3920197
   6.2782615  65.2924538  19.7140467   7.0783192  65.7328463  20.9210873
  30.3019452  56.3655758  13.7351477  29.5619154  56.4343882  14.3383491
  30.8630991  57.1080780  13.9588165   0.5182489   0.8965915  17.9838037
   0.8775099   0.9380286  17.0975506   0.8450993   1.6878264  18.4119844
  17.1258402  81.1623287   0.5416840  16.5836763  80.4063320   0.3163781
  16.8821359  81.8310928  -0.0983094  72.8920038  17.0486675  68.2379442
  73.5118716  17.4713360  67.6435131  72.5556177  16.3022123  67.7420824
  75.0079926  17.7160209  14.3019497  74.8986896  18.4959357  13.7578750
  75.9468039  17.5319140  14.2708182  99.4704245  64.6619368  14.4664371
 100.2962659  64.4813967  14.0174103  98.8555531  64.0251684  14.1021717
  43.0761482   3.4892028  61.0481310  43.0229696   4.4448512  61.0595560
  42.2750350   3.1995051  61.4846230  93.3714422  24.2519747  72.4542325
  93.3276614  25.0939213  72.9074853  92.6405867  24.2742144  71.8365067
  66.1681700  42.2577524   9.0442985  65.9267187  42.2969484   8.1188822
  66.3600254  43.1653166   9.2804205  37.6924253  69.5272589  22.4586034
  37.4101233  68.8350058  21.8608356  38.6326528  69.6117353  22.3002696
  34.3062592  79.8561859  16.0837841  34.4187093  79.4884586  16.9603467
  34.7773600  80.6889820  16.1111712  47.9192718   4.2580932  31.3563275
  48.8318022   4.1099780  31.6044831  47.9074129   4.1412776  30.4063559
  36.5445018  37.6546669  23.3894634  35.6481600  37.9597211  23.5299850
  36.8154907  37.3078227  24.2394614  55.0113583  77.8519058  26.8191648
  55.5782604  77.1680260  26.4625597  54.5540142  77.4290371  27.5459719
 105.8038004   6.3752924  74.0188104 106.7435749   6.3721119  74.2006021
 105.5205949   7.2631632  74.2372530  79.1467406  31.1095463  81.2856823
  79.5842262  31.6309582  81.9587058  79.8469861  30.8614193  80.6820923
  11.7933774  90.4275894   5.6341428  12.5696898  90.1050758   5.1763690
  12.1309447  91.0802078   6.2476301   4.3172082  77.4366379  21.4069533
   4.1081378  76.5467739  21.6909695   3.4678251  77.8732300  21.3423991
  10.1529300  62.0126057   4.9261379   9.9363530  62.6406097   4.2369807
  10.0146341  61.1561060   4.5217705 107.7539273  63.7764359  28.4999180
 107.2718067  62.9574060  28.6138654 108.6472941  63.5017347  28.2933569
   3.3308047 100.7764244  31.7452788   4.1379604 101.0442257  31.3059449
   2.6756826 100.7507610  31.0478616   2.7441117  65.9027195   3.3799741
   2.6540548  66.8411255   3.2140788   2.3590416  65.4852438   2.6094764
  39.6668413  90.0976413  79.3501943  39.1482636  89.2948335  79.2972100
  39.1035849  90.7163685  79.8151147  98.5526405  58.7405109  15.5793154
  98.1905226  57.8568935  15.6450665  97.8201429  59.2776966  15.2774668
  32.1062756  91.6157627  29.5147943  31.3670325  92.0983410  29.1448307
  32.0622873  91.7935753  30.4543066  23.5563517  95.1754284  11.0340250
  22.8459692  95.7575035  10.7642555  24.1778207  95.2028465  10.3065240
  26.0766784  36.2339626  85.3949642  26.0671894  35.3037582  85.1694134
  26.1186067  36.6845261  84.5514786  25.0123215  91.3680744   4.6686161
  25.0586534  92.2425652   5.0550699  24.4401240  90.8760166   5.2574325
  25.7758737  59.0215683   8.1260246  26.4970517  58.3922005   8.1317335
  25.9320736  59.5717907   8.8935465  46.4478970  82.4372101   7.2699213
  45.6917858  83.0133152   7.3822755  46.8398237  82.7150917   6.4420295
  50.2161618   9.8134940   3.2330984  50.7995912   9.2953818   2.6786676
  50.3652819  10.7181399   2.9581255  48.4149075  86.2234974   3.2078800
  48.7930632  87.0987797   3.2922819  48.5087824  86.0105419   2.2794032
  83.4440060  45.0915657  57.9570764  83.6147722  45.2579819  57.0300501
  83.7327333  45.8890854  58.4007352  84.6414661 101.1431789  16.0138214
  85.1798916 100.6324863  15.4092407  83.8753319 101.3948441  15.4981411
  51.3198312   3.8509601  21.6272664  50.6811985   3.1842463  21.3745546
  50.8529659   4.6804278  21.5259600   2.6029555  56.5234314  62.7085036
   2.5539772  56.8491016  61.8097418   3.5247270  56.2964092  62.8310936
  60.3001213  63.4812832   5.0255054  59.8072243  64.3016148   5.0071400
  60.6684685  63.4034252   4.1454536  18.6561529  87.0707356  74.1274172
  17.9615346  87.1414028  74.7821980  18.1944887  86.9053303  73.3053821
  99.4495569  85.6181908  11.4093173 100.1465444  84.9621773  11.4188480
  99.5183806  86.0282612  10.5471480  19.0152514  98.0188942  12.0709872
  19.6000493  97.2653103  12.1506476  18.4844244  97.9953480  12.8671658
  36.4019608  85.2684402  19.8247051  37.0537186  85.0983906  20.5047989
  35.5640697  85.2553272  20.2873063  42.4699545  93.9841461  40.1619434
  43.3154535  93.8243198  40.5812597  41.9387245  93.2231522  40.3962898
  70.8539589  12.8291934   1.5216896  70.3953584  12.7141135   0.6894179
  70.4620107  12.1776908   2.1032058  22.3652577  83.8045502  23.2285380
  22.8195977  84.6100426  23.4754968  21.5015101  83.8829517  23.6335373
   6.6537611  44.0634190  78.0786627   7.4649660  43.7237297  78.4565407
   6.7336551  45.0142037  78.1551474  34.7992945  61.7392302  45.3089952
  34.8170996  61.4806795  44.3875504  34.6444321  60.9227180  45.7839203
  69.9992188   7.4919837  20.9518170  70.0888451   8.4448855  20.9649110
  70.7879838   7.1711963  21.3890553  20.3386776  24.9818843  28.4714580
  21.1735241  25.4047244  28.6726260  20.2938930  24.9830096  27.5153065
  35.0321358  16.4780848  15.8231771  35.4964737  16.7234748  16.6234291
  35.4628267  16.9816058  15.1323819  15.1262319  72.9149151  33.5071278
  15.2767456  73.0983114  34.4344592  14.5793188  72.1293545  33.5040307
  67.0143700  69.5817280  30.8518243  67.1937037  70.2088642  31.5523767
  66.0594177  69.5239973  30.8207083  13.8381839  77.9511023  48.4779215
  14.5650637  77.9515362  47.8551245  13.6494982  78.8776922  48.6264563
  80.6141671  13.1331771  14.7774136  79.7819861  12.6625007  14.8240387
  80.4796799  13.9115947  15.3179812  14.4150392  40.0084816  80.3589046
  14.3763296  39.3856846  81.0847562  15.2876321  40.3967415  80.4227257
  17.4906969  71.2394667   7.0430797  16.7297411  70.7466698   7.3502123
  17.1189308  71.9927025   6.5841073 106.8129881  26.4353643  81.0544038
 107.4346479  27.1009861  80.7599246 106.2091144  26.3296972  80.3192830
  73.8626083  20.7304900   3.5464141  73.3830913  20.4291575   4.3180984
  74.2909440  21.5378898   3.8307661  72.9149771 100.8385277  10.1890659
  73.8542032 100.9791851  10.0694799  72.5512171 101.7187500  10.2845526
  27.6751033  41.9281422  79.9827724  27.5513498  41.2020145  80.5940455
  28.5010044  42.3300015  80.2522826  40.5779314  96.9496441   7.4216634
  40.2358103  96.1248016   7.0769745  40.6608772  97.5143051   6.6532171
 106.1230147  92.7722073  35.2673125 106.2703441  92.1771240  34.5321965
 107.0012159  92.9838657  35.5838537  49.3048151  16.4298575  28.0405927
  50.0305279  16.0017817  27.5863695  49.5930096  17.3358291  28.1519437
  19.5854402  99.4587708  25.4540324  19.5038581 100.3676796  25.7429194
  19.4623673  98.9423370  26.2505102  68.2929087  85.7933426  28.6043429
  68.8962317  85.1497269  28.2328773  67.6357174  85.2692413  29.0622187
 103.4279259  32.0799582  18.2520342 102.9764470  31.5585082  18.9157343
 103.2730635  32.9874270  18.5142267  57.8996619   8.6696570  30.1690912
  57.9387339   8.2766192  31.0410047  57.4973401   7.9962008  29.6206093
  19.6784747  43.2192469  18.2276857  19.4665742  43.4991360  17.3371840
  20.3058958  42.5057411  18.1115818  17.0176721  79.4664240  44.2417574
  16.4487374  79.6303272  43.4896374  17.8968990  79.6770620  43.9273977
  48.6885758   6.8620437  31.2660384  48.3406147   5.9761565  31.3678455
  49.1171952   7.0484775  32.1013594   8.3717632  73.1033802  11.7224860
   8.6797220  73.9951897  11.5610266   8.7184823  72.5939655  10.9900153
  32.8690481  86.9345284  17.1300793  32.1644497  86.4576530  16.6914916
  33.0074739  86.4579678  17.9485893  93.4476217  17.1162306  82.1323520
  94.3029507  17.4480711  82.4053466  93.4821685  17.1232306  81.1758011
  24.7284579  23.0248547  18.9088678  24.6572113  22.9780316  19.8622644
  24.6648073  22.1148396  18.6189508  65.4466820  91.6758537   5.4609632
  65.5454159  92.0778179   4.5978817  64.5044518  91.5345478   5.5529910
  22.7708173  62.9120207  15.7875335  23.0067110  62.0839214  15.3693974
  22.0145488  63.2242823  15.2907598  31.2811446  71.4701271  16.6622269
  32.1293998  71.6844130  17.0505273  30.8272457  72.3105335  16.5995812
  27.2214079  68.7724495  13.1980169  27.8515959  68.1120396  13.4860265
  27.6673961  69.6073246  13.3405268  39.6809077  60.6931067  25.1987791
  39.9453402  60.8316708  26.1082315  39.8122454  59.7565126  25.0512052
  28.3223844  84.9254036  29.7673297  27.6455116  84.8110104  29.1002560
  28.7797260  85.7258415  29.5096946  51.5058231  79.3640900  34.9886537
  51.7995405  79.5279169  34.0924835  50.5559778  79.2704821  34.9160552
  12.9602520  10.9128898  40.1273489  12.5059883  10.1881640  40.5570602
  13.7546341  10.5180877  39.7677565  98.6166032  35.4389225  79.6368009
  99.4787629  35.4946552  79.2247236  98.4101041  34.5042645  79.6346968
  17.4835372  62.3919106   0.9475367  18.2005036  62.5681496   1.5567432
  17.1302438  61.5486479   1.2309407  79.3801220  27.4659144  78.7520194
  80.2408733  27.0623671  78.8637757  79.3187841  28.1008373  79.4657004
  58.8803943   3.8878196  17.4534094  58.1219920   4.4246905  17.6832604
  58.6257537   2.9974311  17.6954877 107.5706871  44.6820293  78.7615216
 107.0813616  45.3911434  79.1785866 108.4894236  44.9021183  78.9155149
   4.6529380  18.9774548  66.7369026   3.8975064  19.5376669  66.9149893
   4.6166078  18.8190924  65.7935947  53.7916374  85.0077724   9.9417138
  52.8502512  85.1729774   9.8894680  54.0784264  85.4978943  10.7122755
  60.0556620   8.3762401  49.3450260  60.3841790   7.4934905  49.5155144
  59.1119202   8.2629340  49.2321491   5.7929605  56.8121862  12.1521974
   5.5198663  57.2644186  11.3539886   6.7198241  56.6182327  12.0124197
  67.1278294  18.1663840  38.8163686  67.0518144  17.4533790  38.1822658
  66.2230452  18.4036963  39.0195346   0.9509743 100.6035995  20.9397411
   0.5703848  99.8939323  21.4571905   1.0097367 101.3394451  21.5490961
  76.1754139  24.6278804  24.7018790  75.3050955  24.2771190  24.5127988
  76.7654999  23.8846057  24.5770669  97.1540411  56.3261639  79.2214989
  96.6565069  56.0436951  78.4540987  96.9126781  57.2450195  79.3385184
  23.5277518   0.1047748  24.9136567  23.1876644   0.8136695  24.3677235
  23.2212754   0.3138774  25.7960296 103.6299801  95.7902622  34.3112564
 104.2454624  96.3865948  34.7376466 102.7801895  96.2227058  34.3954325
 104.5546802  34.7185074  83.6877784 104.0756043  35.4435669  84.0890246
 104.0370568  33.9421593  83.9012682  61.4574440  36.2039035  20.5301118
  61.2715777  35.3215831  20.8513427  61.1359724  36.7830413  21.2211180
  19.8928630  73.2263613   1.7229961  19.3125904  72.6920223   2.2652087
  20.4693818  73.6645412   2.3489791  59.7214786  55.2704845  86.6063121
  59.3673221  54.8553501  87.3927370  60.6662742  55.1287304  86.6654430
  37.7835608  91.1506176  12.1670973  37.5042486  90.5061150  11.5168440
  38.0799055  90.6268787  12.9114842  26.0222697  59.0793324  41.9108725
  26.4992213  58.5232592  41.2948132  26.6634989  59.2894793  42.5897694
 107.3945244  59.2325340  83.1509667 108.0193098  59.8349701  83.5546326
 106.6655620  59.7901474  82.8791040  40.5744743  87.8134060   0.7667292
  40.4101181  88.2572746  -0.0652526  39.8838305  88.1312466   1.3482966
  18.6843109  82.2654057  39.3798852  17.8214061  82.0753384  39.0117812
  18.5129642  82.4686241  40.2994347  93.1822213   1.2460750  35.5632615
  93.0469616   1.7420524  36.3706875  93.6079749   0.4372542  35.8474827
   3.4301013  64.4798326  18.7898147   3.4699312  63.9914370  19.6120775
   3.9991158  63.9925337  18.1939995  37.5776982  79.5413685  18.0261981
  38.5091782  79.6886444  17.8622139  37.5572348  78.8449717  18.6825871
  18.4791938  23.0129276  69.2165917  18.8599483  22.1350657  69.1919023
  19.0563671  23.5399662  68.6640197  24.9973909  73.9745270  66.1460918
  24.8971740  74.7554623  65.6017393  24.1970006  73.9435421  66.6701573
  10.5766797  86.1841869  41.2325907  10.9081256  85.2954197  41.3609171
  10.2771604  86.4557171  42.1002293  90.1824339   1.6245311  59.8989105
  89.4694146   1.1177485  59.5103264  90.8525141   0.9737819  60.1080608
 106.5391810  87.8833485  55.7798147 106.3414815  87.5948238  54.8888016
 105.7033901  87.8222275  56.2423563  52.9778918  17.4674933  26.9258189
  53.5092219  17.2189658  26.1694098  53.5644837  17.9954570  27.4674845
  78.4492787  19.3598979  51.5677452  78.0241688  18.5039180  51.5147924
  79.3115624  19.1764300  51.9406271  12.7055204  92.7877617   7.1702695
  12.6842713  92.4078369   8.0485839  12.4794316  93.7084961   7.3020512
  13.1272614  81.4351940  38.2570267  12.5904822  81.5943527  37.4806452
  12.8544605  80.5704498  38.5636616  43.9134169  77.9761553  24.2281008
  44.8669386  78.0463362  24.1822386  43.5938883  78.6907911  23.6772585
  95.0951536  34.4357239  78.3434164  94.3842419  34.8565994  78.8268363
  95.1007493  34.8764168  77.4937170  90.6192072  12.6445716  16.8751776
  90.5326518  11.7941802  16.4443982  90.7765301  13.2606070  16.1596525
 106.9288977  32.0703922  86.1158845 106.4228590  31.8686234  85.3288334
 107.4813994  32.8097950  85.8623935  10.5090320  86.1375904  26.4496374
  11.2961793  86.2720490  25.9218550  10.1375234  87.0136642  26.5531301
  58.8690662 101.5834904  66.1497831  58.8288116 100.8438492  65.5435228
  58.8454914 102.3567581  65.5861092  23.3212161  53.8593483  36.2530112
  23.8687682  54.5635700  35.9058928  23.5035205  53.8552237  37.1926808
  28.1166840  99.0948582  28.6562991  27.1732235  99.2102432  28.5431457
  28.2581139  98.1547832  28.5445738  55.0821638  96.9622803  48.9619780
  55.6325817  96.8780708  48.1834078  54.5797825  96.1479759  48.9893579
   4.2134598  78.1075907  48.4967613   3.8410473  77.4252987  47.9381800
   4.8375762  77.6450777  49.0560389  46.5433455  99.7251987  20.8174181
  46.1707735 100.5762577  21.0478735  47.4860525  99.8347569  20.9420419
   1.2843195  38.7566696  75.7976502   1.4776961  38.0015217  75.2421397
   1.9716183  39.3894898  75.5893606  13.4429860  75.4089355  22.2729993
  12.9490554  75.8752871  21.5986252  13.0580366  75.7032967  23.0984664
  25.0482631  89.2976189  25.4829383  25.3215528  90.1059437  25.0491619
  24.4900823  89.5895004  26.2036848  18.2366729  73.2170343  34.4562697
  17.8160679  72.9606342  35.2769899  17.8974700  74.0939951  34.2770672
  12.8077197  70.4351950  61.0286665  13.2380426  70.8420038  60.2766275
  12.5809991  69.5552540  60.7277918   2.7797524  42.5641190  82.5650257
   2.4773208  42.4012791  81.6715765   2.7323381  43.5149609  82.6643789
  38.4364867  83.3103561  41.7516375  37.9819751  84.1196346  41.9855499
  37.8732061  82.9004478  41.0951900  86.5447493  56.9125210  72.7804821
  86.3563295  57.6816116  72.2426802  85.9256621  56.2493359  72.4752789
   7.0520991  68.5332823   1.1229704   7.4110663  68.5851097   0.2371438
   6.6045141  69.3698978   1.2493514  11.3281286  99.6947670  36.3460970
  10.6701875 100.2239513  35.8952022  11.9076014  99.3878460  35.6487823
  30.9658122  48.6615562  11.7259347  30.6244445  49.2454576  12.4032545
  31.0713172  49.2221975  10.9573114  15.9788811  92.5863934  14.1576409
  15.8901918  92.0797729  14.9649167  16.4043224  93.3992672  14.4305301
  40.4865789  76.1262226   5.2387285  40.5346489  77.0822144   5.2394003
  40.6387234  75.8793974   4.3264997  88.5965546  20.0167983  48.2252979
  88.0784853  20.5065864  47.5865936  89.4774254  20.3839915  48.1513309
  44.6324110  43.7645721  15.3611839  45.4831839  44.0136385  15.0001025
  44.1133213  43.5108519  14.5980299  75.7247289  18.8988727   3.2714659
  75.0185927  18.4403651   2.8160849  75.3466996  19.7457354   3.5084355
  38.4730268  93.1293774  20.2543807  38.8518786  93.6024761  19.5135140
  37.8015709  92.5703049  19.8634636 102.1689256  51.8187080  87.0132384
 101.5972098  52.5524746  87.2389861 103.0413087  52.2067963  86.9456105
  45.7781601  71.5333986  29.7866488  46.7237043  71.5192938  29.9349022
  45.4827261  70.6592655  30.0413036   4.1587297  12.5504051  85.6181884
   3.9360849  11.9845234  84.8789724   3.9970581  12.0094429  86.3911386
  99.3623527  76.8754421  81.6355306  99.1502531  77.5740658  81.0165238
  98.5147007  76.4975010  81.8697864  86.7999562  34.4869934  84.1743555
  86.2034901  34.8026215  84.8532068  87.0196923  35.2680718  83.6665481
  39.8226857  93.9155102   9.8892653  40.6851768  94.3273640   9.8370969
  39.6889305  93.7573338  10.8237803  81.4782238  80.4006100   5.2007121
  82.0397568  80.8487320   5.8332479  81.8364811  80.6446838   4.3473026
 107.2339787  88.3873177  46.8150806 108.1132267  88.6414814  47.0953560
 107.3752457  87.8733253  46.0200405  16.9939470  63.6698866   6.9626600
  16.9284701  63.1408072   6.1676621  16.6858661  63.0921507   7.6609010
  28.5921621  95.7089329   8.2918262  28.1056905  96.2226486   7.6470935
  28.4396005  96.1601925   9.1220820  20.2198434  75.8216858   8.5761416
  21.1285400  75.9913874   8.3277339  20.0806642  76.3582611   9.3564916
  18.1358087  82.8639984   4.8532575  18.3269143  82.1399879   4.2570004
  18.4017813  83.6473751   4.3717864  88.8327130   5.8931201  28.6697197
  88.7100848   5.9245246  29.6185136  89.3834313   6.6512149  28.4741735
  78.8068446   4.6225112  14.2794418  79.4626912   4.9471991  13.6624527
  78.0599221   4.3828052  13.7309170  38.4159279 100.4169941   3.3140853
  37.6136041 100.3678703   2.7943778  38.1694436 100.0642204   4.1690856
  95.5785616   3.6064284  21.6482306  96.3251265   3.0575507  21.8882394
  94.8478230   3.2515853  22.1545362  65.2001461  12.4219745  43.0661869
  64.4302615  12.9708522  42.9170465  65.4457530  12.1119349  42.1945286
  52.2750445  22.9651492   2.4348868  51.9270941  22.9837172   3.3264124
  52.4250611  22.0369285   2.2556098  36.6567230  43.4111977  20.1415586
  36.9958496  42.6654387  19.6465170  35.7251334  43.2213116  20.2525449
  87.9145320  23.8507305  81.4303905  88.5567232  24.4610964  81.0680651
  87.6886352  24.2196690  82.2842562  34.9461341  89.0021515  17.2167778
  35.3010559  88.5453320  17.9793859  34.8046541  88.3121300  16.5686464
  93.0497225  15.0410502  40.1365042  93.5795029  14.2700999  40.3394556
  92.8231486  15.4077189  40.9911680  88.2699069  24.7486918  22.5712848
  89.0632637  24.7692721  22.0361304  88.4535035  24.0957969  23.2467532
  13.0877161  82.9097462  34.9188924  13.8721216  83.4518528  34.8348713
  13.4167302  82.0108700  34.9194956  89.7641202  11.0650288  83.4326142
  90.1476987  11.9400154  83.4917301  89.0505179  11.1584793  82.8015274
  32.6213336  75.1754141   5.9631550  33.3633375  75.7412386   6.1764723
  33.0143499  74.3197823   5.7909143  50.0444516   3.3140033  29.9639297
  50.5951591   2.7783244  30.5349016  49.2194577   2.8320640  29.9059796
  38.6389279  78.3240891   4.2722884  37.8076410  78.5800934   3.8727152
  38.7156391  78.8837528   5.0450277  96.5323575  43.5107552  81.4691967
  96.7557796  43.9266239  82.3018837  96.9891246  44.0335594  80.8102071
  20.8784509  57.4285555   6.4524269  21.8293238  57.4311447   6.5622556
  20.5517340  57.9562235   7.1811610  88.8908549  29.5071541  76.4514273
  88.1535157  29.8357998  75.9370810  89.3384441  28.8967548  75.8655005
  95.6221072  36.8180609   7.3658943  95.6087319  37.5165462   8.0202419
  95.7726328  37.2703362   6.5358222  37.4729180  99.3231010  25.9853101
  37.2894239  98.4034920  25.7932520  36.8287063  99.8085690  25.4700017
  45.4485178  80.5844116   4.2190173  44.9812412  79.9352121   4.7447735
  46.3699913  80.3372955   4.2967892  59.3288954  26.9875377   1.9356200
  60.1518925  27.4391215   1.7485860  58.9989313  27.4097197   2.7287889
  94.0004834   2.7023929  23.6701775  94.3726834   3.2195704  24.3844748
  93.0977210   2.5350230  23.9408064  34.0585709  61.1359787  42.4836540
  33.5836601  60.4899740  43.0064964  34.9032950  60.7236385  42.3029709
  62.3270973  16.5456717  36.0382366  63.0290564  15.9312289  35.8239007
  62.3481830  16.6098159  36.9930530  99.3464832  66.3917303  16.8812239
  99.6032814  65.8194828  17.6042855  99.5515899  65.8886385  16.0931492
  20.4205441  93.1149960  20.1669955  21.3289189  93.3174515  19.9431729
  19.9044299  93.5432148  19.4839942   5.6178991  28.5317074  49.2289752
   6.2157861  27.9446159  48.7662786   5.4636470  29.2493282  48.6145967
  30.1189399  51.0127926  16.9460964  30.0401711  51.2466288  16.0212469
  29.3644190  51.4285088  17.3633575  94.3118723  20.7523768   0.9501963
  94.3627175  20.6264155   1.8977091  94.0348347  21.6624396   0.8440849
  57.8638538   9.8814856  74.5551425  58.2762118  10.4141174  75.2352136
  58.3996948  10.0308214  73.7761646  65.3580713  79.8489666  66.0927200
  64.5418739  80.1290989  65.6784964  65.6148815  80.5900955  66.6413689
  83.8429721  39.5769440  83.8576951  84.3800386  39.1917931  83.1652707
  82.9416045  39.4363724  83.5678535  16.0216069  88.6636353  29.1673279
  15.6547821  88.7340450  30.0486422  15.2967548  88.8959312  28.5869312
  58.1403971  95.8417511  29.3667221  58.3784342  94.9164581  29.3084502
  57.1861267  95.8487225  29.2921805  38.1785488  71.5235519  26.0804534
  38.5889673  71.9189024  26.8495321  38.3955598  70.5934906  26.1446548
  46.2616158  98.1422615  18.6844134  47.1896172  98.3219719  18.5335946
  46.1336231  98.3108997  19.6179092  55.2581140  25.1502364  45.9414291
  55.8569082  25.3391879  45.2189541  54.4578656  24.8433249  45.5152369
   1.9750921  68.3048105   5.5312699   1.3617568  68.4950304   4.8214328
   2.4972916  67.5712919   5.2064764  70.3189834  31.2819999  22.6829100
  70.7357415  31.9744914  22.1700835  70.9396823  30.5540030  22.6513410
  12.6205862  88.5424900   7.8108138  12.5717103  88.0652714   8.6391312
  12.0843446  89.3227291   7.9519069  27.7069449  81.5008354  36.7832017
  27.0416641  82.0462227  36.3634634  27.4614286  81.4929867  37.7083468
  62.7875710  91.5032959  49.6719170  62.2944403  90.7411003  49.9754143
  63.5424089  91.5493679  50.2587128  94.7153243  21.1171668  36.5995741
  95.2285155  20.7161944  37.3010612  95.1617011  21.9444602  36.4190769
  71.9781192   4.2885917  35.0732470  72.2870644   5.1856082  35.2003121
  71.2386831   4.2024558  35.6749511  28.0835239  52.5919663  83.8641456
  28.2751504  51.9565140  84.5538625  28.8987962  52.6591145  83.3670979
  48.0408430  94.1141319  42.5569105  48.6706781  94.5145416  41.9575596
  47.9870081  94.7256184  43.2913589  73.8761552   7.1229499   6.1865115
  74.7606643   7.4315780   6.3830441  73.3281549   7.9043906   6.2591761
  16.5932218  28.2239233  56.2954706  16.9305412  27.6171337  55.6364935
  16.6954748  29.0891396  55.8990186  48.1880713  98.0184746  10.9349763
  48.0209446  97.7363968  10.0356817  47.7362251  98.8589573  11.0102522
  86.8740090   2.9643767  40.3761959  86.9058903   3.2663577  39.4684410
  87.4257096   2.1822494  40.3879452  99.6216067  19.0530246  19.1814518
  99.3428620  19.9467795  19.3808234 100.5749567  19.1084331  19.1160452
  27.6033020  95.1744175  53.7578583  28.4233475  95.2106094  53.2654667
  27.2215533  94.3279552  53.5254622 105.7341774  86.7736565  71.4692145
 106.5026792  87.1364819  71.0287589 105.5504807  87.3907410  72.1775216
  93.1235818  67.5007343  36.7137837  93.6433248  66.7378616  36.4605618
  93.1080322  67.4731159  37.6704574  49.1891861  44.4780111  13.7610066
  49.4070625  45.1214266  13.0866313  50.0160503  44.3187475  14.2161584
  23.1831829  21.2218039  13.5275066  23.3271591  21.5060180  12.6248860
  23.5755626  20.3497260  13.5694873  91.6127833  28.0572837  17.0342839
  91.1204537  27.5015490  17.6384366  92.5307282  27.8699534  17.2305286
  60.3727277  18.9381068  41.6627979  60.2632531  18.5146754  40.8113527
  59.5628055  19.4319957  41.7905807  60.2378043   5.6240313  49.4080496
  60.7261857   5.4740851  48.5985851  59.6361216   4.8818152  49.4657421
  60.7266426  88.7034607   4.4121522  61.5783548  89.0350246   4.1277602
  60.8320522  87.7521706   4.4248912  35.3782010  82.7783966  59.8333359
  35.3060341  83.7207699  59.9848747  36.3184619  82.6019859  59.8652649
  19.9880306  12.8674262  56.8151140  20.4077140  13.0915873  55.9845448
  20.6281368  13.1164687  57.4817991  73.9611753  25.1342147   8.5108012
  74.6085938  24.7346919   9.0917152  74.2319640  26.0498851   8.4441090
  72.4448156  77.0086050   3.4862763  71.7661715  77.4876118   3.0106467
  71.9620371  76.4588070   4.1034293  81.6191395   4.1319888  36.5407777
  81.6049202   5.0599902  36.7749763  81.7310055   3.6761229  37.3749876
  92.0660933  31.7029517  25.1101637  92.7008017  31.1857169  24.6143389
  91.7940434  31.1272471  25.8248568  42.3547077  75.5537796   9.9438584
  41.4480495  75.8118820   9.7777802  42.3011494  74.9584436  10.6914806
  52.8613997  84.7017670  13.8986504  52.5293779  85.3781891  14.4889367
  52.0786381  84.3448544  13.4789705  10.5686510  95.2399635  26.1762428
  10.7503438  96.0584354  26.6381264  10.9081590  95.3830433  25.2927876
  48.0609655  77.4090767   3.3516732  47.3255920  77.8499794   2.9261589
  48.6947298  77.2674608   2.6484513   7.2789997  90.1684952  20.8271599
   6.4767790  89.8299503  20.4295897   7.8419602  90.3846550  20.0837994
  87.9996165  10.8417743   2.3827200  87.5476225  11.6367381   2.0999405
  88.5080060  11.1141723   3.1466395  59.3394232  87.2879219  38.0399966
  59.2137194  87.2558212  38.9883637  58.5377598  87.6901054  37.7056074
  58.1246956  12.1367972  61.3816833  58.3254488  11.7666762  60.5220699
  58.9495715  12.5244945  61.6740942  65.5011543   5.5853599  10.6745172
  64.6241816   5.2992862  10.9300697  66.0831126   5.1730292  11.3129067
  87.3874434   6.5569060  49.4970179  86.9625004   6.0974448  48.7727594
  88.2753952   6.2001269  49.5189142  80.8682736  11.6817611   5.8191258
  81.7659195  11.7792933   6.1368525  80.9654435  11.3957160   4.9108481
 102.0883401  23.1793438  71.6868108 102.5686057  22.4491011  71.2965244
 101.8849834  23.7539898  70.9488016   3.2098047   6.5042251  20.3120208
   2.8160183   6.8012946  21.1323333   3.6434786   7.2812503  19.9593306
  95.9829720   8.6213337  85.9741917  95.2861555   8.9795004  86.5240968
  96.4758976   8.0444180  86.5576531  69.8279580  17.4524634  13.3609533
  70.7835515  17.3975413  13.3536839  69.5413025  16.5969603  13.6806154
  41.6611767  78.5994339   1.0474031  40.9331894  78.1349945   1.4603938
  41.4932013  78.5212898   0.1083031  65.9189034  71.5725613  17.8759694
  65.6557846  71.3766575  16.9767356  65.9378195  72.5286913  17.9170859
  90.2466067  28.2427543  22.4169922  90.5752810  27.7171176  21.6876650
  89.4575127  28.6618941  22.0736504   2.6843014  68.2321167  10.6935227
   2.1640866  67.8035975  11.3732147   2.1657076  68.1307411   9.8953909
  57.0327266   7.1930449  40.6096315  56.9650229   8.1402533  40.7297707
  56.5770110   6.8225615  41.3654757  61.9963988   5.6885474  59.9705839
  61.8844398   5.9096759  59.0460300  62.3487195   4.7985785  59.9630260
  35.1523709  91.5762997   1.7210475  34.2236972  91.3476849   1.6818832
  35.6088638  90.7392216   1.6365130  59.4763613  83.2355404  43.2132339
  60.1511669  83.9060974  43.1072426  58.6712074  83.7287521  43.3704185
  64.7943171   3.1385272   0.9704828  64.5925029   3.7870639   1.6449480
  64.7417434   3.6245292   0.1475185   6.7980091  -0.0203664  62.5584984
   7.6166383  -0.2107293  63.0165720   6.5393011   0.8435481  62.8793669
  20.0533247 101.7245293  14.5166159  19.3849063 101.6792965  13.8329458
  20.1834178 100.8149529  14.7849309   6.5271084  22.0862334  20.8556199
   7.1100036  21.3622802  20.6267881   5.6653396  21.6799205  20.9477663
  85.7640942   7.1651500  69.9427605  86.2577256   7.9793590  69.8446131
  85.0777682   7.3759883  70.5757999  86.4897021   6.2018435  35.4390359
  86.6323765   7.0219653  35.9115648  85.6316384   6.3081878  35.0283742
  67.4058779  24.5049231  13.1226087  67.4397644  25.0071948  12.3084784
  68.1940373  23.9621394  13.1021476  57.8739842   1.8864673  24.9692941
  58.3334383   2.1573871  25.7641125  58.1913932   0.9994929  24.7996950
  54.7722836  22.9842704  39.9589896  54.5360073  22.2599070  39.3795919
  55.7288905  23.0079120  39.9350166  76.2445839  21.7279189  19.6936846
  76.5699490  22.4220508  20.2668738  75.6100901  21.2523215  20.2298331
  59.1987085  94.7672462  39.8140407  59.1072416  93.8350868  40.0113821
  58.6899948  94.8935509  39.0131116  54.6636280   8.3009665  18.4114695
  53.8419612   7.9092162  18.7074959  54.6234461   9.2053836  18.7223387
  58.7695249  10.1265948   9.3879277  57.9751810  10.4047912   9.8438394
  58.7658390  10.6280940   8.5726273   7.3615400  53.1693874  70.7222622
   8.2838050  53.3289848  70.5218047   7.1880189  53.7065445  71.4952939
  92.4239977  32.3642009  45.2384615  91.9569119  32.0809596  44.4524384
  91.7640170  32.8253501  45.7561541  18.9112830 100.5872631  41.6772842
  18.8573658  99.7860622  42.1982384  18.0080509 100.7625675  41.4133263
  34.1462874  80.1223087  48.8166380  34.2232394  81.0293579  49.1125774
  33.6635542  80.1795387  47.9920626  76.8455370  35.2157157  23.4215450
  76.5943345  34.8818057  22.5603652  76.2862786  34.7397273  24.0354586
  55.4210826  20.2012961  23.0813932  55.9641250  19.4335120  22.9029465
  54.5304962  19.8558085  23.1424427   8.5007183  41.7913757  82.8698003
   9.2673770  41.2387024  83.0214900   8.7726680  42.6626144  83.1582716
  49.2203236  92.6955700  31.1178231  48.3913708  92.5345516  31.5685368
  48.9695835  92.8721237  30.2110767  98.9650210   8.1500994  77.8333050
  99.4712528   7.7587257  77.1214133  98.5892685   7.4029337  78.2989102
  25.9201900  55.3269516  82.2459590  26.6995660  55.0203548  82.7094227
  25.9863273  56.2815224  82.2715544  57.0250082  85.4614639  19.0843618
  56.0800600  85.5963326  19.0128362  57.2662783  85.8880329  19.9065876
  79.6374798  93.4964848   0.7709897  79.1516876  93.9880466   1.4332658
  78.9932346  93.3155155   0.0865750  96.1179690  58.8117361   9.1727453
  95.2332894  58.5604334   8.9073783  96.4315693  59.3707371   8.4618276
  32.1840564  49.1269623  80.7278019  32.9489557  49.2287861  80.1614147
  31.6410438  48.4766327  80.2823305  79.0954503  22.7343123  36.5725517
  78.8435038  23.6475127  36.7097640  80.0192078  22.7007811  36.8211007
  54.4860888  90.6929016  28.0514884  54.6225023  91.4505577  28.6203218
  55.2000952  90.0952148  28.2733011  77.5725564   5.1611941  55.2371836
  77.3866518   5.2332251  56.1733913  77.6128396   6.0670703  54.9306011
  47.2228432  89.6981621   1.6907699  47.3130369  89.7266960   2.6432836
  46.2782574  89.6598911   1.5406713  34.0419809  52.0674072  78.7214124
  34.4330446  52.7403484  79.2785942  34.7468130  51.4358269  78.5780382
  26.5654445  84.2171288   8.0608475  27.2440362  84.2031288   8.7357897
  26.9951010  84.6024132   7.2971845  31.4400268  88.9375877   7.2338969
  31.0992312  88.0537415   7.0964074  32.0982385  89.0498734   6.5480518
  56.0044861 101.5558434  12.6997709  55.9355497 100.6186485  12.5176752
  56.6779995 101.8683052  12.0956373 106.4315074  56.6618824   2.0826466
 106.0287013  56.6159439   2.9497501 106.9627373  55.8678675   2.0229587
  10.9072232  71.5171909  21.2725019  11.4677107  71.7525101  22.0118999
  10.9747386  72.2614574  20.6743860 105.2928265  30.1187550  78.8408136
 105.8350547  30.7889591  78.4248221 104.9158486  29.6282803  78.1103629
  30.3564793  72.0476978  87.4653922  30.4259640  71.7295235  86.5652989
  29.6813863  72.7252811  87.4284652  42.1498346  57.0866537  11.9317436
  42.2232771  56.1553144  11.7233217  42.8599930  57.2499180  12.5524294
  51.9666052  34.0892768  15.6273043  52.2074127  35.0097704  15.7318771
  51.0168695  34.1021490  15.5087042  32.1749949  41.4339733  14.6566975
  32.3252606  42.1609116  14.0523648  33.0294180  41.0103989  14.7390008
  18.4106493  41.7034483  10.4585636  18.3711398  40.8713245  10.9299886
  19.2640555  42.0697689  10.6903791  17.7793849   8.4404236   0.3355918
  17.8614330   8.4295082   1.2892064  16.9527400   7.9904675   0.1611527
  91.1376842  13.4402834  86.7883546  91.4274247  12.6567684  87.2556708
  90.4905005  13.1190859  86.1604899  12.0910656  14.0110421  26.6008496
  11.4271653  13.4674656  26.1765957  11.9978225  13.8185036  27.5338387
  46.0953283  42.1098137  11.9591451  45.2290440  41.8888092  11.6171837
  45.9374857  42.8401041  12.5574684  20.6765938  58.1277323  10.6722832
  21.5709591  58.2110023  10.3415108  20.7508588  58.3031273  11.6103411
  33.2353616  60.3524065  52.6729822  33.3691311  61.2636423  52.4122429
  33.5535979  60.3121471  53.5748339  15.6301880  37.4600053  48.3013535
  14.6823394  37.5733089  48.3719015  15.7388806  36.6046023  47.8857803
 107.8320265  67.0745044  80.0044697 107.1953964  67.6198416  79.5423662
 107.8000307  66.2322789  79.5507490  39.8086065  87.6400846  75.6326657
  39.0644681  87.6477974  76.2346881  39.9449295  86.7140906  75.4322129
 106.9695234  83.0324286  67.5994342 107.7685404  82.8007334  68.0728501
 107.1899938  83.8424008  67.1394700  43.3868933  65.0102186  21.3257575
  43.2929707  65.9486437  21.1621523  43.0230474  64.8822260  22.2018099
  20.7101083  50.9301186  16.1260355  19.8240364  51.2296009  15.9225249
  21.2801313  51.6192150  15.7847953  45.1063585  81.0549348  67.2700113
  44.5762688  81.8182057  67.4994749  45.6208712  80.8753222  68.0569333
  52.4641132  67.7109003   0.5207734  52.7091408  68.6072350   0.7505076
  53.1791019  67.1726418   0.8603229  11.8918180  35.1076126   0.7393112
  11.9758236  35.8869576   1.2886727  11.9046116  34.3765831   1.3570991
 102.9657338  46.2501717  34.6922588 103.5483099  46.9922590  34.5305586
 103.4016166  45.5078411  34.2737126  16.2618530  52.6715279  45.1307487
  16.2242806  52.6490688  44.1745472  16.9361138  53.3214521  45.3287506
  51.4525127  62.1463490  26.1296701  50.9288359  62.9470110  26.0991430
  52.1810532  62.3137236  25.5317998   8.4694153  32.7856851   2.6494795
   8.8006902  33.6510682   2.8894746   8.0284649  32.9221153   1.8109208
  25.9624076  25.1025891  16.2188566  26.7786527  25.5152059  15.9365046
  25.8050108  24.4153190  15.5714643  77.4646546  10.3071581  83.5130059
  78.3440145  10.4030262  83.1472629  77.0231267   9.7000347  82.9191315
   8.3108318  39.4463801  60.3590155   8.5989386  39.8955631  61.1536598
   8.9374685  39.7194600  59.6889496  68.9271140  96.1484330  81.1311358
  69.6887588  96.6149991  80.7869696  69.1112852  96.0450929  82.0647490
  19.1718280  22.1974659  17.3058736  19.1612530  23.0343747  16.8414342
  18.5181260  21.6642547  16.8535554  82.5274992  96.3840240  65.3696888
  82.4176884  97.2171586  64.9113649  81.8708181  96.4052289  66.0657853
  54.7631693  65.7202530  20.9866428  54.5946312  65.5398607  20.0618267
  54.6579933  66.6681004  21.0688210  27.9348731  56.9218540  19.9230778
  28.5978842  57.4439335  20.3748298  27.1036530  57.2159195  20.2956820
   7.9861438  44.6438169  17.6375556   8.4807539  45.4621172  17.5930822
   8.4849530  44.0950441  18.2427573  24.1863632  59.2779160  12.6876569
  24.0187693  59.9662304  12.0439398  25.0858712  59.0008831  12.5133908
   9.8819486  17.8179537  77.1939701   8.9256660  17.8560291  77.2115439
  10.1052228  17.1200596  77.8098601  38.1188631  97.2534943  15.0091517
  38.0690575  97.0014477  14.0870774  37.7672076  96.4997101  15.4828334
  86.4329330  59.0697002   0.3804002  87.1287505  59.5078850  -0.1095585
  85.6873218  59.6672773   0.3238700  21.1514497  60.9093761   6.5873092
  21.9889116  61.0268974   7.0357233  20.6428528  60.3484488   7.1729076
  80.2274370  80.4511755  87.8848021  79.6018982  80.0727313  88.5026293
  80.3938627  79.7512096  87.2534683  64.0468073  78.6289852  55.4213065
  64.5625210  78.9504092  54.6817392  64.2870855  79.2032521  56.1484331
  25.3212643  38.3734989  13.4357941  25.9334183  38.9400172  13.9054263
  25.6809735  38.3137989  12.5507653  39.6427965  42.3812151  37.3144197
  39.5777464  42.7421522  36.4302683  40.4031038  42.8194380  37.6966810
 106.0648346  78.4246843  82.9149037 106.5143251  77.6808565  83.3160424
 106.2041044  78.3100980  81.9748473  54.7958660  56.6478014  30.7777262
  54.2374420  56.4862680  31.5381861  54.2564869  56.3986349  30.0272465
  28.6886430  45.7384014  20.3302503  27.8434110  45.7872629  19.8836756
  28.7108517  46.5168762  20.8867669  87.4781799 101.2146752  71.7047840
  87.1489572 100.9409278  72.5608831  87.6572990 100.3951305  71.2438112
  99.4950179  60.0717306  18.8999355  99.3821428  59.2738056  19.4164681
  99.2596565  60.7801819  19.4990492  12.2168207  58.0879354  49.3776941
  12.0651662  58.3173752  48.4608555  11.5190268  57.4673367  49.5878649
  56.3063002  88.5906792   6.9118148  56.4997673  89.1392803   6.1516589
  57.1316338  88.5512829   7.3950380  47.6992369  21.1394167  33.8842082
  47.2711420  20.8132744  34.6757865  47.4581671  22.0649552  33.8455439
  48.3877420  13.2880044   1.4361632  48.9824486  14.0341735   1.3600814
  47.5222397  13.6817777   1.5460496  19.5963848  27.7088833  35.6495881
  18.9520550  28.4157729  35.6124997  19.0782380  26.9208527  35.8131838
   4.1917745  25.5103527  82.5663697   4.1233484  25.6776415  81.6263884
   3.3202402  25.2061258  82.8195685   5.3206909  81.0060215   6.6759497
   5.2077353  80.5144691   5.8624071   5.0478482  80.3979778   7.3630238
   6.9750422  37.2719049  13.4734011   6.8272454  36.3681126  13.7518704
   6.1934143  37.7425647  13.7628281  63.8603588  33.0525337  77.8911084
  62.9807933  32.7566086  78.1256836  64.2377766  32.3197399  77.4044853
   8.0875957  86.0597801   4.5115790   8.0329663  85.1679230   4.8548445
   8.1438082  86.6132069   5.2905446  32.7136445  90.8669853  15.5609167
  33.3999324  90.4728889  16.0993683  31.9000149  90.6600952  16.0207379
  22.1091548   7.2444092  81.0157430  21.2570611   6.9746672  80.6731021
  22.3830120   6.5179764  81.5756839   6.7652464  66.9924831  17.7595437
   7.6763552  66.7385292  17.6125073   6.8212014  67.8354645  18.2095277
  18.8258612  40.5269289  35.4993582  19.2278504  39.8023963  35.0201011
  19.5167029  40.8406353  36.0829329  98.4123476  20.0352226  76.2591618
  98.2049139  19.7239624  77.1402508  99.2445381  19.6131407  76.0457700
  48.3999968  24.9987054  17.0836461  48.0833197  24.9403906  17.9850602
  48.2281446  25.9048605  16.8275583  67.2254634 100.4651826  71.2304884
  66.5494442 100.5064815  71.9068962  67.6067853 101.3430780  71.2190574
  14.5481467  53.2453918   0.7215454  15.3915286  52.8744078   0.9809856
  14.1353524  53.5016870   1.5462555  68.3025937   2.1579538  67.9656261
  68.4739773   2.3854862  67.0517939  69.1659205   2.1603762  68.3790189
  70.8623051  84.2480987  71.7380351  71.7320728  83.9614981  72.0165974
  71.0222030  84.7672575  70.9499103  23.7459318  11.9089209  87.0832980
  23.2983200  12.7316223  86.8857272  23.8203136  11.4675366  86.2372021
  60.0805950  50.1946831   3.7746850  59.4897318  50.0547123   3.0347401
  59.6346807  50.8447742   4.3176180  10.9372330  65.9617281  31.6185212
  10.9397197  66.9131899  31.5139079  11.8618274  65.7270813  31.6978645
  21.8215704  47.6724768  41.3790274  21.6887546  47.8594542  40.4497099
  21.1626577  47.0099211  41.5865898  38.7632561  55.2252293  45.9081697
  39.3465281  54.8077154  46.5419769  39.0794730  56.1267710  45.8493280
 102.9705016  57.5526476   9.0457457 103.5906608  57.1886063   9.6774942
 102.2227655  56.9556665   9.0728569   7.8848988  18.4429395  30.5749011
   8.0921072  18.9593494  31.3537574   8.5892403  17.7969682  30.5214643
  87.3782913  35.8711052  52.2526217  86.7322342  36.4678192  51.8747663
  87.5629918  35.2440858  51.5533590  22.7870703  49.2183304  19.8671722
  23.5420251  49.5792723  19.4024169  22.4547601  48.5324907  19.2880142
   5.5861688  63.5309172  33.4893417   5.4952073  62.5995350  33.6905384
   6.5135330  63.7179804  33.6350656  34.7644210  91.7200947   6.7878807
  35.6281281  91.3251877   6.6683471  34.1897488  91.2189102   6.2092620
  37.8695774  52.8275204  22.2387457  37.5742745  52.1572304  22.8549743
  37.5269866  52.5418758  21.3918281 101.3781176  53.6533213  30.3746510
 100.8741031  52.9016161  30.0629687 101.9103257  53.9132452  29.6227026
  16.3190937  20.6122565  15.9041858  16.5129554  19.9447095  16.5622377
  15.7055831  21.2052155  16.3380468   1.7238943   6.0877739  77.2086721
   2.0271651   6.9512449  76.9281703   1.7113487   5.5660091  76.4062792
  26.7958832  60.5552530  21.7430830  26.9046211  61.0370636  20.9231639
  26.3528109  59.7459173  21.4883471  65.8532000  65.1020098  11.4307153
  66.0268784  65.5731058  10.6157684  66.6470289  65.2236843  11.9515443
  39.1620588  25.4122925  20.9373641  38.9436603  25.5938864  21.8514514
  39.2698550  24.4618726  20.9011221  89.4576951   1.6431509  85.9983232
  89.2306085   1.9181906  85.1100567  88.8931032   2.1700226  86.5638986
  25.9254169  51.9029331  14.2395186  26.7924476  52.2254848  13.9936483
  25.3692627  52.1158981  13.4901381  11.9652379  40.4583216  34.2457056
  12.0249784  41.4124441  34.2937970  12.5257051  40.1471186  34.9565220
  37.5908971  64.2542982  35.3106833  37.6476121  64.7013950  34.4662213
  37.4101925  64.9527121  35.9398079   5.5161941  83.3781433  24.3513131
   5.4835814  84.2808723  24.6679306   4.9010435  82.9053307  24.9119139
  21.6436076  55.1470184  60.9129620  21.9354677  54.3024445  61.2561035
  22.4422455  55.6716776  60.8569050  27.7464223  92.2700882  19.7181225
  26.8909502  92.3556805  20.1389241  27.6640296  91.4942360  19.1636062
  21.0125637  39.6795321   6.0659957  21.2108803  38.8352370   6.4710486
  21.8565965  39.9938250   5.7418621 107.7578589  44.3281317  32.4350524
 107.4993722  45.0656986  32.9876876 107.0413944  44.2368650  31.8068957
   1.1022629  71.0315132  29.2453790   1.9968173  71.1027622  29.5784378
   1.2034288  70.9885025  28.2945132 101.5530197  47.9152775  16.5036285
 102.0330129  47.1564484  16.8353188 101.7708234  48.6212158  17.1122706
  49.2263222  41.9924736   5.4087120  48.4919977  42.1216154   6.0089761
  48.9426136  41.2828398   4.8323753   3.8262153  32.0671678  18.5482800
   2.9302633  31.8317938  18.3072388   3.9567518  32.9352069  18.1665683
 106.4970573  40.7757616   5.0464618 105.7939896  40.8797169   4.4052744
 106.9916408  41.5936232   4.9942976  54.2929792  39.9251390   4.1838935
  53.5225010  40.4737473   4.3309402  54.0997124  39.4528794   3.3740479
  99.5456253  24.2777658   8.0439657  98.6248980  24.5341730   8.0963856
 100.0184993  25.1032686   7.9382980   5.5774538  24.0988241  84.6180910
   5.1971141  23.7535797  85.4257929   5.1314394  24.9346767  84.4815063
 104.5148977  20.9623943  75.2825838 103.7417205  20.4293667  75.4678040
 105.2546724  20.3920971  75.4916912  -0.1406530  71.1887360   2.5286487
  -0.1056510  70.5954742   1.7782819   0.4570150  70.8014822   3.1682289
  97.1477699  96.7065995  81.2350285  96.7723751  96.9868892  80.4003137
  97.9865599  97.1648877  81.2863469 100.4318730  59.9482679   9.5205432
 100.5553703  59.2616415   8.8651651 101.2904094  60.3647900   9.5957541
  31.5826011  92.4586201   5.2652234  31.6789412  92.2069168   6.1836982
  30.6481290  92.3554420   5.0853574  22.6464558  51.4130354  25.8131528
  22.8550959  50.4823256  25.8936334  21.9767761  51.4501858  25.1302314
  48.7695312  62.4667168  24.0648293  47.8883982  62.1060753  24.1636634
  49.1271353  62.4720335  24.9527049  20.7021141  43.3546352  10.8951306
  21.4652419  43.8872194  11.1192322  21.0556960  42.6408911  10.3642976
  16.7060924  59.5486784   8.8071203  16.3836718  59.3294144   9.6813059
  16.9291532  60.4780102   8.8602293  40.6088653  91.7177623  71.6607803
  40.7334903  92.5452369  71.1960381  39.8725962  91.8824428  72.2498637
  18.9370501  48.8654232   1.9986676  18.4837520  48.3446693   2.6616675
  18.7592304  49.7732925   2.2443862  64.4363117  80.2356339  23.9118195
  64.7148895  79.5661020  23.2870340  64.2910862  79.7563887  24.7275782
  64.1807862  23.2315718  85.3956148  64.4309821  22.5666462  86.0371047
  63.7132450  23.8927828  85.9059450 102.1688603  72.4627972  39.3495631
 102.9374341  72.1384811  38.8801527 101.5352039  72.6645470  38.6610818
  35.5963302  88.7896347  12.6431847  35.9653926  89.2552757  13.3936524
  34.7514844  88.4648991  12.9546583 106.3228698  56.4166498  14.4298184
 105.5655469  55.8316994  14.4068015 106.1604972  56.9893074  15.1794386
  83.3884462  16.3271938  77.9720753  82.8681930  17.0635544  77.6506060
  83.8829692  16.0315405  77.2077006 105.9781004  22.0750427  31.4145708
 106.6311080  21.4539742  31.7371941 105.8374083  21.8222737  30.5021310
  25.1843429  97.0192814  19.9127209  25.3764510  96.6187859  20.7606149
  24.3272018  96.6685104  19.6708488  22.4181294  87.2818851  36.4874291
  22.8399611  86.5300941  36.9034863  23.1440544  87.8127480  36.1596346
  13.8922167  56.9379187  12.0661032  13.7068617  56.1973810  12.6435804
  14.6082926  57.4044323  12.4971831  20.9411263  60.7334995  12.2662342
  21.0729003  60.1572132  13.0190694  20.0086355  60.9483385  12.2893810
  40.2499533  91.2747860   3.9847472  40.1138592  91.9259262   3.2964623
  39.4523311  91.3138294   4.5124808  32.1138191  81.3402271  20.5383921
  31.5104389  81.3232517  19.7955072  32.4337959  80.4407597  20.6076694
  45.3519011  49.1535568   6.5204424  46.0188293  48.5701323   6.1584270
  44.5747423  48.9895916   5.9862381  22.5293231  66.5712166  10.0692892
  23.3590984  66.7863560  10.4952252  22.7273822  66.5951395   9.1331095
  97.7798899   9.4965206  68.1123751  97.4100312   8.6384092  67.9048246
  98.6303719   9.3018852  68.5061127  29.9988929  20.7109295  87.8394815
  29.6961013  20.7389914  88.7470948  30.4837362  21.5280424  87.7233717
  10.9134173  82.0053673  36.3512993  11.6635525  82.5186348  36.0511684
  10.6407571  81.5067863  35.5810356  79.3279233   9.1346870  63.7381190
  78.6736377   9.8172270  63.5888546  78.8460960   8.4324871  64.1751450
  93.2872152  88.3979123  63.2190603  93.7282896  89.2465704  63.1808060
  93.9836502  87.7752011  63.4274906  19.6765939   1.8386780  84.0428009
  20.5574934   2.1466194  83.8296878  19.1895811   2.6347242  84.2557794
  48.4994364  57.5262070   4.5736313  47.6566076  57.0832634   4.6719658
  48.4992075  58.1960344   5.2574164  76.0101079  32.9505859  79.8944932
  76.1185165  32.7102314  78.9743238  76.2879582  32.1734558  80.3793657
  58.1234741  49.6007109   1.9215915  58.3228397  49.2560911   1.0511191
  57.3944569  50.2043962   1.7790006  16.1413634  88.2605743  14.7810853
  15.8836544  87.6251507  15.4489589  17.0003796  88.5723400  15.0659025
  96.5778025  63.2888733  59.1610545  96.0489066  62.5318943  58.9091104
  97.3629483  63.2241188  58.6173790  56.9015598  43.6823654  23.1383896
  56.6978741  44.1994953  23.9176941  57.1420145  42.8206778  23.4788513
  67.2229147  48.3845043  23.6384678  67.6418114  47.5247669  23.6785936
  66.5648460  48.2983351  22.9487157  23.0030481  11.7938267  79.4053220
  22.6491634  11.4201580  80.2123952  23.6508838  12.4332748  79.7013819
  87.1135418  64.5279217  14.1464102  87.8070847  65.1875877  14.1547024
  86.3053958  65.0286245  14.2578804  32.1946430  74.6041012  30.5881214
  31.7274785  73.7687683  30.5735970  32.6432705  74.6129560  31.4336324
   8.0612475  98.6238956  20.9224176   8.0638939  99.5604229  21.1202908
   7.5819743  98.2268047  21.6496325  69.4828618  19.6536385  70.9732085
  69.0880628  19.3003594  70.1759857  70.4075917  19.4150387  70.9085697
  27.5322334  47.4060856  75.6872123  27.3521940  46.6108643  75.1857668
  27.0214120  48.0865418  75.2487188  15.3222430  70.1651335  31.1701894
  15.9955657  69.6313524  30.7483554  15.1195347  69.6982861  31.9808626
   0.8058445  14.4849859  75.4908031   0.4264967  13.9623438  74.7842818
   0.3169433  14.2236363  76.2711280  19.0859652  36.2069893  24.5599461
  18.6159205  35.4286671  24.2607713  19.3986142  35.9764600  25.4347825
  30.6109810  97.6483822  13.5550559  30.2434325  96.9935513  12.9614723
  30.6583381  97.2044086  14.4017434  10.7251477  43.4884834  40.5455208
  10.3720200  43.1315899  39.7305608   9.9579686  43.6153126  41.1037159
  80.4534986  16.9120108  76.6596323  80.5142190  17.7462612  76.1942667
  79.6664651  16.9948517  77.1980995  17.2396600  67.2373772  36.3458991
  18.0425251  67.6032209  35.9746838  17.0062041  66.5223551  35.7538962
   5.6804983  49.3396317  82.5257551   5.0170080  48.6587082  82.6368725
   6.2561409  49.2391430  83.2838919  72.1357374  24.2491518  75.2538198
  72.6146930  23.4390246  75.0791067  71.2268611  23.9706122  75.3660255
  19.7748041  95.2534103  35.8179998  20.6360531  95.0142002  35.4755640
  19.6570420  94.6914577  36.5838766   3.5789553  75.7868801  79.8635268
   4.4748250  75.9027134  79.5469278   3.0979387  75.4553829  79.1052609
 105.8844871  80.7429314  33.1009984 106.7405643  80.5404186  33.4782910
 105.4090906  79.9125195  33.1262875  35.3465700  70.4006863   5.3582072
  34.5261502  70.1060867   4.9627945  35.2170372  71.3369894   5.5091733
  22.3144666  49.3105446  55.4890245  21.4577571  48.8850437  55.4539865
  22.8239957  48.7734829  56.0958022  28.3683181  59.6324110  14.6390676
  29.1281223  59.3507671  14.1295516  28.3747077  60.5871487  14.5708048
  69.4475460  82.2163486   2.9543442  69.8731756  82.2847557   2.0997146
  68.9753294  83.0430317   3.0535921   8.4977347  76.1043882  14.5296431
   7.8677642  76.6080475  14.0141857   8.8668728  75.4759073  13.9091742
  99.2143019  10.8165251  83.4448132  99.3348440  10.2073942  82.7163511
  99.7977622  10.4894911  84.1295439  67.3078515  38.4062325  86.1555971
  67.3421427  39.3565117  86.2652540  67.1796872  38.2780586  85.2157157
  19.0226126  95.0602913   6.4046800  19.8982751  94.8306179   6.0937190
  18.8846445  94.4992256   7.1678317  55.1787376  99.8021119  87.4639228
  54.8479199  99.5889657  88.3364816  56.1309409  99.7996085  87.5615787
  42.8766537  27.3512864  43.9618492  41.9713974  27.3933077  44.2700386
  43.1162500  26.4285302  44.0475464  53.2987547  59.8746967   1.9951805
  53.7222385  60.5612135   2.5105357  52.3796892  59.9084949   2.2605236
  33.7219620  56.0319901  12.9709959  33.7046266  56.9326925  12.6474762
  33.4877038  56.1052608  13.8961911  39.6925139  60.0416660   6.0907328
  39.1305995  59.3562746   5.7291847  39.9618769  59.7046089   6.9451725
  62.2751522  76.4256382  28.7828875  61.7315006  76.6907692  28.0410123
  63.1461525  76.2965155  28.4074950 106.0676940   2.3701273  82.3756617
 106.1552914   3.2750736  82.0762849 105.7318028   2.4447952  83.2688769
  34.4095755  41.5808964  42.7806950  35.1989460  42.1086645  42.6599312
  34.2537451  41.1835241  41.9239283  11.0724604  87.9662800   1.4334884
  11.1456406  88.2699585   2.3382828  10.1987898  87.5787735   1.3808285
  94.2239912   2.8338181  86.4345139  95.1725825   2.8961741  86.3226126
  94.0127428   1.9327007  86.1903950  46.2935638  56.5570974  22.5742316
  45.6307077  56.8000507  21.9278383  47.1272564  56.6808796  22.1205044
  23.1325459  49.9083900  41.2026834  22.4344563  50.4943848  40.9102631
  22.7633643  49.0302992  41.1083937  83.5614856  42.3458801  76.4379233
  83.2930132  41.4901577  76.7724448  83.6249705  42.8984200  77.2169596
 102.8683360   5.2250372  76.6746670 102.8308543   5.9491860  77.2995168
 103.6951359   4.7835861  76.8689662  17.8273714  63.0214548  43.4016037
  17.0425820  62.6060438  43.0441523  18.4210670  63.0947399  42.6543522
  15.7193462  28.4709965  58.9460224  16.3109294  28.4823881  58.1936043
  15.7562534  27.5696503  59.2660945  75.8578589  13.8676773  76.4660805
  75.7583289  14.8196350  76.4760977  75.9279885  13.6439453  75.5380410
   4.3083183  21.7106758  74.2929977   4.4182960  22.2316252  73.4975427
   4.9413148  20.9984194  74.2022651  78.1936439  33.0509125  60.2260178
  78.1780018  33.0997311  59.2701906  78.3552309  33.9508759  60.5091899
  21.2620306  76.3149881  33.2418180  22.1276546  76.3433647  33.6493969
  21.3328242  75.6303406  32.5766301  55.4333401  90.6830883   2.3393704
  55.7646322  90.7430172   1.4433309  54.6759939  91.2682724   2.3543520
   4.1383111  93.3439922  47.9552794   4.0235507  92.5517654  47.4304533
   3.2871002  93.4812832  48.3709955 101.9994624  60.8493553  74.7971636
 102.2548779  59.9416386  74.6327036 101.9922002  60.9270321  75.7511788
  79.5933135   9.3897282  73.3742279  78.8202085   9.0992056  72.8903478
  80.2123668   8.6640011  73.2946723  -0.0180491  17.1475206  68.9058894
  -0.3964551  16.4304386  68.3971339   0.9031383  17.1652208  68.6464053
  40.6513206   6.8154942  54.7690028  40.2539245   5.9447752  54.7814935
  39.9706642   7.3943697  55.1122826  84.2756462  86.2945557   8.5726541
  83.6473274  85.8016682   8.0449033  84.9973202  86.4823055   7.9725200
 104.6553404  46.4426088  30.3055167 104.3503029  47.0194578  31.0058212
 105.2973000  46.9664669  29.8262548  33.0369520  78.3588552  45.4721594
  32.8088117  79.2604971  45.6984854  32.8252530  77.8539324  46.2573147
  99.6698717 100.0273418  17.2177792  99.7428761  99.5887756  18.0654633
  99.0807257 100.7642555  17.3793137  96.8396028  11.0552345  84.6798718
  97.6536115  10.6717287  84.3534684  96.4310821  10.3539835  85.1873997
   8.6815214  32.8692722  18.6967623   8.1134653  32.4851561  18.0289304
   8.3513284  32.5172639  19.5233786  35.6931281  72.9989862  13.9985847
  35.3052592  73.6339951  14.6007097  36.2707090  72.4694538  14.5483398
  98.8528736  31.8410526  79.2467952  99.2896231  31.8873631  80.0972879
  99.4762262  31.3842522  78.6819970   4.5621530  34.3233810  79.9469536
   4.2200414  33.4952198  79.6102988   4.1205589  34.4407211  80.7880586
   7.3371267  18.2261884   8.2845747   6.9574827  19.0930378   8.1407934
   8.2790977  18.3845425   8.3465916  49.2127800  25.4592919  13.0424333
  48.5260201  25.5267024  12.3790729  49.1465473  26.2746477  13.5394645
  57.4088049  59.9292183   0.7770701  56.9820690  59.2286539   0.2837810
  58.3441210  59.7935677   0.6253498  25.6620932  60.9542465  10.2005255
  26.3932920  60.5447006  10.6629705  26.0706925  61.6230869   9.6510398
  13.3108747  95.5093193   8.1188929  13.8547003  96.2669659   7.9033607
  13.5997188  95.2481461   8.9933014  45.6728458  50.3185511  22.9339743
  46.5757990  50.4866552  22.6644301  45.2213860  50.0810385  22.1240354
  95.5089291  27.9524885  66.9815391  95.0366338  28.4058939  66.2832635
  96.1390217  27.3967730  66.5228480  59.6020937  70.5825901   2.4594931
  59.7504425  69.6429157   2.5655043  59.4753265  70.9071350   3.3510265
  36.0033536  55.4951429  27.9672861  35.3975010  54.7699499  27.8147364
  35.4388762  56.2614679  28.0689955  58.5987282  25.8500409  16.1796832
  57.9019642  25.2266455  16.3849306  58.1885576  26.7091227  16.2795281
 106.7269953  49.3289696  59.4336241 106.1796459  49.6157585  58.7026018
 107.0652731  50.1403938  59.8122900  55.9830856  29.9552107   0.5108582
  56.1658907  29.7087622   1.4175433  56.7473698  29.6512175   0.0212789
  51.6206980  72.5650072  15.1760936  51.5149879  71.8190289  15.7664931
  51.0874557  72.3436546  14.4126213 104.1160353   5.7013171   1.1599666
 105.0511130   5.7722896   1.3518681 103.7019595   5.6070846   2.0178080
  43.3847475  64.5355177  10.1266706  42.8726768  64.8247671  10.8818853
  43.7018871  65.3457975   9.7277945  16.0032693  15.9829413  84.2993411
  16.7076723  15.4040943  84.0078220  15.9003965  15.7850252  85.2301886
  67.6679230  47.0395851   9.9395788  67.3814154  47.9421949  10.0789976
  67.1613073  46.5274239  10.5698669  74.2305001  -0.0676305   9.7989017
  74.4812997   0.8443969   9.6521378  73.7734064  -0.0579793  10.6398559
  53.3721781  34.5298457  18.6553657  52.7529955  34.2194176  17.9946995
  53.8661623  33.7492681  18.9061868   1.0098013  57.3053122   3.6303496
   0.5207912  56.4834738   3.5892862   0.4212337  57.9120445   4.0794557
   1.0933153  28.5159527  65.5403059   1.6316191  28.9458643  64.8757499
   1.0439245  29.1501461  66.2555569  23.6554289  67.8476191  26.2817740
  23.9876842  67.9460096  25.3894973  22.9556727  67.1988297  26.2066031
  43.2995462  58.2954073  21.7489910  42.5627995  57.7480221  21.4773154
  43.2425356  59.0691900  21.1884189  74.1384888  61.5664244  23.3233976
  73.9600754  61.1948538  22.4594903  73.7705660  62.4492598  23.2850432
  92.3616083  28.3241783  71.1974090  92.0771344  29.2381035  71.1904782
  93.0995711  28.2984100  70.5883294  47.4338865  73.7609673   8.0398625
  47.8610277  74.5890284   8.2591653  46.6389036  74.0179014   7.5727242
  75.4829884 101.5369987  10.5839360  75.7485104 102.3639202  10.1815152
  76.3024521 101.0595036  10.7131493   0.4427279  94.5420265   1.8264365
   0.3694966  94.0029907   2.6140338   1.3737100  94.7569847   1.7690320
  26.2843609  81.5078831  32.6790905  26.4066863  81.7151833  31.7526507
  26.1740351  82.3592281  33.1024885  33.8180637  96.4911175  28.5196972
  34.3436837  95.7314491  28.7704253  34.2951131  97.2405815  28.8760042
  24.5158458  73.8628387  40.0987053  23.5634947  73.7754107  40.1389313
  24.8263812  72.9906321  39.8556852  11.3724780  53.4301758  25.8864927
  11.6446304  52.7357244  25.2865767  11.4824200  53.0503511  26.7582035
  21.1868000  64.9529171   2.9491714  21.5016818  64.2022514   3.4527442
  20.2346635  64.9214172   3.0423108  29.9371791  63.1857252  10.7751608
  29.6398473  63.5612488  11.6039014  29.1361427  63.0676365  10.2646422
  86.9128187  29.8655163  85.6056776  87.0193334  29.5479904  86.5023741
  86.2796923  29.2648541  85.2125114  32.6157514  40.1019989  72.1211689
  32.3715393  40.7656895  71.4761036  31.8310110  39.5626484  72.2187477
  67.6299429  83.3329886  67.8877991  68.0119204  82.7014917  68.4973389
  68.3827519  83.7200540  67.4409288  22.9398624  66.3973557  73.6101895
  22.0822755  66.1851154  73.2417732  23.2210390  67.1758686  73.1294673
  23.7576143  26.3392864  87.2141178  24.0015356  26.9115149  87.9416413
  23.3880846  26.9302689  86.5580535   2.0348974  68.8154888  16.3232911
   2.6934391  69.2282343  16.8820357   2.1326636  67.8780460  16.4902401
 105.9048732  64.3881546  71.8861931 106.2083681  65.0586735  72.4981743
 106.7033370  64.0678059  71.4665872  14.9879932  39.1598463   5.6204265
  15.4646838  39.9857116   5.5370706  14.5992005  39.1948700   6.4944088
  19.9128191   6.1400353  64.7711605  19.3793813   5.4653154  64.3511241
  19.2950050   6.8428503  64.9726218  94.4730266   3.7307154  81.3138926
  94.2268570   4.3927275  80.6678492  95.3904804   3.5374485  81.1211276
  79.1904974  71.6623037  65.0026673  80.0328255  71.9278329  64.6335953
  79.3996572  71.3672107  65.8888977  46.1132844  22.9134975  70.0221842
  46.3323053  23.8297354  70.1918047  46.6257652  22.6842962  69.2469018
   4.0076486  10.7080303  81.3525992   3.2699386  11.0924612  81.8261271
   4.6136753  11.4371143  81.2206745  32.3450232  43.1252432   1.7891213
  31.9510508  43.3559513   0.9478180  31.5995288  42.9986238   2.3760109
   6.8525863  70.7118368  16.8427360   6.4150488  70.0233364  16.3419747
   7.3731422  71.1857414  16.1941481  77.0156415  31.1060177  83.0321747
  77.6708974  30.7377373  82.4395168  76.2380271  30.5648266  82.8955549
  17.4663603  50.1611710  22.1012878  17.8417170  51.0415888  22.1156597
  16.5355337  50.2947044  22.2800660  57.3962831  47.1885872   3.4907287
  56.4768505  47.0994949   3.2398468  57.7918911  47.6889467   2.7770287
   5.6507675  32.0517002  57.3741740   5.9448139  31.3297878  57.9297036
   4.9950592  31.6588341  56.7980355  66.1111506  35.8413737   1.0715504
  66.9285305  36.1014502   0.6467190  65.5173739  36.5764373   0.9187552
  68.7595501   8.1555115  82.8187018  68.1864228   7.6747500  83.4158823
  68.7231930   7.6596867  82.0007372   7.0293561  45.1336132  84.7191807
   6.2698547  44.5873772  84.9216896   7.1766941  45.6437241  85.5156186
  12.1534626  29.7458969  57.4645012  11.5737907  30.0781570  58.1499308
  11.6024963  29.1560017  56.9500154   3.4370688  47.6443720  12.6481605
   3.5053065  46.7055368  12.4744833   4.1925377  48.0261564  12.2012389
  19.4463193  81.7779636  12.0115185  19.9333799  80.9601402  12.1123576
  18.5967362  81.6021824  12.4159193  42.2601604  67.7314615   1.9425747
  42.7344942  68.4113598   2.4210933  42.0022106  68.1516647   1.1221325
  48.8046122  54.9272251  27.8288007  48.2036781  54.8579121  28.5706282
  48.7237024  54.0879011  27.3757887   1.5793280  28.5880065   3.2600847
   1.8921000  27.6882029   3.3536762   1.9293772  28.8768125   2.4172984
  98.6146983   7.6532596   1.1296798  99.1084441   6.9530337   1.5564457
  97.8505620   7.7840465   1.6911310  23.0422497  78.6342478  53.9927816
  23.3742213  79.5143318  53.8153696  22.7737474  78.6601686  54.9111891
  29.3661952  86.0057735   9.2704463  29.3869996  85.1723003   9.7406882
  30.0162482  85.9047699   8.5751337  40.6662083  85.3361130  20.2199936
  41.2334490  85.9994125  20.6130624  40.3289652  85.7497692  19.4253922
  77.7903175  77.1872848  85.8363266  77.0121384  77.3398369  86.3724184
  78.1733799  76.3857740  86.1928004 106.6035151  59.2750359   8.7394953
 106.4666818  60.1855850   9.0010482 105.8634220  59.0768528   8.1657213
  42.5221443  64.8309040   6.6204953  42.3886108  65.3053522   5.7999468
  43.4385014  64.9931192   6.8445629   7.8796188   9.1378628  70.1515776
   7.9378072   8.4354626  69.5039028   8.4011451   8.8256393  70.8910101
  32.8246236  70.7111073  33.3951831  32.5054669  70.3219271  32.5809908
  33.1916547  69.9750042  33.8847470  59.1221380  90.6679916   3.1099522
  58.2768631  90.7245159   3.5555419  59.5321274  89.8828220   3.4727964
   5.6560814  57.7686119  41.8913794   5.1708686  57.1897554  41.3033962
   6.5197098  57.3630047  41.9679260 103.6851676  32.3477017  71.6684872
 103.5269459  33.1264244  71.1348372 102.8945359  32.2571789  72.2004062
  34.6587038  67.3935699  37.3853683  33.9555383  68.0315590  37.5068545
  34.6963477  66.9177198  38.2150555  94.7680282 101.0007709  59.1501659
  94.8229694 101.9479459  59.0233797  95.6763172 100.7214110  59.2650360
  65.7587290  64.8188210  32.2123075  66.2463140  64.5914316  33.0040026
  65.9850693  65.7339144  32.0461607  80.1571472  27.4170767  66.4385742
  79.3784740  27.9494797  66.6012090  79.8830159  26.7899357  65.7694143
  30.6032610  66.9736958  38.2734799  31.0380340  66.7009115  37.4655223
  31.3200951  67.1719790  38.8760281  47.6966476  85.7922166  72.2968417
  47.6896524  84.9181264  71.9067782  48.2744884  86.3029140  71.7298144
  61.6280556  87.2750854  23.1699944  62.3813677  87.6945114  23.5857248
  61.3484240  86.6086388  23.7975979  52.7392399 100.1054948  62.3901194
  52.7637672 100.1344960  61.4336723  53.5852420  99.7340816  62.6402515
  95.2090263  92.2379201  82.9363894  95.2476692  93.1670325  82.7094787
  94.9560451  91.8028396  82.1221786  21.9749570  45.9995699   7.0214593
  21.7132425  46.8253136   7.4287492  21.1939073  45.4486799   7.0735562
  90.4794010  23.6922489  83.1579241  89.7419711  23.0859028  83.0888265
  90.4728885  24.1726194  82.3300147  25.7371656  26.7324339  79.8025655
  26.4195100  27.3604284  79.5653724  26.1348573  25.8760058  79.6456808
  56.9197035  43.1699228   2.8427711  56.9544411  42.2170115   2.7592000
  56.3276291  43.4501410   2.1448067  84.6572419  44.1997181  85.5219587
  83.7297865  43.9931332  85.4062864  84.8380168  43.9854466  86.4371848
 106.6862615   6.1354576  78.1143683 106.4287909   7.0520722  78.0155414
 107.5312479   6.0746513  77.6687985  15.8112693  48.8542938   8.5267633
  14.8687220  48.7101507   8.4427452  16.2050462  48.0215216   8.2666361
  13.1488538  53.7040234  19.0323079  13.6663282  54.4352818  19.3695199
  13.0612767  53.1090689  19.7770166  51.2631512  60.9277105  22.1753526
  51.7882109  61.5294695  21.6476917  50.4452229  61.3990974  22.3335290
  30.1001501  75.2285862  43.6101770  30.2055955  74.7860289  42.7680063
  30.5254006  74.6476173  44.2409468  57.3435688  77.9326153  11.9694328
  57.2054958  77.4855661  11.1343801  56.6746807  78.6170673  11.9881535
  49.7258329  93.9896488   4.1933250  49.0843821  94.3338108   4.8148796
  49.5937300  94.5093250   3.4004030  66.2912893  36.3262773  24.3366671
  65.6867409  36.5975451  25.0274372  66.9727945  35.8341479  24.7944784
 105.4077299  40.8887611  85.1596686 104.7416099  40.8838116  84.4722891
 105.9724148  40.1444756  84.9513313  80.1662572  23.5325323  77.2620541
  80.2667602  22.7937590  76.6617614  80.3140863  24.3055998  76.7173141
 103.9617284  28.6362396  68.2566398 103.5921343  29.4041000  68.6925417
 103.2855042  28.3644615  67.6360839  88.5007056   1.9051539  79.5809042
  88.3251592   2.5107418  78.8607138  87.7240666   1.9632565  80.1373994
  54.3418813  82.1337956  56.2437385  54.1694558  81.3805836  55.6787842
  55.2620458  82.0420950  56.4909643  87.7451392  37.1936737  86.0170082
  87.6367780  37.7963291  85.2812758  86.8695899  36.8361412  86.1647117
  35.9512687  78.6406374   0.4434500  36.1376953  79.5793724   0.4595656
  35.1920819  78.5570908  -0.1335107  33.3839583  50.0023699  30.7155442
  32.7978110  49.5148993  31.2943649  34.2398143  49.9485207  31.1407995
   4.7979975  74.7584438  14.4473958   5.0148696  74.3496609  15.2853060
   4.1610497  75.4374313  14.6698976  12.9723302  18.4466444  73.8346237
  12.9809085  18.6768852  74.7636813  12.5896970  19.2100798  73.4021955
  -0.1513306  28.8590622  14.9267530  -0.2900767  27.9134440  14.9795520
   0.7987364  28.9648509  14.9758780  51.3073635  78.0719995  31.7651653
  51.8051195  78.6944866  31.2350893  51.9461632  77.4033642  32.0123219
   8.1484930  66.2281548  77.6380676   8.8391677  66.8218647  77.3435956
   8.6121074  65.4330383  77.9009086  43.2370090  60.0217676  19.1875994
  44.0763426  60.4806709  19.2215931  43.4480000  59.1635036  18.8200378
  30.1951909  79.2622709   1.3090394  30.4277706  79.6904707   2.1329215
  29.4263673  79.7408676   0.9990630  13.7891626  66.3525057   9.8075932
  13.1153274  65.7016420   9.6112394  14.3547201  66.3522053   9.0353394
  37.5628710  97.0377636  19.2446196  38.2417703  97.2458935  19.8864996
  36.9834018  96.4260006  19.6987033  38.7930433   1.7145096  61.4153546
  39.1626302   1.4331900  62.2523087  39.0790502   2.6230417  61.3205093
 102.9073866  14.1398948   9.9078298 103.1529482  14.6020740   9.1063809
 103.5072812  13.3951037   9.9481851  11.2403242  68.1230866  84.2682454
  10.7609359  67.5371777  83.6824724  11.4086381  67.5958668  85.0492286
  26.9373552  58.2042156  82.1016323  26.4584295  58.3889805  82.9095441
  27.8541080  58.3661400  82.3242795  66.6902503  31.2299006   2.8842068
  67.2502907  30.9201663   2.1724112  66.6803630  32.1818202   2.7842957
  70.0485754  66.0574579  46.2901163  70.8477497  66.4981174  46.0013723
  69.7142744  65.6276369  45.5028915  71.1421299  83.4171677  21.9717431
  71.0828066  83.0527878  21.0886002  71.7646599  84.1398144  21.8913603
  17.9046337  36.2424313  80.6396973  17.9820625  37.0686279  80.1625889
  18.0157129  35.5677258  79.9698728  70.6496143  75.2362871  15.5759382
  70.6077385  74.6615696  16.3402557  71.3060045  74.8324013  15.0082541
  26.0718393  76.0405397  10.6564355  26.6403055  75.5682707  10.0481284
  26.0626674  76.9392300  10.3270328  67.0276785  87.1413422  15.8336973
  67.4121904  87.0357800  16.7038906  66.0828114  87.1148586  15.9845352
  69.4811296  82.9516792  28.4636521  69.9435663  82.7645111  29.2805696
  69.2878914  82.0897388  28.0949211  34.4918291  28.0400549  35.8463496
  33.6145965  28.3985697  35.7115859  34.9096004  28.0998598  34.9872082
  11.7768423  42.2252499  71.8879872  11.9808856  42.2636257  70.9535759
  11.2103931  41.4589439  71.9781786  37.0534372  94.7439861  15.9011352
  37.0895648  93.9393616  15.3839207  36.1190104  94.8964024  16.0420144
  62.3608550  11.1316531   5.6300986  62.7525242  11.9621699   5.9003943
  61.7732366  10.8987849   6.3489223   4.4717828  28.7278400  77.5526279
   3.9956848  28.4661041  76.7645555   4.2401973  29.6481358  77.6777988
  88.3844431   3.0141490  23.7869811  88.1371649   2.2740214  24.3413210
  88.6487349   3.6971991  24.4032788  84.0778828  95.7292271  25.2182913
  85.0293541  95.6384945  25.2703547  83.7526035  94.8294067  25.1910400
  25.2259731  57.6132011  26.3775110  26.0998321  57.7739954  26.0214949
  24.6997833  58.3477783  26.0616732  69.8768902 100.5344868  28.5217047
  70.7925701 100.4125786  28.7725067  69.4820356 100.9850693  29.2682242
   5.3102199  47.9545437  59.8576182   5.3102438  47.0384918  60.1352352
   5.9583131  48.3759056  60.4221171  94.5409159  76.1293125  29.5540833
  94.3502573  75.2643156  29.1912293  94.2105643  76.0906601  30.4516387
  24.5664779   8.1122004  83.2445472  24.7923414   7.9930864  82.3220342
  24.0093366   7.3624168  83.4534684  58.3128119  74.2934895  12.3560452
  58.9285326  74.9393320  12.0096290  58.8399887  73.7500525  12.9417002
  98.3281620  20.6972640  42.4421787  98.9979561  20.3304809  43.0193090
  98.7840374  21.3797229  41.9495773  28.0461860  57.4331331   1.7599012
  28.5704899  58.2310772   1.6919217  27.1940780  57.7327061   2.0767586
  12.1822111  20.0539146  57.9147547  11.7717735  19.1936050  57.8273552
  12.8317968  19.9400173  58.6085099  13.4372703  18.9164870   3.3043808
  13.4529583  18.2812541   4.0202472  12.6472084  19.4338363   3.4605068
  77.0860434  47.3956728   4.8735705  76.8913555  47.4196863   5.8104545
  78.0039454  47.1283293   4.8264617  70.3305292  59.4691467  25.0742197
  70.0322914  58.8952494  25.7798576  70.6786871  58.8727379  24.4114089
  15.5478517  34.0393768  65.0253314  15.7573644  33.5405670  65.8149665
  15.0503389  34.7929035  65.3430003  49.4688892  88.3120441  10.6188488
  49.1400385  89.2108250  10.6360269  48.6810780  87.7693367  10.5865312
  76.6383566  18.1524645  68.2176655  77.3829420  17.5541912  68.1552857
  76.1707174  17.8716551  69.0042346  80.9859695  30.2356278  79.5367306
  80.3465851  30.2357327  78.8243973  81.8302139  30.3516136  79.1008061
   1.6675265  96.6512387  54.8461789   1.6168912  97.5390857  55.2002853
   0.8861669  96.2136548  55.1841634  24.5942187 101.1223888   5.4855567
  24.2652059 101.8726921   5.9805554  24.4772339 101.3705349   4.5685124
  27.0967428  54.9890553  67.2363490  27.2266475  55.6868301  66.5941184
  27.7438299  55.1679836  67.9186195  25.0699162  53.9778996   7.6448631
  24.4181561  54.2124748   8.3054781  24.5710135  53.5204983   6.9680226
  24.1995049  68.4104824   8.3566427  23.3516550  68.7768602   8.6079383
  24.8101616  68.7486506   9.0116030  95.6319006  31.1530338  58.9519161
  95.2566179  30.5533634  58.3070940  95.1025136  31.0209499  59.7383874
  54.9360991  76.9809771  18.9037192  55.4632044  76.9554663  18.1051326
  54.7305107  77.9078722  19.0254974  90.4417857   0.5185645  19.2573893
  89.4932278   0.5984157  19.1568911  90.5992611   0.6872981  20.1863480
  97.8429135   2.1630042  40.9113741  98.1775959   2.8534739  40.3391218
  98.5928830   1.9158023  41.4523602  87.0600982  56.9142662  64.8117035
  87.4642964  56.0513245  64.9021691  86.2613471  56.7531620  64.3094367
   7.6773445   3.6678539  77.6541024   7.9107420   3.9940201  76.7849797
   7.1624414   4.3739830  78.0446046  50.7758570  60.9504652  11.0034811
  50.4349232  61.8438768  11.0459578  50.8953667  60.7839108  10.0684893
  79.7950077  90.4427814   4.7507501  80.3855133  91.1955547   4.7213411
  80.3695679  89.6836376   4.6516714   4.5988361  26.6685902  70.6298488
   4.4455425  25.9640919  70.0002342   3.9580051  27.3407351  70.3979152
  45.8106518  92.0499325  10.0672996  45.8838654  92.8736019  10.5494249
  46.4261436  92.1425438   9.3400967  47.2577373  26.1418043  83.1753441
  46.4621440  25.6096397  83.1672525  47.9556171  25.5329405  82.9335171
   8.0257455  15.0664030  61.5291041   7.1353380  15.1139628  61.8771714
   8.5784475  15.3911053  62.2399634  94.2919000  20.4134785  83.8321823
  94.3656047  21.3051497  84.1723719  93.6863478  20.4878174  83.0946117
  57.5405359  33.1406426  11.1760318  57.0152140  33.8875985  10.8891070
  57.4620628  33.1449699  12.1299994  52.7549982  28.6048269  13.3780384
  52.2110605  28.1961894  12.7047038  52.5571585  29.5389843  13.3114159
  59.8840523  83.9856720   5.2582031  59.2162800  84.0055752   5.9437096
  59.4543743  83.5577106   4.5176256  64.2203617  66.6302729  27.3838830
  64.7905540  66.1367941  27.9734564  63.5792780  65.9886551  27.0779943
 107.4995716  29.2663799  54.5665377 108.0381449  28.4985720  54.3750971
 106.8187936  29.2551933  53.8937467 107.7059205  55.4147469  81.4913690
 108.6085614  55.6762634  81.3094848 107.1743592  56.1304794  81.1429488
   5.8981649  32.7223240  83.6024043   5.1441089  32.2470413  83.9513260
   6.4115612  32.0554195  83.1464439  99.0833648  44.7209107  64.5627731
  99.4787439  45.5339562  64.2483467  99.1722425  44.7639118  65.5148667
  26.3859025  28.1712566  84.6853035  26.7211715  28.6302410  83.9151346
  26.1075202  28.8694988  85.2779156  19.7402215  59.2992687   8.4082597
  20.1920533  58.9193678   9.1617543  18.8744617  59.5346737   8.7418377
 104.4549497  38.6735188  75.7629281 104.3937810  37.7481400  75.9999150
 103.5455783  38.9669548  75.7066351  91.7958923  49.0721928  70.7012647
  92.4182280  48.7498127  71.3531857  92.3442753  49.4283520  70.0022214
  34.9756813  39.7214723   1.6444717  34.0706015  39.9537396   1.4368320
  35.4783416  40.5098391   1.4394313  50.1431513  70.3996038  23.6937118
  50.3642607  69.4709444  23.7639832  49.2019176  70.4352665  23.8641167
  51.7460442  96.1681938   2.7004221  51.7066526  95.7349300   3.5530415
  52.3518753  95.6331635   2.1876408  50.0435591  92.4448967   6.4848053
  50.4675961  92.5390434   5.6318319  49.8361206  91.5125561   6.5475589
  70.7287121  71.6936922  10.0986016  71.4054251  71.0365725   9.9358642
  71.2120390  72.4709272  10.3788245  13.7428665  92.4416542  47.0402527
  13.6481190  92.1814632  46.1239767  13.4779656  91.6678810  47.5375795
  14.2057598  91.6825199  12.4148583  14.9292243  92.0361042  12.9323602
  14.5167041  90.8257198  12.1225584  99.7021254  35.5152832  62.6665467
 100.5067094  35.1988445  63.0773276  99.5852669  36.3981472  63.0174249
  11.1178915  28.4134279  73.5505515  10.4283039  27.8103434  73.8280219
  11.6130296  28.5949408  74.3493765   8.8936442  63.9623785  13.3563673
   8.6239600  63.4918118  14.1450822   9.6426952  64.4887304  13.6358464
  26.2831489  75.9522282  80.1302737  26.1913101  76.7618118  79.6279096
  25.8800069  76.1481319  80.9760457  66.6415294  21.6259902  43.2779026
  66.6770943  21.6511672  42.3216915  67.2691878  22.2919600  43.5585403
  66.8810940  79.7630501   8.3154291  66.6495037  79.8436403   7.3901701
  67.0933151  78.8366604   8.4294027  56.7473873   5.8262389  11.6159821
  57.1557768   6.6196006  11.2695229  57.0162137   5.7998984  12.5342798
  50.7082415  83.7718487  12.4049926  50.3779268  83.5341644  13.2713819
  50.0479078  84.3683243  12.0522666  89.4763585  58.4778439  64.6457976
  88.6544867  58.0883156  64.9441713  90.1560529  57.9818474  65.1021284
  97.1410759   9.2794936  19.6477699  96.4472970   8.9646571  20.2272367
  97.2403153   8.5868304  18.9946175  47.7987766  47.2069407  10.2665401
  48.1552076  47.0775557   9.3876487  47.1142149  46.5428305  10.3475416
  92.2238596  20.3692518  77.8809327  91.9232686  19.5243250  77.5462955
  91.7727478  20.4690586  78.7192458  22.5754777  22.2432028  52.6090401
  22.5970499  23.1553017  52.3194951  22.4486438  21.7395960  51.8049687
   2.0264713  63.9607464  73.0438429   1.6516987  63.8816200  73.9210647
   1.2816755  63.8449131  72.4538487  15.6038133  20.0223528  80.2000499
  14.9078456  19.6855627  80.7643485  16.3149921  20.2419029  80.8019268
 104.1931295  96.7148297  76.2725538 104.0889025  95.7633870  76.2613791
 104.4584560  96.9161838  77.1699339  52.9655266  88.5625553  24.1796780
  52.6503849  89.4499302  24.0079379  52.3599148  87.9964924  23.7010932
  78.0563839  14.7111648  11.7750883  77.9187067  14.7444480  10.8284271
  77.1787985  14.7955554  12.1478629  24.4989562  92.8242397   8.5804307
  24.7387576  93.7142658   8.8384831  25.3345299  92.3944473   8.3978832
  13.0997241  63.2760477   5.0758922  13.7923074  62.6164532   5.1145446
  12.2879183  62.7696276   5.0486827  51.6884327  81.4425278  11.2616313
  51.6122341  82.3188877  11.6390228  50.8679008  81.3145638  10.7856238
  39.2225330   4.3437808  26.7468524  39.8730247   4.0547126  26.1069012
  39.6456566   5.0679820  27.2080731 101.6137894  82.5680672  82.7058816
 102.4929865  82.4088703  83.0492437 101.4460882  83.4911762  82.8955996
  77.0872736  97.2598362  23.1008792  77.7550507  96.8731499  22.5345016
  76.3110113  97.3266220  22.5448275  23.6421148  35.4730927  83.6799904
  24.3440429  35.0244556  84.1514289  23.3500043  34.8389755  83.0251664
  10.7636205  47.5350224  78.1504720  10.6401912  46.6261612  77.8766924
  10.2331249  48.0439793  77.5374669  56.4678574  83.8636971  33.8422704
  57.2146368  84.4519329  33.7303185  55.7824135  84.2389297  33.2894611
  21.6757870  83.2878971   5.1483715  22.5074410  83.5827065   5.5194098
  21.6925383  82.3361588   5.2491301  85.6398432  74.6730947   8.7831503
  86.3842837  74.4307852   9.3339020  85.3984753  73.8617945   8.3361959
  90.7572206  54.3810974  86.0685831  91.2010344  53.5769497  85.7991081
  90.0684591  54.0863930  86.6643972  24.6364760  85.1798248  17.0683444
  24.8770881  84.9199867  17.9576266  24.0474963  84.4877625  16.7676890
  33.4785644  59.1789948  83.0979722  34.4121686  59.3837009  83.1500655
  33.2626525  59.2796646  82.1708917  44.0221119  61.9745684  10.1610720
  44.8849869  61.7578554  10.5142128  43.9960051  62.9314089  10.1628494
  49.6360016  98.1932068  13.1906152  49.4345856  98.1097698  12.2585726
  50.5041456  97.8010082  13.2840943 105.0500067   2.8593772  49.6062040
 104.3071660   3.0158465  49.0231609 104.8209151   3.3181899  50.4144335
 107.7004155  70.7420288  71.4390248 108.3555635  70.3774582  72.0340878
 107.4568566  70.0094734  70.8730954  33.7737775  73.6594105   8.5090923
  33.2105064  72.8918505   8.6081421  33.2226586  74.3964863   8.7721890
  18.2484666  44.2182480  71.5153974  18.5524932  43.3143841  71.5979677
  18.8627998  44.6225678  70.9027320  65.4491456   8.0285113  18.4636867
  65.5473407   8.8731997  18.9030921  64.5036586   7.8820460  18.4347761
  27.9168741  33.7637173  82.0995360  27.8703491  34.5612370  81.5722501
  28.1753389  33.0815731  81.4797759  65.7587814  47.3568916  18.8366652
  65.9595156  46.4300728  18.9668298  65.0182867  47.3586941  18.2301247
   2.4692853  84.6357816  68.3177060   2.2576793  84.3463414  67.4301952
   2.8247102  83.8566750  68.7453705  65.1044512  50.9186840  15.4791975
  66.0476303  51.0079527  15.6158495  64.7585392  50.6861639  16.3408899
   8.2505790  26.9673382  56.3642353   7.5283901  26.4735399  55.9758585
   8.0699626  26.9564997  57.3041790   4.8879282  17.5899206  55.5069583
   4.0269557  17.4518953  55.9018081   5.5054466  17.4556957  56.2259096
  54.9262571  47.9735518   0.1076021  54.3060827  48.6835241  -0.0583800
  54.8962307  47.8460836   1.0558016  82.7931022  46.5415647  82.0468563
  82.8219604  46.7488095  81.1128068  83.5645342  46.9747108  82.4122458
  40.1514879  82.9432719  50.5983656  40.0024018  82.9834025  49.6536988
  40.8515504  82.2989457  50.7032007  16.9466249  11.7587744  47.2696751
  17.0517103  11.4359413  48.1646460  17.8384582  11.9444929  46.9757861
  89.1093016  90.7223456  86.2426065  88.5313415  90.7532113  87.0049996
  89.8244953  91.3202851  86.4598636   5.3189844  61.9234037  25.0410867
   5.9695518  61.6864491  25.7020307   5.6642175  62.7212238  24.6404338
 106.7317923  23.1553494  75.5951911 106.8146022  23.5191046  76.4766997
 106.1983283  22.3688875  75.7097620  47.0251560  73.9659882   2.2905217
  47.8887415  74.2169714   2.6183248  47.2082949  73.4321070   1.5174328
  20.1481191  29.1880261  73.6186796  20.2939550  28.6445795  74.3930381
  19.2081825  29.1191708  73.4513133  29.9770442   4.8848854  58.3422607
  30.1327173   4.1744982  58.9646309  30.8521263   5.1583134  58.0671113
   2.7507392   7.7741562  86.7372150   2.9342071   6.9290100  87.1474622
   3.5510699   8.2826696  86.8680459  72.0657182  95.9914868  85.1705336
  72.0735502  95.2564948  84.5573833  72.4583435  96.7150396  84.6821180
  70.4447174  57.4393749   7.0482558  70.6570435  57.0118475   7.8779364
  69.7748756  58.0842304   7.2756422  64.6591759  53.4193563  18.0497563
  64.7034311  53.1587362  18.9697289  65.5168438  53.1874418  17.6935959
 102.2361716   8.2430445  46.9787949 101.6613086   8.2367025  46.2134665
 103.0226763   8.7019621  46.6837805  21.1752462  56.0685110   1.4757617
  21.0819507  55.1283550   1.6294914  21.0786724  56.1670685   0.5285595
 101.6635275  97.5244849  68.1136602 101.5834856  96.9919341  67.3223227
 100.9998369  98.2066100  68.0114501  38.5199738  40.3290606  30.3714037
  38.1856418  40.8005238  31.1344099  39.4720030  40.3775501  30.4581308
   3.9950339   3.2960831  76.0804492   3.1014411   3.0722748  76.3405174
   3.9966647   3.2065283  75.1274496  17.9299680  30.0738655  85.0476691
  18.1132356  29.2692410  84.5626810  18.4484092  30.7446991  84.6033340
   7.8027481  40.4023790  13.6459446   8.2317382  39.8029256  13.0353284
   7.2908515  40.9874105  13.0874336  96.5298589  40.6210552  79.2989075
  96.2682732  40.4877602  80.2099722  97.2316917  39.9860703  79.1558760
  17.6506750   7.9818569  65.1834672  18.1656925   8.7451731  65.4448861
  17.0776836   7.8120361  65.9311765  85.2119922  98.4410852  61.7082733
  85.7357263  97.6426833  61.6412514  85.4508924  98.8137000  62.5569886
   2.4849645  20.8186327  82.6971143   3.1986419  21.4513193  82.7783811
   1.7490760  21.2278973  83.1523096 102.5252179  75.3177977  52.4700212
 102.8042374  74.6878862  51.8054962 103.2773308  75.3957224  53.0569506
 106.6579421  59.2688213  86.5863144 106.6034897  60.2176605  86.7001889
 107.2725495  59.1493641  85.8622843  10.8201972  37.6427685  44.3279236
  10.0860731  37.7314793  43.7201231  11.0135404  38.5391460  44.6024292
  85.8182907  73.5029888  19.2557454  86.6751003  73.0764008  19.2673194
  85.5517387  73.5299826  20.1746869  79.5298815  79.4460886  49.5122069
  78.7207937  79.8514908  49.2003506  80.2093935  80.0943511  49.3271345
  45.0227165  60.2538919   7.7042907  45.8715439  60.6405926   7.9191989
  44.4253206  60.6054735   8.3643991  82.8994509  37.9011475  77.2679835
  82.8789063  38.8106857  77.5655549  82.8919586  37.3851524  78.0741673
  63.1524992  50.3321981   3.5487771  62.3324490  49.9668837   3.2166690
  63.3222485  49.8454809   4.3553275  44.4908524  72.6878786  25.5269194
  43.7654209  73.3025360  25.4165602  44.9751806  72.7385426  24.7028494
   5.5294935  18.4486328  87.9628645   6.3668815  18.3688723  87.5060774
   4.8711578  18.3523689  87.2747075   7.0068520  64.5070934  26.6975379
   6.1383832  64.3392992  27.0633769   6.8415421  65.0529099  25.9287786
  93.5432052  97.6656764  64.6699637  92.6301718  97.9528564  64.6583742
  93.9509392  98.1914466  65.3581136  34.7403757  47.3943268  82.2212797
  35.2979795  46.7438923  82.6481831  34.0883581  46.8773304  81.7481869
  93.9481362   9.5829569  72.9296201  93.3868011   9.9066292  72.2250837
  93.4131940   8.9302956  73.3813947   5.7817070   8.9619003  82.8663677
   5.1302187   9.5213495  82.4434989   6.0841552   8.3783375  82.1705156
   4.5702831  13.5274111  49.0176576   4.7140781  14.4536673  48.8237327
   3.6610381  13.3680426  48.7644690   9.1952689  81.6055577  81.0234946
   8.5787757  82.1098917  80.4926312   9.9038108  81.3818758  80.4200285
  11.3972179   4.8965298  85.3297862  12.3281995   4.9213682  85.5509037
  10.9539596   5.1881157  86.1264845  19.6285764  15.7143293  85.4830232
  19.5305292  16.6611229  85.5840561  19.0137569  15.4828011  84.7868734
  26.0240221  64.8947287  25.7065368  25.2887797  64.2923594  25.8196807
  25.7013464  65.5537176  25.0918460  22.0896188  58.9202152  52.5724905
  21.4635984  59.2880856  53.1961935  21.6587059  59.0055786  51.7220443
  93.5883864  32.0135151  67.7907723  94.3183859  31.5119206  68.1537193
  92.9476341  32.0518528  68.5008412  37.9617858  46.0935593   3.2631478
  37.7654076  46.3265085   2.3557329  37.1093845  46.0869741   3.6985809
  76.0245466  80.1226425   3.1355751  75.6274462  80.7274628   3.7622634
  75.2822590  79.6639395   2.7420914  45.4728985  87.5693226   3.6164889
  44.7696161  87.8391933   4.2070818  46.1118317  88.2804680   3.6641923
  22.2470514   6.3522278  73.4588176  23.0477039   5.8657824  73.6551827
  22.0634643   6.1509358  72.5412076  49.7345726  18.4468113  84.9772030
  49.7972957  17.7426325  85.6225145  49.4310466  18.0140530  84.1791928
 107.0350265  88.6381453  74.8781758 107.4496984  89.2949622  75.4375237
 107.1810913  87.8090137  75.3336292  86.9474935  82.3562782  66.8622583
  86.8029213  83.0222839  67.5343936  87.8996849  82.2980826  66.7836421
  61.7131662  38.0488443   5.6627280  60.7878780  38.2720971   5.7638818
  62.0397663  37.9694629   6.5589780   3.9826290  31.0232102  84.9909329
   4.1183988  30.3277527  84.3474021   4.7487012  30.9733711  85.5626684
  43.0144835  51.9701338   6.5955549  43.7312555  51.6663980   6.0385883
  43.3972406  52.0222235   7.4713492  46.0476923  39.8320103   7.9365265
  46.0302305  39.0910196   7.3308372  46.0124540  40.6039667   7.3716575
  65.1575899  56.7246771  19.4767034  65.2113199  57.5920057  19.8780644
  65.0811148  56.8991756  18.5386550  46.9934368  18.0905855  -0.2321347
  46.6009998  18.9633536  -0.2097727  46.5971708  17.6307595   0.5079759
  99.9862146  93.5971301  81.7804241  99.3970394  93.3835023  82.5039327
 100.7337952  93.0112880  81.8993526  38.1762258   9.3177830  76.2802261
  38.5472766   8.7227522  76.9317561  38.4423439  10.1894365  76.5728575
  51.0537139  26.5676151  82.3120498  51.9804851  26.3379417  82.2443604
  51.0004798  27.1214806  83.0909145  35.9574080  79.2879248   6.7299426
  35.6961250  79.2902231   5.8090967  36.8507504  78.9442062   6.7245722
  33.9902965  18.4336411  73.6979788  34.9165002  18.2442938  73.5478848
  33.9815275  19.3249117  74.0469569  31.4581052   6.4605032  73.5793978
  31.8688528   6.4895330  74.4435030  30.9973232   7.2961937  73.5050350
  20.9292070  32.6280056  78.1919294  21.7106811  33.1235062  78.4368962
  21.0802261  31.7518269  78.5465336   5.1762859  38.7536179  74.8863643
   5.2816431  37.8078114  74.7834688   4.9925128  39.0717064  74.0024644
  45.3934574  31.0587215   6.2536854  44.6899080  30.4531145   6.4871252
  45.5153704  31.5970922   7.0356870  20.0994150  13.4698902  87.1743898
  20.0842182  14.1248880  86.4765537  19.6783487  12.7008711  86.7902758
   5.1164905  15.3065382  72.5439959   4.9512140  15.3096043  71.6011780
   4.3385784  14.8966013  72.9221958  54.5084286  60.9159946   7.8488994
  53.7902594  61.5386581   7.7359819  55.2432537  61.3100958   7.3788464
  93.5948928 101.0702738  14.2556822  93.4901198 100.6951434  13.3813071
  93.6673554 100.3115282  14.8347211  98.3181127  65.2701984  77.3755735
  99.2209061  65.0001656  77.2074252  98.3368500  65.6295239  78.2625717
  40.0260782  71.5153742  16.1796200  40.8398914  71.1555004  16.5323567
  40.2675581  71.8531847  15.3171802   8.0104035  63.1727600  15.9064293
   7.1846062  62.7032089  15.7889056   8.6017358  62.5250626  16.2898982
  84.8003054  94.3728107  68.6030775  85.3834915  93.7495034  69.0362161
  85.0670242  94.3515342  67.6840347  14.8714868  16.2567507  66.1237377
  15.2593700  15.7128607  65.4382008  15.6216518  16.6320597  66.5848511
  52.6864290  99.7106171   9.3453199  52.8520727 100.1104832   8.4915632
  52.3188257  98.8510132   9.1399270  33.3837247  83.3778286  32.3755622
  33.3514047  83.2706070  33.3261895  34.1501999  83.9304638  32.2227859
 107.9707829 107.9707829 107.9707829 109.4712190 109.4712190 109.4712190
