
47273  0.0000000e+00
  46.2704134  52.3221159  17.1705413  45.7416821  51.9082832  16.4160323
  46.4127779  53.2739019  16.8640590  45.7279634  52.2949743  18.0220759
  47.4705982  51.5199327  17.2348833  47.1543503  50.4778481  17.1885073
  48.3800840  51.6767406  15.9929121  48.9593077  52.5886917  16.1376572
  49.0863991  50.8526993  15.8920729  47.6325274  51.8759680  14.6925020
  46.5985394  51.2274599  14.4818223  48.1824160  52.5704908  13.7583911
  47.7096558  52.5101900  12.8679073  49.0598822  53.0220032  13.9735401
  48.2228851  51.7519999  18.5647225  48.4682941  52.8735161  18.9906526
  48.4421587  50.6907558  19.3347919  48.1775904  49.7837734  18.9777350
  48.6966419  50.7017040  20.8062530  47.9634428  51.3205099  21.3235521
  48.6046124  49.2015934  21.2531877  49.3513823  48.7133598  20.6270385
  49.0079975  49.1967487  22.2657895  47.2810698  48.4271479  21.2825179
  47.0299768  48.1445074  20.2601862  47.5509501  47.0040321  21.9280481
  46.6168451  46.5133905  22.2015595  47.9811907  46.2692022  21.2475920
  48.0777025  47.1090126  22.8765225  46.1678791  49.0063810  22.2091150
  46.4445353  49.0315104  23.2631207  45.8606720  50.0201035  21.9520378
  45.2812386  48.3775139  22.1285152  50.0282526  51.2797976  21.1252284
  50.9510326  51.1538839  20.2820277  50.1827717  51.9103909  22.3093653
  49.3586826  51.9656849  22.8906751  51.5618229  52.2866011  22.7391243
  51.8687296  53.0283308  22.0017242  51.6023111  52.8815460  24.1366673
  52.3940563  53.6305332  24.1205454  50.6864357  53.4055185  24.4100428
  52.1102333  52.0940018  25.2337217  52.2825670  52.8067970  25.8532596
  52.5726414  51.1041927  22.6097584  52.1635532  49.9756241  22.2962832
  53.9451456  51.2784243  22.6922011  54.6642399  52.5543118  22.7858281
  54.8010063  52.7567577  23.8480949  54.2260265  53.3877945  22.2368550
  56.0422754  52.2125244  22.2117162  56.8434334  52.8488159  22.5877261
  55.9704924  52.3016262  21.1277390  56.2631845  50.7591963  22.6129770
  56.7474842  50.6531191  23.5837007  56.8529129  50.1631212  21.9165492
  54.8631287  50.1329756  22.8225613  54.6272039  49.5432806  21.9367313
  54.6635962  49.4107819  24.2283225  54.5804024  48.1644821  24.3447375
  54.5048809  50.1406097  25.2858901  54.6270943  51.1431646  25.2922654
  54.2053986  49.5557785  26.6308713  54.9269438  48.7455416  26.7357111
  54.5042801  50.6205750  27.6456952  55.5292892  50.8973455  27.3990202
  53.9068127  51.5072107  27.4335361  54.3936920  50.2554274  29.0757990
  53.4596729  49.7174025  29.2377925  55.5538988  49.4005251  29.5743489
  55.4893446  48.3981228  29.1511106  56.5655184  49.7543955  29.3755794
  55.4415941  49.3392515  30.6568122  54.5077181  51.4856148  29.9472570
  55.4754686  51.9845057  29.9988437  53.8183117  52.2049522  29.5052433
  54.2215490  51.2783384  30.9783959  52.8988981  48.7823820  26.7571282
  52.9912138  47.6696110  27.2110295  51.7249918  49.3105412  26.3020897
  51.8472052  50.1590347  25.7680297  50.5135679  48.5427427  25.9302855
  50.1807165  48.2044029  26.9115305  49.4219112  49.3503237  25.2215958
  50.0427914  49.9298286  24.5383787  48.6467361  48.7632608  24.7290921
  48.7373114  50.3610134  26.2130117  48.1638002  49.7742033  26.9305348
  49.5432186  50.8934593  26.7181015  47.8126812  51.4265871  25.6487465
  46.7558193  51.7683554  26.2804294  48.0797529  51.9610834  24.5418978
  50.8361435  47.2956753  25.0824428  50.5743313  46.1500692  25.4931116
  51.4895868  47.3912811  23.9029479  51.8837309  48.2797384  23.6283660
  51.8543196  46.2649870  22.9533768  50.8888674  45.8501577  22.6636910
  52.6686954  46.7090178  21.8069768  53.5365486  47.3153353  22.0664263
  53.0008984  45.8101559  21.2875628  51.9129658  47.5612974  20.9696722
  51.9589090  48.4437704  21.3448143  52.6066446  45.1894569  23.7101221
  52.3496342  43.9913130  23.4225702  53.5167074  45.5558205  24.5746994
  53.6197329  46.5370941  24.7905588  54.1739559  44.5435762  25.4098535
  54.4227171  43.6519909  24.8342729  55.3694153  45.2366590  26.0687423
  56.0633898  45.5847454  25.3036690  54.9723482  46.0238075  26.7097044
  56.0623026  44.3728256  27.1012115  55.3691626  43.8587666  27.7671027
  56.8688679  43.2547617  26.4326477  56.2929344  42.3310518  26.3764167
  57.1901083  43.6026573  25.4508781  57.7102852  42.9534435  27.0566058
  56.9972563  45.2072716  28.0266356  57.6324797  45.8871937  27.4589229
  56.3863659  45.9468365  28.5442924  57.5594330  44.5823288  28.7205410
  53.2351494  43.9823294  26.4428568  53.0765104  42.7712059  26.5712667
  52.5515175  44.7565651  27.2381377  52.4276495  45.7173157  26.9522572
  51.6614199  44.3101120  28.3357239  52.1768808  43.6437607  29.0273762
  51.2997103  45.5668688  29.1615057  50.6053972  46.2757492  28.7103653
  50.9136391  45.3189564  30.1502371  52.1740007  46.2012053  29.3075299
  50.4723501  43.4201717  27.8416419  50.1384687  42.3877048  28.4968543
  49.9555588  43.6439514  26.6142011  50.3761435  44.3520689  26.0295820
  49.0429926  42.7332973  25.9095144  48.2572651  42.4127007  26.5935922
  48.4193993  43.2248449  24.5480871  47.6143169  43.9138174  24.8035431
  49.0625572  43.8863182  23.9676523  47.8676128  42.1595669  23.6356497
  48.2707548  41.8444061  22.3777676  49.0730906  42.4004936  21.9157934
  47.5230551  40.7689190  21.9094729  47.7367830  40.2463675  21.0719967
  46.5919018  40.3542089  22.8363991  45.6498909  39.2738557  22.8007793
  45.5892992  38.6350346  21.9320798  44.8446941  39.1261816  23.9065218
  44.0633678  38.3816910  23.8657689  44.9128675  39.9872279  25.0339532
  44.2143393  39.7951913  25.8349442  45.8015823  41.0675287  25.0087094
  45.8718443  41.7624807  25.8324289  46.7792892  41.2089443  23.9749670
  49.8112583  41.4359903  25.7042623  49.2697287  40.4130983  26.1721206
  51.0188150  41.4322519  25.0525784  51.4298391  42.3293638  24.8372984
  51.7054176  40.1611614  24.8535705  51.2042809  39.5344520  24.1158748
  53.0064106  40.4184246  24.1572571  52.7457619  40.9723663  23.2554197
  53.6521387  41.0993814  24.7117257  53.7770271  39.1257048  23.8830733
  54.1620970  38.7430048  24.8282504  52.9981518  38.4924531  23.4582877
  54.8715162  39.2277360  22.8346539  55.6336403  40.1538277  22.9509854
  55.1400948  38.3162904  21.9160628  55.8099508  38.5671091  21.2029815
  54.4966936  37.5436544  21.8202925  51.9121552  39.2571211  26.1111760
  51.7873621  38.0803728  25.9248447  52.0777798  39.9397755  27.2610116
  52.1363020  40.9423685  27.1538329  52.3033476  39.3767810  28.5848856
  53.0317783  38.5677791  28.6396909  52.7221489  40.4218245  29.6629477
  52.0030403  41.2383127  29.5971322  52.8513861  39.8244643  31.0650086
  53.4369707  38.9055300  31.0924649  53.3051682  40.6106615  31.6683984
  51.8221569  39.6784949  31.3928580  54.0839720  41.0688686  29.2961812
  54.6912336  40.3183413  28.7901711  53.8768101  41.8492889  28.5639739
  54.5044661  41.5225744  30.1936412  50.9683180  38.7254834  28.9445734
  50.9391499  37.5906873  29.2617035  49.8690987  39.5722914  29.0229273
  49.9695396  40.5221319  28.6945724  48.5590935  39.1173601  29.4534802
  48.6648941  38.7894726  30.4875994  47.6851845  40.3765392  29.3852901
  48.1350946  41.1303520  30.0313926  47.7442741  40.8369064  28.3990502
  46.2463379  40.1926470  29.7797298  45.8521271  39.3291664  29.2439151
  46.1810732  40.0516319  30.8586025  45.3588772  41.3905668  29.5406866
  45.8908081  42.3113441  29.7800994  45.0592470  41.3849878  28.4926915
  43.9956331  41.3180304  30.2656770  43.3838892  40.4676342  29.9645114
  44.0332174  41.0051203  31.3091207  43.2519579  42.5308466  30.0989819
  43.7165546  43.3261681  30.5133629  43.1322861  42.8386784  29.1445088
  42.3814726  42.3283195  30.5694532  48.0039740  38.0079794  28.5717583
  47.6059484  36.9485807  29.0497923  48.1708145  38.0593157  27.2627044
  48.5811090  38.8858271  26.8520498  47.8195333  36.9110513  26.3546562
  46.7543459  36.7267513  26.4943528  48.0404282  37.5101805  24.9444866
  47.7751970  38.5639238  24.8585343  49.1087627  37.4455571  24.7381210
  47.2159767  36.4290905  23.7482715  48.1695318  36.5671444  22.8227568
  48.5725403  35.5926108  26.6268158  48.0666971  34.5177436  26.2364817
  49.7476101  35.6330729  27.3401260  50.2214241  36.4985108  27.5560403
  50.4350328  34.3994117  27.7043414  50.0876474  33.5873222  27.0656443
  51.9443178  34.5560384  27.7621698  52.2792101  35.5092716  28.1711864
  52.4060106  33.7845802  28.3784413  52.6138067  34.4922972  26.3709807
  51.8311501  34.7641778  25.6627202  53.8345766  35.3454280  26.1758542
  54.0878916  35.3906655  25.1166630  53.5526133  36.3340473  26.5381074
  54.7045231  34.8708749  26.6298318  52.9162121  33.0676079  26.0544109
  51.9876671  32.4990177  26.0031796  53.2599354  33.0290604  25.0207424
  53.5353088  32.5983906  26.8190384  49.9265575  33.9706612  29.0759301
  49.5059109  32.8590822  29.2452431  49.9774456  34.8278999  30.1007557
  50.1728010  35.7865644  29.8499465  49.6208382  34.4197583  31.4793110
  50.2788019  33.5762954  31.6884828  50.0746059  35.5991936  32.4686360
  49.6408558  36.5563083  32.1789956  49.5879650  35.3985381  33.4231091
  51.6128063  35.7947469  32.5927734  52.0253372  35.9304166  31.5930152
  51.9982243  36.9736910  33.4733725  51.3227940  37.1095252  34.3180299
  53.0320168  36.8200421  33.7828302  51.9385004  37.7760077  32.7379680
  52.2531557  34.4810510  33.1082535  52.3668480  33.7692523  32.2906303
  53.2690096  34.5843291  33.4896660  51.5910435  34.0104508  33.8350582
  48.1182480  34.0870070  31.6298795  47.7976322  33.2334757  32.3902822
  47.2541761  34.5822358  30.7587290  47.5179052  35.3192639  30.1204944
  45.8457279  34.1807508  30.6171155  45.3457832  34.0862870  31.5810823
  44.9542332  35.2582836  29.9730515  45.3486538  35.4820228  28.9818573
  43.9723301  34.7867012  29.9333858  44.7240067  36.5033484  30.8329892
  44.3507004  36.1723113  31.8020916  45.6585312  37.0572448  30.9222174
  43.7689304  37.4188638  30.0964475  43.7690210  38.3971190  30.5771923
  44.0897608  37.4586248  29.0554929  42.3313713  36.8806481  30.3041553
  42.2873688  35.9081960  29.8137450  42.0512342  36.8152070  31.3555098
  41.2512302  37.7545094  29.7721076  41.2825012  38.5415506  30.4043221
  41.3198137  37.9865146  28.7915087  40.3944540  37.2374153  29.9086785
  45.5768013  32.8042436  30.0167966  44.4432354  32.3761916  29.9750662
  46.6154146  32.0529628  29.5977616  47.4538326  32.6063752  29.4934034
  46.7083549  30.6157136  29.4941115  45.7066488  30.1968384  29.5901585
  47.0830488  30.2356720  28.0293345  48.0996466  30.5964708  27.8729773
  47.1059656  29.1462350  28.0558252  46.1580896  30.7932234  26.9657183
  46.7248583  31.5898418  25.9281349  47.7794075  31.8133163  25.8619022
  45.8719969  32.0267868  24.9501967  46.2021303  32.5698113  24.0769625
  44.4610071  31.7539334  24.9093485  43.7612486  32.0050406  23.7595963
  43.0086660  31.4097857  23.7893581  43.9179897  31.0569501  26.0459757
  42.8785181  30.7696319  26.1038876  44.7815895  30.5273962  27.0064020
  44.3644667  29.9677515  27.8305435  47.6566792  29.9612784  30.4250121
  47.9502583  28.7575674  30.2406669  48.2557440  30.6119013  31.3951612
  47.9033232  31.4980650  31.7277431  49.0367794  29.9090481  32.3668933
  49.5701075  29.0608597  31.9376659  50.0719452  30.9094882  32.8911495
  50.6749296  31.2413216  32.0459270  49.4617796  31.7170572  33.2956648
  51.0134172  30.3330731  33.7611270  51.7776918  30.0427747  33.2579255
  48.1491566  29.3942046  33.4720302  47.4855709  30.2381611  34.0967488
  48.1557560  28.0560875  33.7536192  48.7376451  27.4759364  33.1663108
  47.9307747  27.4378252  35.0438547  47.0241928  27.9051661  35.4283166
  47.6231575  25.9144902  35.0216246  47.3627710  25.5336833  36.0091901
  46.4720774  25.6887674  34.0366626  45.6844425  26.3685989  34.3615580
  46.7504406  25.8235526  32.9914618  46.1558199  24.7024679  34.3762112
  48.7806845  25.2198887  34.5831323  49.3543530  25.1098013  35.3449655
  48.9352083  27.8440619  36.0609269  48.5253382  27.9092383  37.2339630
  50.2525568  28.0076146  35.6984234  50.5358601  28.0783939  34.7315574
  51.4101696  28.2322550  36.5983176  51.4466381  27.4311757  37.3365855
  52.6758671  28.1526113  35.7448459  52.8641891  29.0818548  35.2071285
  53.9494991  27.9761767  36.6943860  54.8424673  27.7303386  36.1197042
  54.1808939  28.8985324  37.2271347  53.6725283  27.1990919  37.4067998
  52.7474785  27.0737743  34.8866057  53.3846712  26.5124893  35.3344297
  51.2767172  29.5634460  37.3028016  51.5473890  29.6714592  38.5135508
  50.8003235  30.6412625  36.6706038  50.7796240  30.5497575  35.6649709
  50.4846001  31.9382501  37.2323775  51.4317322  32.3342586  37.5987315
  49.9246264  32.7466512  35.9895754  50.6970167  32.7213168  35.2208924
  48.9685917  32.3460579  35.6524944  49.5822144  34.1792488  36.3417268
  48.3569384  34.7565794  36.2271309  47.4368620  34.3246055  35.8620811
  48.5193634  36.1108327  36.4576817  47.7715111  36.7695618  36.6216850
  49.7984028  36.4284372  36.8035769  50.3552008  37.6511598  37.0858431
  49.8198652  38.5870290  37.0228529  51.6768217  37.7083373  37.5843859
  52.0760250  38.6515570  37.9270005  52.4594975  36.5082669  37.5676298
  53.4998941  36.6096783  37.8390956  51.8988514  35.2935338  37.1678638
  52.5218582  34.4135833  37.1049500  50.4914856  35.2304769  36.8008447
  49.4086742  31.8174100  38.3386779  48.7238312  30.7691789  38.3659291
  49.2235947  32.7857113  39.1993713  49.9792194  33.4419036  39.3355513
  48.2001019  32.8406024  40.2477360  47.4427557  32.1214938  39.9356270
  48.7984037  32.4741721  41.6866446  49.6762180  33.0898643  41.8827677
  48.1751299  32.5810218  42.5744629  49.3692589  31.0113025  41.7315817
  50.0238276  30.8219028  40.8808327  50.0160360  30.9267879  42.6048708
  48.2885075  29.8915625  41.7226887  47.8690910  29.7440362  42.7178907
  47.5248337  30.1677847  40.9956312  48.8147306  28.4939718  41.2782955
  49.7407818  28.3519459  41.8353987  48.1278133  27.6675034  41.4604712
  49.1140318  28.3915257  39.8383260  48.3164501  28.6122155  39.2593122
  49.7520638  29.1262007  39.5676446  49.3921185  27.4753594  39.5167589
  47.5146198  34.2830324  40.3768873  48.1084585  35.2079940  41.0053587
  46.4027309  34.5668602  39.6850276  45.7550669  33.6254501  38.7399602
  45.5936098  32.6312423  39.1565943  46.3991165  33.5365558  37.8650928
  44.4003057  34.2534566  38.3384919  43.6778688  33.8400292  39.0422440
  44.1459131  33.9415121  37.3255372  44.7193241  35.7457781  38.4709835
  43.8018847  36.3004184  38.6679006  45.2197313  36.0254097  37.5438881
  45.8530283  35.9326196  39.5859718  46.5804434  36.7115664  39.3574595
  45.1142645  36.2386489  40.8572006  44.3649673  35.4024529  41.3827085
  45.2835178  37.4668598  41.3813686  45.9705114  38.0136633  40.8822203
  44.2109156  38.1353354  42.1169519  44.2160892  37.6881027  43.1109619
  44.5844269  39.5919466  42.3019934  45.5287170  39.6232104  42.8455353
  44.6542120  40.0409079  41.3112020  43.5574913  40.4156971  43.1278896
  42.5802183  40.3488541  42.6497984  43.4025002  39.9472857  44.6032810
  42.8138876  39.0327430  44.6757030  44.4151926  39.7897363  44.9744081
  42.8457022  40.7356977  45.1097345  43.9057541  41.9069862  43.1595039
  43.0801249  42.4884033  43.5698700  44.8418522  42.1423721  43.6658859
  44.0654087  42.2347784  42.1322966  42.8393364  37.8195596  41.4749146
  42.5803089  37.9211187  40.2221966  41.8390989  37.4321437  42.3598528
  42.0574045  37.4123645  43.3457804  40.4721403  37.3695898  41.9898748
  40.4724693  36.4738154  41.3688374  39.5055437  37.1255350  43.2703638
  40.0585413  36.3264060  43.7640190  39.5986223  38.0547285  43.8325357
  38.0697370  36.7019629  43.0094481  37.1937275  37.5176620  43.1986332
  37.8770256  35.4206729  42.7491140  37.0009732  35.0443292  42.4159431
  38.7414765  34.9004340  42.7024603  39.9691081  38.5026693  41.0273695
  40.0266123  39.7266173  41.3604021  39.3254209  38.1901383  39.9251485
  39.1411972  36.8762779  39.3263602  38.1663418  36.4720058  39.5989752
  39.9171853  36.1411190  39.5396304  39.1381741  37.1065903  37.8154302
  38.6192656  36.3268399  37.2579122  40.0896502  37.2975039  37.3191023
  38.2536578  38.3582973  37.7847934  37.2309256  38.0111933  37.9318833
  38.4918880  38.8825202  36.8593025  38.8043618  39.1497374  39.0319514
  39.6821666  39.7398710  38.7686992  37.6973057  40.0561905  39.5677710
  37.5087857  41.1302328  39.0416408  36.9897342  39.7289348  40.6357431
  37.0387769  38.7406945  40.8384228  35.8595562  40.4801559  41.2100601
  35.4433942  41.0947275  40.4118013  34.7658467  39.4810152  41.6681528
  34.4994569  38.8051772  40.8555126  35.0570536  38.8881397  42.5352192
  33.4758186  40.3195095  42.1235991  33.1802750  41.3269854  41.5514135
  32.7390933  39.8811650  43.1502390  32.0539165  40.5243540  43.5203028
  32.9416418  38.9855146  43.5708141  36.3058686  41.4050722  42.3288965
  35.5671000  42.2509336  42.7986622  37.6157260  41.3697243  42.6714945
  38.2279968  40.7183599  42.2014475  38.1982756  42.1724319  43.7932253
  37.8176570  41.8006516  44.7445440  39.6721411  41.9764948  43.7976694
  39.9085426  40.9502649  44.0788507  40.0137806  42.2144127  42.7903032
  40.2300930  42.9381657  44.6485615  40.0474644  42.6792717  45.5547810
  37.8717041  43.6561537  43.7745285  37.9400682  44.3754721  42.7509022
  37.5355673  44.1400814  44.9559498  37.6848674  43.4499645  45.6781292
  37.1421051  45.5350399  45.2729559  36.2248945  45.8010769  44.7475481
  36.8973446  45.6577539  46.7833090  36.3271570  46.5596199  47.0060825
  36.3275719  44.7849798  47.1022606  38.0932689  45.7243824  47.6539946
  38.7201953  44.6597385  48.1932640  38.3986282  43.6380911  48.0545425
  39.8242688  45.1334190  48.8852644  40.4321194  44.4215965  49.2646551
  39.9478483  46.5193033  48.8775539  40.8212996  47.4418449  49.4240808
  41.7196751  47.0635748  49.8890877  40.5212784  48.8195896  49.2417574
  41.2015295  49.5755911  49.6052361  39.4185019  49.2282867  48.4593868
  39.2094254  50.2604771  48.2200480  38.5700440  48.2705975  47.8863764
  37.7155948  48.6023331  47.3151731  38.8606954  46.9312954  48.0533028
  38.2838607  46.4948320  44.8375797  37.9938269  47.6573706  44.4763422
  39.5830226  46.0141039  44.7650433  39.8295093  45.0698709  45.0253868
  40.7491350  46.7284250  44.2870045  40.9303141  47.6006794  44.9150515
  42.0662546  45.8282852  44.2736721  42.0120192  44.8542261  43.7874985
  42.8831196  46.3658714  43.7921810  42.5612259  45.3924084  45.7390881
  41.7655945  44.7973394  46.1873865  43.7434626  44.4601727  45.8188200
  44.4193983  44.5890713  44.9734831  44.2979288  44.6463108  46.7386198
  43.4143209  43.4276819  45.7016373  42.9368782  46.6859913  46.5419292
  42.0656729  47.1896887  46.9607258  43.4730768  46.3657331  47.4352551
  43.6306286  47.2826099  45.9495974  40.4728127  47.2532892  42.8208733
  40.7189894  48.4325314  42.5726271  39.9681425  46.4264965  41.9287682
  39.7812700  45.4623413  42.1645260  39.5653772  46.8359375  40.5927277
  40.4804897  47.3172235  40.2477121  39.3640184  45.6732559  39.6591949
  38.5358286  45.0553036  40.0060844  39.1295648  45.9213161  38.6240101
  40.5316877  44.6714115  39.5469546  40.3522015  43.4375477  40.1419067
  39.4403887  43.2431173  40.6870699  41.3519430  42.4989033  39.9925327
  41.2221146  41.5212727  40.4327440  42.5300980  42.6924324  39.2430353
  43.5772181  41.7114878  39.2260289  44.3447208  41.9718456  38.7114954
  42.7418613  44.0027666  38.7378979  43.6676216  44.2798758  38.2556295
  41.7095423  44.9422789  38.8048553  41.8449736  45.8771133  38.2812643
  38.3094406  47.7177238  40.5781507  38.2275200  48.6147594  39.7252393
  37.3373389  47.4393272  41.4615440  37.3768854  46.5922976  42.0102596
  36.0566735  48.1755877  41.3921452  35.6145930  48.1993580  40.3960991
  35.0326300  47.3676443  42.1969414  35.4659271  47.0140982  43.1325483
  34.2861867  48.0872202  42.5333118  34.3512082  46.1411428  41.5643406
  33.3982992  46.1638212  40.5746222  32.9918146  44.8765850  40.3173208
  32.1623921  44.6235132  39.6735716  33.7839103  44.0642118  41.0383797
  33.6899471  43.0586004  41.0416746  34.6797037  44.8429108  41.7546511
  35.5291796  44.4350243  42.2823048  36.2342572  49.6537781  41.9018364
  35.6244493  50.5715466  41.3157272  37.0924091  49.8368597  42.9524755
  37.4729514  48.9906549  43.3515072  37.5285506  51.1086988  43.4908676
  36.6650963  51.7489290  43.3101845  37.6153803  50.9727526  45.0207424
  38.2539773  50.1379251  45.3094625  38.0757713  51.8279266  45.5155468
  36.6160440  50.6688070  45.3322554  38.6964250  51.8245077  42.8578424
  39.0988970  52.8573990  43.4004784  39.1318464  51.3312101  41.6895628
  38.6915207  50.4842043  41.3597107  40.2170515  51.8773842  40.7817030
  40.4142952  51.2110043  39.9419737  39.7373319  53.1945276  40.1540089
  39.5734096  53.9616299  40.9108305  40.4036808  53.6063480  39.3960547
  38.4245038  52.9930544  39.4681454  37.7026010  52.6290417  40.1992083
  38.0113244  53.9777899  39.2497993  38.3355093  52.1971846  38.1889534
  39.1107416  52.5920963  37.5323272  38.4987283  51.1994934  38.5964799
  36.9083500  52.3261023  37.5222778  36.1501741  52.0877361  38.2682371
  36.6581821  53.3316994  37.1842051  36.7654824  51.3805866  36.3851643
  35.8575082  51.5825129  35.9915829  37.5771427  51.4047956  35.7845569
  36.7271638  50.4650497  36.8099260  41.5756512  51.9393778  41.6175747
  42.4341488  52.6826668  41.2482071  41.7011881  51.0989809  42.5860882
  41.0098028  50.3845978  42.7642441  43.0608082  50.9408045  43.2440472
  43.5135174  51.8865919  43.5417843  43.0763340  50.1782465  44.6299982
  42.3799896  49.3402481  44.6610403  44.0356827  49.7112322  44.8528147
  42.8668022  51.1398935  45.8110714  43.5640001  51.9726562  45.7187653
  41.4306164  51.5465593  45.7453728  40.8573103  50.6244850  45.8412981
  41.1749029  52.1610355  46.6085815  41.3058043  52.0869017  44.8069954
  43.1578684  50.5098820  47.2492552  42.8049660  49.4785976  47.2452593
  44.2402172  50.4518795  47.3644257  42.8613710  51.2536860  47.9888058
  44.0311146  50.3382921  42.1704483  45.0646734  50.8631945  41.8459558
  43.5459661  49.2756033  41.4590883  42.6683569  48.7923002  41.5868711
  44.0645933  48.8947630  40.1854753  45.0406361  49.3346930  39.9807692
  44.1805410  47.3305321  40.2177763  43.2764578  46.8099689  40.5335808
  44.4025230  46.9971180  39.2040420  45.3812742  46.9336796  41.0441732
  45.4763174  47.5703144  41.9238091  45.2616692  45.5866623  41.6643286
  46.2384558  45.3704453  42.0970345  44.4739532  45.5612707  42.4172974
  45.0598001  44.7962523  40.9414148  46.7115879  46.8918991  40.1717091
  46.9087267  47.7231264  39.4947267  47.6224661  46.7815638  40.7601118
  46.6908169  46.0528421  39.4762468  43.1435537  49.3586302  39.0877557
  41.9099665  49.3112993  39.2584443  43.6548281  49.9000311  37.9034019
  44.6376657  49.8375702  37.6792860  42.7997398  50.4101372  36.8509364
  41.8083286  50.5959225  37.2640753  43.1668091  51.8522358  36.4514470
  42.8387976  52.5402212  37.2306705  44.2438507  52.0105028  36.3963747
  42.5099373  52.3802280  35.1914096  41.6963434  51.5970898  34.6020699
  42.7855062  53.4965897  34.7407460  42.7911472  49.3571901  35.7017946
  43.7260342  49.2482805  34.9147201  41.7825317  48.5418081  35.6057119
  40.5842686  48.5683727  36.3932776  40.1796198  49.5729589  36.2701392
  40.9102392  48.2237434  37.3746419  39.6921754  47.3963022  35.8214283
  39.1174936  47.8439283  35.0105810  39.1197109  46.9554472  36.6375351
  40.7547855  46.4190960  35.2072978  40.3810644  45.7732821  34.4127154
  41.1922121  45.7876539  35.9806275  41.8336058  47.3205805  34.6368289
  42.8222036  46.8701887  34.7258425  41.5830231  47.6703453  33.1665778
  41.7771196  46.8739128  32.3332000  41.1650038  48.9051914  32.8471899
  41.1265898  49.5462990  33.6266804  40.8944368  49.4098186  31.4491916
  40.0172710  48.9083862  31.0402298  40.4737568  50.8732700  31.5855384
  40.0190544  51.2641525  30.6752849  39.7704172  51.0047436  32.4078083
  41.5682888  51.7191315  31.9275975  41.6569901  51.7625332  32.8825045
  42.1017313  49.3815708  30.4450703  41.8072748  49.4325399  29.2221522
  43.3907223  49.4106722  30.8315754  43.5297918  49.4331074  31.8317032
  44.6642923  49.3282986  30.0672579  44.3285227  49.4720602  29.0402770
  45.5372572  50.4889727  30.4555202  45.2187824  51.3735008  29.9038982
  45.8280802  50.7658291  31.9275475  45.8914900  49.8763275  32.5543404
  46.7890072  51.2559938  32.0839715  44.9626923  51.2958717  32.3253608
  46.8633652  50.1321316  30.0169969  47.1097088  50.9039593  29.5020127
  45.2835035  47.9538202  30.3566337  45.3400373  47.5855446  31.5130997
  45.9080744  47.2151995  29.3961716  46.0101843  47.5411510  27.9629183
  46.2476873  48.6000586  27.8609014  45.0303125  47.4156475  27.5022674
  47.1861219  46.6710901  27.4026966  48.1522703  47.1394157  27.5906682
  47.1016932  46.4309311  26.3428378  47.0160913  45.4469252  28.2837200
  47.9622364  44.9081755  28.3352804  46.2365913  44.8007298  27.8800845
  46.5911722  45.9726572  29.6820879  45.9303570  45.3017282  30.2309847
  47.9058933  46.1207962  30.5916119  48.3878422  45.1693583  31.1453462
  48.3971214  47.3563433  30.5917335  47.9492235  48.1487322  30.1539993
  49.3896389  47.7203751  31.6038036  50.3006792  47.2008276  31.3068342
  49.7075462  49.2779446  31.4547014  48.7873268  49.8369646  31.6243720
  50.7828999  49.7707081  32.4704695  50.5147362  49.6326256  33.5179067
  51.7462015  49.2737103  32.3558044  50.8490133  50.8493328  32.3280025
  50.2917624  49.6318483  30.0901699  51.3290977  49.3138647  29.9856687
  49.6650028  49.0253925  29.4363427  50.1300097  50.6642342  29.7801495
  49.1660213  47.3917770  33.0872917  50.1176262  47.2354937  33.8524747
  47.9148102  47.2202682  33.4317851  47.2274256  47.4740505  32.7366614
  47.5134754  46.9832230  34.8080540  47.9634047  47.8194523  35.3431988
  46.0013819  46.8745470  34.9250913  45.6268549  47.0697737  35.9299397
  45.5842733  47.5968075  34.2233348  45.4183292  45.4879141  34.5738983
  45.5508661  44.7632313  33.4187341  45.2165842  43.4315920  33.6815333
  45.2122831  42.6080465  32.9828477  44.9362946  43.3157301  35.0032449
  44.8179054  42.4460793  35.5030394  45.0239706  44.5935726  35.5568910
  45.0553989  44.7123528  36.6298795  48.1287861  45.7165337  35.3652978
  48.3261871  45.6517029  36.5597939  48.3867693  44.6733952  34.5902467
  48.1008291  44.6935701  33.6217761  48.9782667  43.3922100  35.0457501
  48.3896732  43.1026840  35.9162903  48.8459921  42.3319769  33.9450073
  47.8016949  42.2738171  33.6381435  49.7930908  42.6180696  32.7560353
  49.8644829  43.6832094  32.5358486  50.8332825  42.4101448  33.0067730
  49.4892454  42.0327568  31.8881726  49.1790676  41.0115719  34.6556377
  50.2556705  40.9723759  34.8214102  48.8008165  40.9602547  35.6766176
  48.7511206  39.7616196  33.9106297  49.1533327  38.8366914  34.3239450
  47.6622438  39.7361326  33.9532113  49.0627432  39.9646091  32.8860378
  50.3979874  43.6903334  35.4215169  50.9121084  43.0907202  36.3407612
  51.0925674  44.7098398  34.8052287  50.6627941  45.1151371  33.9860058
  52.3777008  45.1189327  35.1815820  52.8230238  44.1335583  35.3187585
  53.0956841  45.9564972  34.1632247  52.7973223  46.9981956  34.2813230
  54.1552019  45.9903049  34.4169450  53.0741978  45.5582714  32.7609015
  52.0511913  45.5599594  32.3846579  53.9044046  46.6100168  32.0253634
  54.0624046  46.4127159  30.9650707  53.5835028  47.6417732  32.1688962
  54.8800230  46.5304136  32.5048828  53.6752653  44.1663456  32.6134920
  52.9795170  43.4591913  33.0651069  53.7224722  43.9538527  31.5454483
  54.6800184  44.2137814  33.0333948  52.4107790  45.7479239  36.5864038
  53.3323002  45.4770756  37.3443413  51.3875914  46.4886379  37.0330262
  50.6799603  46.7752695  36.3718176  51.1857080  46.9682169  38.4217215
  52.0659113  47.4621201  38.8333058  50.1127911  48.0351782  38.4953356
  49.1458750  47.5854397  38.2697034  50.0535250  48.4991932  39.4798541
  50.5033636  49.2725992  37.5580049  51.4234161  49.7379780  37.9115891
  50.7701826  48.8773680  36.5778494  49.4555473  50.3727484  37.5087643
  49.8695612  51.2497282  37.0111680  48.6178112  50.0698709  36.8806219
  49.0610361  50.8369112  38.8385916  49.7443628  50.8111811  39.5818949
  47.8475523  51.1764193  39.2564583  46.8555355  51.5105247  38.4914756
  46.9399309  51.4333916  37.4879718  45.9744310  51.8797588  38.8192248
  47.7085829  50.9630060  40.5153990  48.5191345  50.7210255  41.0672617
  46.8962049  51.3150692  41.0013962  50.8689117  45.7070541  39.3311310
  51.4164734  45.6470251  40.4455090  50.0563240  44.7321844  38.9272261
  49.4840336  44.7460747  38.0951285  49.9735785  43.4670258  39.6799779
  49.5324039  43.6195326  40.6649685  49.0369081  42.4730158  39.0208173
  49.3644428  42.2823000  37.9988337  49.1391516  41.4850616  39.4698143
  47.5812292  42.9422522  38.9941549  47.1980762  43.1032276  40.0018167
  47.5513220  43.8741589  38.4295726  46.6637039  41.9615507  38.1717491
  45.6327677  42.3060083  37.5743127  47.0669031  40.7726336  38.0960250
  51.3011980  42.7957058  39.9430919  51.6540813  42.4980164  41.0588503
  52.1959686  42.6098633  38.9420843  51.8882275  42.9548264  38.0440903
  53.5942078  42.0852184  38.9332151  53.7249708  41.0721636  39.3136454
  54.0172005  41.9983530  37.4322844  53.9549732  42.9917097  36.9879055
  55.4883432  41.6146278  37.3343301  55.5494595  40.8030748  38.0594039
  55.7639933  41.2920237  36.3303161  56.1231232  42.4804831  37.5226188
  53.1803036  40.9271288  36.6982675  53.3625698  39.8759508  36.9216490
  52.1234894  41.1386728  36.8610358  53.2719088  40.9255648  35.1627445
  54.2302752  41.2240314  34.7378206  53.1466103  39.9111652  34.7840714
  52.5564814  41.6209984  34.7238421  54.4655132  42.9751253  39.8541903
  55.1887465  42.4749613  40.7534742  54.4294405  44.2879629  39.6779299
  53.9950562  44.6461153  38.8393950  55.3935146  45.1952600  40.2477789
  56.4526510  44.9759436  40.1127768  55.2088308  46.1413765  39.7389889
  55.1096392  45.4504347  41.7138243  56.1038637  45.7661676  42.4267292
  53.8617325  45.3865910  42.2054911  53.1495285  45.1761246  41.5209723
  53.4321451  45.4392815  43.5954332  54.1515350  46.0582542  44.1315794
  52.0014000  46.0016775  43.5598135  51.3382387  45.4712629  42.8764582
  51.5421391  45.7972193  44.5269632  51.9409466  47.4776554  43.3383036
  52.3457432  47.6509333  42.3411989  50.4851770  47.9246426  43.2267380
  49.9407005  47.6137209  42.3351240  49.9399281  47.4855185  44.0621853
  50.4963160  49.0145493  43.2174397  52.5739956  48.4192801  44.3442059
  51.9887590  48.1658459  45.2281523  53.5745478  48.0728054  44.6029615
  52.5122309  49.4544744  44.0085554  53.4186554  44.0658140  44.2012882
  53.0384398  43.9043808  45.3833055  53.7857199  42.9994917  43.4190607
  53.9768553  43.2121229  42.4503756  53.7601089  41.5573025  43.8539171
  53.9972496  40.9220695  43.0004883  54.8938465  41.2734604  44.8588800
  54.7791386  41.8249178  45.7920647  54.9495268  40.1881886  44.9436760
  56.3470268  41.6488314  44.4562149  56.5173769  41.0664558  43.5507202
  56.4128256  42.7206945  44.2694473  57.3867989  41.2334681  45.5298042
  57.1716261  41.8937922  46.3699055  57.2932005  40.1956987  45.8497667
  58.7950230  41.2751102  44.9309683  58.9037800  42.1269703  44.3993616
  59.9296808  40.7353258  45.2573347  60.0714636  39.8171377  46.2068272
  59.2713881  39.6179771  46.7901897  60.9959412  39.4916964  46.4508247
  61.0424089  41.0894346  44.6625662  61.0111856  41.9503021  44.1352654
  61.9389486  40.6549120  44.8284006  52.4224329  40.9303951  44.2960835
  52.3070765  40.3552151  45.3672647  51.2802744  41.1555958  43.5632992
  51.4857006  41.4259338  42.6120806  49.9094009  40.6764030  43.9940786
  49.9684334  40.5632353  45.0765800  48.8901472  41.7755222  43.7947893
  48.7685776  41.8891859  42.7175665  47.9504776  41.4057350  44.2051411
  49.3203640  43.1402159  44.4735479  50.3995895  43.1947470  44.3307257
  48.6318922  44.2750740  43.6828041  48.8626432  45.1904154  44.2277908
  48.9461851  44.3150330  42.6398659  47.5648594  44.0530109  43.6679745
  48.9464283  43.1944704  46.0055780  49.1196537  44.1990232  46.3915348
  47.8991938  42.8941727  45.9705973  49.6056509  42.5053406  46.5334368
  49.3432951  39.4354653  43.1851959  48.5715914  38.6343527  43.6630964
  49.6611023  39.2881012  41.9548702  50.1987505  40.0256681  41.5223980
  49.6895552  38.0742908  41.1500120  49.0891314  37.3395085  41.6863775
  48.9614391  38.3735633  39.9062276  49.5559359  39.0859818  39.3342710
  48.9261198  37.4478817  39.3318009  47.7546883  39.0003777  40.0769520
  47.5765610  39.5563173  39.3148494  51.1186790  37.5775123  40.9348774
  52.0232582  38.3345246  40.7120943  51.3001013  36.2362933  40.9468842
  50.5574322  35.5531240  40.9041786  52.6778173  35.6298447  40.9867430
  53.3415365  36.2966752  40.4363680  53.2179642  35.6009936  42.4352932
  54.2902374  35.4069185  42.4094725  53.1095457  36.6351175  42.7623034
  52.5041246  34.6999645  43.4043264  51.8504715  35.1084781  44.5718765
  51.3531542  34.0005851  45.1716375  50.7182217  33.9893818  46.0452175
  51.8243885  32.9292274  44.5404911  51.6478062  32.0169282  44.9362564
  52.5465727  33.3499908  43.4431219  53.0753660  32.7329326  42.7317762
  52.8276110  34.2515206  40.3706169  51.7864323  33.6357069  40.0656414
  54.0790033  33.7832332  40.2693224  54.8443365  34.4272757  40.4092360
  54.3672752  32.5059056  39.7625732  53.5201645  32.2944880  39.1100359
  55.5413914  32.5455141  38.8733816  56.3629246  32.7957630  39.5446157
  55.4019928  33.2474685  38.0512333  55.9363651  30.9509778  38.0707002
  54.4687891  31.4243150  40.8149099  55.2613592  31.5478420  41.7718983
  53.6432648  30.3818417  40.6687975  53.0499172  30.3569317  39.8518395
  53.6865044  29.1592669  41.4276075  53.6654139  29.5432687  42.4475145
  52.3558426  28.4428167  41.2519026  51.5734529  29.1721535  41.4617538
  52.2860003  28.1745100  40.1977539  52.1307802  27.4310994  42.2191286
  52.8630495  26.8132377  42.1589136  54.8803234  28.2819295  41.1594868
  54.9882698  27.2936702  41.9069052  55.7702351  28.6038518  40.1751661
  55.7604218  29.5163035  39.7422218  57.0198393  27.7809048  40.1299858
  56.8824053  26.8645406  40.7040119  57.3707914  27.4247575  38.6543703
  56.5004730  26.9160342  38.2398224  57.6212835  28.2869053  38.0362654
  58.5511494  26.4514780  38.6132383  58.4968185  25.0705767  38.4412909
  59.7601986  24.6837854  38.5865092  60.0927114  23.6588120  38.5138822
  60.5877542  25.7013321  38.7652779  61.5926743  25.6593800  38.8573527
  59.8442221  26.8449521  38.8674688  60.1611185  27.8774047  38.8627505
  58.2010651  28.6111641  40.7667303  58.9218903  28.0846977  41.5974522
  58.3407879  29.8496890  40.3769302  57.6775742  30.1958776  39.6984029
  59.3835068  30.7694578  40.8056021  60.2813244  30.1982117  40.5695772
  59.3580246  32.0351100  39.8861504  60.2203846  32.6273990  40.1921463
  58.4593868  32.6516795  39.8665071  59.6925211  31.5016484  38.1824589
  59.4172859  31.1742020  42.2940731  60.3011751  30.7041121  42.9815817
  58.4941339  31.9584465  42.7774191  57.6527119  32.0164108  42.2217751
  58.4851837  32.4004436  44.1867304  58.9664745  31.6844273  44.8529053
  59.2301989  33.6708283  44.4117975  58.7285042  34.5132089  43.9355612
  59.4898987  33.8987088  45.8846617  58.5706186  33.7363052  46.4473772
  60.2868795  33.2810521  46.2986898  59.8063421  34.9372339  45.9818220
  60.6900740  33.7198639  43.9109612  61.2124300  32.7707529  44.0311050
  60.6590986  34.0056324  42.8595448  61.3102627  34.5237136  44.3075657
  57.0031357  32.5758290  44.5383739  56.4407349  33.5755992  44.1259956
  56.5128231  31.6430688  45.3520250  57.0018339  30.2493072  45.4311371
  57.8694296  30.1917458  46.0884523  57.2293520  29.8657513  44.4365358
  55.8263636  29.4047952  46.0107422  55.9561205  29.2136550  47.0759773
  55.7091379  28.4618950  45.4765987  54.5277548  30.2226448  45.7794762
  53.7789440  30.0916409  46.5606403  54.1456556  30.0099659  44.7810411
  55.0814104  31.6599131  45.7700825  54.5618296  32.2425151  45.0093460
  55.0262594  32.3059916  47.1951866  56.0367012  32.2056603  47.9536486
  53.8974476  32.9214907  47.5800228  53.2051134  32.9850936  46.8474007
  53.7759113  33.6231399  48.8525057  54.1141415  32.9785776  49.6638346
  54.7424984  34.8402858  48.9184380  55.5860710  34.5415735  48.2961321
  54.2994499  35.6838202  48.3890438  55.2386999  35.2360702  50.3186226
  54.3595791  35.3181076  50.9577799  55.8120203  34.3935633  50.7053900
  55.9564066  36.5776062  50.3833437  56.6649866  36.6547632  49.5586872
  55.2930832  37.4268556  50.2193689  56.5852976  36.6981483  51.7850828
  57.0768499  35.7574773  52.0333052  57.2889900  37.5295377  51.7437601
  55.6111431  36.7266083  52.8654814  54.9571323  35.9733415  52.7074909
  56.1084127  36.6438413  53.7406826  55.0906372  37.5917530  52.8390121
  52.3498344  34.1163635  49.1721249  51.6558599  34.7828817  48.3641195
  51.9709826  33.7913299  50.4112291  52.4656630  33.0689073  50.9147120
  50.8034897  34.4855571  51.0633659  49.9768019  34.5602250  50.3568840
  50.1596451  33.5518599  52.1054888  49.8488522  32.5843811  51.7111635
  51.0069895  33.4066868  52.7755880  48.9184666  34.2451119  52.7509022
  49.1315603  35.3042531  52.8955507  47.7231359  34.1035390  51.7745209
  47.8757620  34.5985270  50.8154631  47.4632311  33.0642247  51.5735722
  46.8562126  34.6094847  52.1994400  48.6216354  33.5209775  54.0594244
  49.4161224  33.7798333  54.7593451  47.7209759  33.9417243  54.5065165
  48.5247517  32.4570560  53.8431168  51.1911678  35.9548950  51.5322304
  52.0442104  35.9646392  52.3883200  50.5726910  36.9933653  51.1428118
  49.7711754  36.7825747  50.5655432  50.4673624  38.2368779  51.8399858
  50.9957314  38.2728195  52.7926826  51.1330748  39.3026543  50.9303141
  50.8007145  39.0760207  49.9172640  50.7444859  40.2690887  51.2514162
  52.6713943  39.3359447  50.9005785  52.9740763  38.3487940  50.5512619
  53.0149603  40.0091982  50.1152134  53.2460117  39.6291804  52.2879744
  52.5343657  40.2649975  53.1239796  54.4389772  39.2360353  52.4796820
  48.9919090  38.5092831  52.1331930  48.1928682  38.1796694  51.2943411
  48.5748148  39.2461276  53.1959248  49.3756056  39.6887493  54.3550539
  50.2518463  40.2555323  54.0403128  49.6112347  38.8477826  55.0072479
  48.4507465  40.5683851  55.2060556  48.3394098  41.5620232  54.7720242
  48.6888504  40.6356478  56.2676048  47.0927954  39.8782206  55.0257540
  46.2254429  40.4719448  55.3143787  46.9782686  39.0100598  55.6748152
  47.1497440  39.4438314  53.4998083  46.6049051  38.5202456  53.3042336
  46.6174936  40.6390953  52.6635313  46.6748333  41.8012428  53.0306721
  46.1597872  40.3247833  51.4527178  46.1009169  39.3320012  51.2765884
  45.6927681  41.3771105  50.5212784  46.1877537  42.2948647  50.8387852
  46.2942886  41.0261154  49.1442394  45.9526634  40.0318670  48.8563824
  45.7847929  42.0026207  48.0678844  46.1092091  41.6903162  47.0752525
  44.7012901  42.0176315  47.9499817  46.1896992  43.0108404  48.1553316
  47.8557062  41.0361290  49.1049528  48.1810665  42.0580578  48.9102650
  48.2768917  40.7813549  50.0774717  48.5327530  40.0933504  48.1071901
  48.3691216  40.4641294  47.0953369  49.5897102  40.0977802  48.3735228
  48.1647491  39.0677023  48.1340742  44.1211557  41.5345955  50.6297398
  43.3834600  40.5095959  50.6204176  43.6783075  42.7445078  50.8727884
  44.4867516  43.8921356  50.8956146  45.2236795  43.8857746  50.0924969
  44.9710703  43.9178514  51.8717718  43.4746504  44.9742699  50.5581951
  43.3224201  44.8722935  49.4837046  43.7998390  45.9966993  50.7505178
  42.1890450  44.5381165  51.4796543  41.2847900  44.8932266  50.9853697
  42.1946096  44.8827648  52.5137186  42.3342991  43.0085373  51.3535118
  42.3196030  42.5415802  52.3383141  41.1669016  42.3768997  50.5564260
  41.1097813  42.4925661  49.3272018  40.1854801  41.7189837  51.2343359
  40.3632402  41.4129972  52.1803141  38.9809823  41.1524582  50.5815077
  39.1041875  40.8735514  49.5350170  38.6527753  39.8066688  51.3053846
  38.0230665  39.1996241  50.6549549  39.5861793  39.2585015  51.4333391
  37.8559279  40.0282669  52.5512171  36.8746376  40.4902267  52.4427652
  37.5788069  39.0142131  52.8393126  38.7523556  40.5771685  53.6944818
  39.8951817  40.1132393  53.8940620  38.3086634  41.4844084  54.3702221
  37.8637385  42.1918631  50.5912399  37.0047092  42.1109343  49.6905088
  37.9460096  43.1540823  51.5083170  38.6279416  42.9616690  52.2280741
  37.0153189  44.3614960  51.5046740  36.9762874  44.7925329  50.5042791
  35.5536795  43.9742231  51.7963839  35.3779697  42.9960346  51.3487577
  35.3946209  43.8541508  52.8680086  34.4033241  44.9180460  51.3079023
  33.7570095  45.7795048  52.0998144  34.0060925  45.9173250  53.1416225
  32.7405787  46.4051771  51.4147520  31.9403791  46.8751097  51.8134308
  32.8490996  46.0575581  50.0417137  32.0958304  46.4814425  48.9092875
  31.2154222  47.1051741  48.9566183  32.3352551  45.8887720  47.6913834
  31.8418622  46.1866570  46.7780209  33.2240033  44.8936892  47.5866985
  33.2593226  44.3909788  46.6314840  34.0438509  44.5501661  48.6959982
  34.7747684  43.7645102  48.5739136  33.8965535  45.1086426  49.9818897
  37.4805260  45.4340363  52.4657440  37.9809737  45.0887632  53.5496664
  37.3561788  46.7403650  52.1308613  36.8086791  47.2886896  50.8750772
  35.7323146  47.1283817  50.8130646  37.2708321  46.8110323  50.0111628
  37.1160102  48.7717962  50.9424829  36.3494039  49.3891907  50.4742527
  38.0187845  49.0265846  50.3873396  37.2620416  49.2341709  52.3906612
  36.3243222  49.6225548  52.7880812  38.0244684  50.0031090  52.5153399
  37.5986028  47.8975773  53.0998755  38.6602187  47.9852819  53.3309269
  36.8631864  47.7093458  54.4291687  35.7288480  47.2555828  54.3668795
  37.4323988  48.1349421  55.5241632  38.6995149  48.8699722  55.6093645
  38.6406136  49.8191357  55.0767040  39.4881034  48.1618214  55.3548956
  38.7903881  49.2829609  57.0796537  38.1898952  50.1815844  57.2210312
  39.8057675  49.4233084  57.4503326  37.9786491  48.1371737  57.7477312
  37.5605774  48.4653711  58.6993647  38.6064529  47.2540712  57.8664494
  36.8611145  47.8441095  56.8007231  36.5981698  46.8095016  57.0210505
  35.5754018  48.7389469  57.0432520  35.5573702  49.8866034  56.5809107
  34.5319247  48.2359266  57.6882696  34.7101116  47.5370359  58.3953094
  33.1837034  48.6656380  57.6337147  32.7822447  48.8118792  56.6309452
  32.2727323  47.6728582  58.4197140  32.4818349  46.7161369  57.9411030
  32.6537895  47.7113676  59.4402075  30.7935238  48.0030775  58.2981634
  30.5613351  49.0445328  58.5207939  30.2620220  47.8511286  56.8771219
  29.2036939  47.5907135  56.8920851  30.4396009  48.7072849  56.2263012
  30.5596972  46.9100046  56.4147615  30.0397825  47.0853758  59.2671108
  30.2038717  46.0212898  59.0971231  30.3758335  47.3869896  60.2591848
  28.9786983  47.3131132  59.1654587  33.1018257  50.0812435  58.2111597
  32.2953987  50.8509922  57.7380991  33.8278913  50.4335451  59.2634058
  34.4638968  49.7466373  59.6425533  33.8310432  51.7642117  59.7806025
  32.8381348  52.0513058  60.1267385  34.5670843  51.7825079  61.1645555
  34.5181727  50.8177710  61.6695213  35.6014204  52.0669317  60.9712839
  34.0274596  52.5671291  61.6948938  34.3028975  52.8668594  58.7849283
  33.8123322  53.9787102  58.8421726  35.2254629  52.5124884  57.8557491
  35.5421519  51.5657997  57.7021694  35.6969619  53.5193253  56.9181299
  35.8404970  54.4932365  57.3861122  37.0418286  53.0133438  56.3742733
  37.4565768  53.7500477  55.6862688  37.7801371  52.8029013  57.1480370
  36.8668222  51.8111324  55.5581379  36.5667868  51.0038471  55.9822464
  34.7275829  53.8650703  55.8139992  34.7115231  55.0052023  55.3055716
  33.8523078  52.9314041  55.4071045  33.7545776  52.1543837  56.0449076
  33.2431316  52.8789759  54.0767908  33.0859590  53.8532591  53.6140060
  34.0522337  52.0081615  53.1132317  34.2931175  51.0356617  53.5425663
  33.4039760  51.8987942  52.2438097  35.6538177  52.8719378  52.6905251
  36.3142896  52.3866749  53.7456083  31.7782140  52.3082447  54.0371561
  31.1588955  52.3492098  52.9902220  31.2338090  51.9366407  55.1978874
  31.7589068  51.7330170  56.0362816  29.7482085  51.7811251  55.4065466
  29.5129657  51.5967798  56.4547729  29.2029214  52.7055645  55.2163553
  28.9400291  50.8035421  54.5550632  27.7196264  50.8675814  54.4884443
  29.7142768  49.8966455  53.9782190  30.7144094  49.9683332  54.0994644
  29.2025924  49.1437435  52.8728008  28.1151748  49.2098284  52.9082489
  29.5990515  49.8082685  51.5112448  29.3305993  50.8635426  51.5606785
  31.0870171  49.6083212  51.1720610  31.7219710  49.9699831  51.9808483
  31.3087726  48.5713196  50.9199667  31.3840008  50.1728392  50.2881908
  28.8178015  49.3450642  50.3288841  27.7967024  49.7213936  50.3908253
  29.1148257  49.8000574  49.3839741  28.9626265  48.2730246  50.1952457
  29.5600915  47.6597834  52.9810858  30.7554507  47.4028444  53.2297707
  28.6495042  46.6730309  53.0232191  27.2754669  46.9378948  53.4634399
  26.6767669  47.0924950  52.5657988  27.3154736  47.8063822  54.1208744
  26.9473648  45.6710720  54.2115021  25.9003091  45.3990173  54.3447876
  27.4321318  45.7998610  55.1792431  27.6994085  44.5389366  53.4488058
  27.1344995  44.0529680  52.6533127  27.9026794  43.7283468  54.1486025
  28.9678764  45.2460194  52.8746510  29.8492146  44.9593163  53.4483624
  29.1810060  44.8874235  51.3876963  28.7623096  45.6258583  50.5167818
  29.8902774  43.7063885  51.1414289  30.4584575  42.8175831  52.0918036
  29.7297764  42.5553656  52.8588533  31.3192725  43.2193565  52.6262903
  30.8726835  41.5686941  51.3299131  30.0451183  40.8777952  51.1689949
  31.7243981  41.0706711  51.7932224  31.4299226  42.1417761  50.0426292
  31.4031506  41.3905621  49.2532873  32.4601817  42.4564505  50.2089071
  30.4763842  43.3858871  49.8025608  31.0243630  44.2719793  49.4821501
  29.4283843  43.2087278  48.7358284  28.7482834  42.2064114  48.6738110
  29.3305564  44.1232729  47.7458525  30.0575423  44.8243380  47.7558517
  28.3823800  44.0339184  46.6444826  28.4849572  44.9861288  46.1240196
  28.6876178  42.8164339  45.7065487  28.4972000  41.8947840  46.2564564
  27.9633689  42.8642559  44.8933601  30.1237774  42.7655840  45.2750158
  30.6661415  43.8418627  44.4264174  29.9796796  44.5658493  44.0128756
  31.9640088  43.8860798  44.0075684  32.2975254  44.4638920  43.1582737
  32.8380990  42.9642391  44.6359444  33.9049625  43.0957365  44.5315027
  32.4129820  41.9288015  45.5185223  33.2041931  41.3763905  46.0035229
  31.0541630  41.8267727  45.8736849  30.6741595  41.1731148  46.6448689
  26.9290638  43.9657021  47.1186209  26.0554338  43.3601665  46.4364481
  26.6200876  44.6446037  48.2185555  27.3402643  45.2245712  48.6248636
  25.2557063  44.8343039  48.6755323  24.5288992  44.6084690  47.8952456
  25.0389457  43.8634157  49.8995781  25.8368897  44.1134977  50.5987501
  24.0485787  44.0910339  50.2938843  24.9800873  42.3197174  49.4975376
  25.8089209  42.2025156  48.7994003  25.2377629  41.7428875  50.3857803
  23.6157393  41.8031454  48.8993979  22.5379920  42.3567200  48.8769436
  23.7818933  40.7238483  48.1904364  23.0435228  40.4891539  47.5424957
  24.7319436  40.3904009  48.1109524  24.9869609  46.2764025  49.1228676
  25.9943914  46.9375849  49.2155218  23.7038040  46.6772890  49.1599607
  23.0572629  45.9549522  48.8765621  23.2092929  47.9866934  49.6494627
  23.4497261  48.6243582  48.7987709  21.6905713  48.0473375  49.8502493
  21.1983895  47.4825668  49.0584850  21.5460229  47.4733591  50.7655382
  21.1230230  49.4795561  49.9439669  21.6976547  50.1728821  50.5581331
  21.1553741  49.9107361  48.9434004  19.6755517  49.5195675  50.3423548
  19.1368747  49.0281153  49.5321703  19.5354402  48.9654160  51.2704659
  19.1368735  50.9675360  50.5320168  19.8003137  51.5072536  51.2077761
  19.0949631  51.5541410  49.6142817  17.7906382  50.8703375  51.1206102
  17.4994910  51.7618179  51.4955711  17.1268046  50.6196260  50.4018831
  17.7153873  50.2041054  51.8759727  23.9604926  48.5485268  50.9012079
  24.0874624  47.7144957  51.7678261  24.4472027  49.8207951  50.9378481
  24.7668386  50.7876205  49.8926449  24.0314531  50.8620167  49.0915394
  25.5650353  50.3500319  49.2930555  25.0015569  52.1155310  50.5512047
  24.0330338  52.5200081  50.8452511  25.5898070  52.8640795  50.0204134
  25.7215095  51.6729450  51.7853451  25.6604791  52.3488903  52.6382637
  26.7754936  51.5407991  51.5408802  25.0720334  50.3142691  52.1655512
  25.7873917  49.5281649  52.4072218  24.1729331  50.4903650  53.3989620
  22.9720569  50.6353188  53.2942152  24.8456764  50.2775764  54.5415163
  25.8502555  50.3773451  54.5103836  24.2296267  49.8801899  55.8382273
  23.7018490  48.9450026  55.6511879  25.3300476  49.6075583  56.8546343
  26.1372614  49.1328382  56.2968302  25.8344221  50.5271387  57.1514177
  24.9577475  48.8290262  58.0795240  24.3681622  49.4470453  58.7566900
  24.0167403  47.6217937  57.7214336  23.0119634  48.0266571  57.6005840
  24.3001986  47.1485615  56.7813206  23.8877749  46.9306564  58.5543776
  26.2587094  48.2436752  58.6731195  26.0990810  47.8453016  59.6750784
  26.7511535  47.5959778  57.9478073  26.8847561  49.1119862  58.8785744
  23.2649946  50.9097195  56.4069939  22.2575665  50.5333614  57.0639563
  23.4984684  52.1431684  56.1097383  24.2923355  52.3046017  55.5065680
  22.5123048  53.2635880  56.2245560  21.5137649  52.9092026  55.9687710
  22.3621845  53.7235498  57.6827335  22.3445940  52.9082060  58.4059238
  23.5033083  54.7571278  57.9261065  23.2603407  55.5810499  57.2551250
  23.5867286  55.1068497  58.9551067  24.4754887  54.3600130  57.6340914
  21.1250854  54.3996620  57.9173231  20.4584789  53.7109518  57.9713202
  22.8078866  54.3364525  55.1223993  23.9165759  54.3490982  54.6006012
  21.8114281  55.1773405  54.7746658  20.8979917  55.1094484  55.2002573
  21.8710446  56.2944078  53.8230705  21.6174388  55.9009266  52.8387117
  20.7020688  57.3277044  54.0650272  19.7719550  56.9054413  53.6846542
  20.6451941  57.3844194  55.1520634  21.0290742  58.5971928  53.5183573
  20.2150774  59.0864038  53.6586523  23.2745767  56.9704771  53.9329529
  23.6543489  57.4836349  54.9926472  23.9107490  57.1131420  52.7887535
  23.6015630  56.4684963  51.4944315  22.7397418  57.0075893  51.1010599
  23.3985591  55.4312277  51.7608166  24.8016906  56.5392113  50.6492329
  24.4868493  56.6578197  49.6124506  25.3957963  55.6266928  50.6986952
  25.5641389  57.7602911  51.2406015  25.1367211  58.6500311  50.7782316
  26.6497803  57.6878834  51.1754799  25.2092719  57.7738857  52.7566004
  25.9147382  57.1985388  53.3561039  25.3348470  59.2262697  53.2630825
  26.4492464  59.6383905  53.6128807  24.2253780  59.9569988  53.3858013
  23.3022594  59.5841408  53.2157135  24.2590857  61.2063122  54.1040754
  24.9242353  61.9039869  53.5952187  22.8752947  61.8167448  54.0738964
  22.1519732  61.0821152  54.4277716  22.7399969  62.6310158  54.7857714
  22.5297022  62.2430468  52.7637100  21.5854144  62.1239614  52.6382589
  24.6150255  61.0716105  55.5681372  25.0819325  62.0054150  56.2253428
  24.3322897  59.9207973  56.1262846  23.9968586  59.1434479  55.5755424
  24.7547746  59.6045542  57.5025702  24.6875429  60.4689169  58.1632185
  23.9469314  58.4645891  58.2135153  24.1207123  57.6179695  57.5493336
  24.3532610  58.1001043  59.1569948  22.4556184  58.7363005  58.2092524
  22.2266579  59.7592115  58.5081339  22.0803308  58.5533667  57.2023821
  21.6244841  57.7131128  59.0580130  21.6881704  56.7249012  58.6025095
  22.0271468  57.7154303  60.0709105  20.2652407  58.1563282  59.1333771
  20.0976133  59.1491795  59.2124176  19.1623092  57.4282122  59.0881443
  19.2011297  56.0729742  59.0713120  20.0591612  55.5454159  58.9967108
  18.2952237  55.6756496  58.8674593  17.9798412  57.9484415  59.1399240
  17.9370439  58.8581800  59.5765495  17.2433758  57.2573566  59.1289043
  26.2725401  59.2994642  57.4749947  26.9362092  59.7651958  58.4071684
  26.7980909  58.4762812  56.5177822  26.1624861  57.9726505  55.9157324
  28.1870651  58.0508184  56.5298128  28.5245681  57.5199509  57.4199629
  28.3878303  56.9605160  55.4360723  28.3564401  57.4521017  54.4637251
  29.3918228  56.5690756  55.5999994  27.3883605  55.7604647  55.3240204
  26.3597608  56.1171103  55.2702618  27.7112174  54.9815273  54.0729237
  27.2048116  54.0166807  54.0999031  27.4316263  55.5528164  53.1877375
  28.7967420  54.9248266  53.9921808  27.6220417  54.7962713  56.4830494
  27.5370026  55.3981113  57.3878479  27.0165348  53.8992834  56.6129446
  28.6875987  54.5667315  56.4825773  29.0906167  59.2277384  56.3694334
  30.0469732  59.3657970  57.0877743  28.6757970  60.1649761  55.4457808
  27.9514766  59.8875141  54.7988844  29.2763114  61.4677143  55.1896620
  30.2302337  61.3419771  54.6774864  28.3663607  62.3391724  54.3521833
  28.2393694  61.8868637  53.3686209  27.4541593  62.4427319  54.9397707
  28.9456058  63.5918379  54.0493441  28.3698916  64.3588018  54.0931702
  29.5830584  62.2312307  56.4351749  30.6239033  62.9001999  56.3678360
  28.8213325  62.1126270  57.5224209  28.0855227  61.4207935  57.5153494
  28.9480948  63.0035257  58.7181664  29.2346692  64.0095472  58.4117413
  27.5588584  63.0293512  59.4272804  27.2050500  62.0286560  59.6753216
  27.5883698  63.5858393  60.3640556  26.5975618  63.8965082  58.5634995
  26.8715453  64.9498367  58.5040998  26.5934634  63.4838438  57.5546455
  25.1883793  63.7454224  59.0992069  24.9277711  62.6994848  58.9373159
  25.0928640  64.0741062  60.1340675  24.1730905  64.4221926  58.2324791
  24.4717479  64.7964239  57.3431826  22.9420066  64.7549534  58.5044050
  22.2870564  64.3194866  59.5574427  22.8037691  63.7045240  60.1697588
  21.3378787  64.6471643  59.6660089  22.2211576  65.4452944  57.7072573
  22.7946782  65.8954048  57.0082760  21.3685632  65.8780003  58.0327511
  29.9905086  62.4083662  59.6652889  30.8518529  63.1674337  60.0686550
  30.1004171  61.0960674  59.5746040  29.2595959  60.6007004  59.3143511
  31.2970686  60.4594469  60.2783060  31.2826800  60.8763075  61.2853432
  31.1642742  58.9633560  60.5135489  30.2870178  58.7727690  61.1317682
  31.0378695  58.4746838  59.5474625  32.3230791  58.4134626  61.2599325
  32.6848125  59.0012598  62.3447418  32.9723907  57.4008083  60.8963251
  32.6010942  60.8243942  59.5146751  33.5219693  61.3861227  60.0661516
  32.5619698  60.6155968  58.1899500  31.6839552  60.2516985  57.8482389
  33.5659385  60.8808613  57.1897554  34.3427229  60.1584673  57.4404764
  33.0266571  60.5845451  55.8398628  32.1918559  61.2477446  55.6132030
  33.8104486  60.9460640  55.1742220  32.6631951  59.1885185  55.4039907
  31.8391538  58.7962723  54.4017553  31.9696879  57.4551535  54.2407179
  31.4438844  56.8569279  53.5112906  32.9252315  57.0212984  55.0575113
  33.4167576  56.1436653  54.9665451  33.3548713  58.0783939  55.8292913
  34.2433953  58.1220102  56.4416838  34.1000342  62.3406219  57.3534250
  35.3432536  62.4787140  57.3208666  33.2654619  63.4076214  57.5493050
  32.2734880  63.2986879  57.3936653  33.7350488  64.7667789  57.7457047
  34.3747067  65.0136423  56.8983507  32.4763227  65.6065893  57.8440857
  32.8845835  66.6047525  58.0024767  31.8307400  65.6571007  56.9672871
  31.8189549  65.3373718  58.6708117  34.6448517  65.0948143  58.9729023
  35.2889729  66.1512852  58.8874102  34.7741866  64.2502642  60.0284433
  34.2410898  63.3927202  60.0515270  35.7112265  64.5686388  61.1322927
  35.6496978  65.6415033  61.3147354  35.4632521  63.6486340  62.3846340
  36.2944198  63.8729525  63.0531740  34.1996527  63.9421654  63.1357574
  33.3705688  63.6634016  62.4853659  34.0863919  63.3169985  64.0214491
  34.0141797  64.9668932  63.4576702  35.5425239  62.2864294  62.0342207
  34.7338200  62.1361113  61.5392399  37.1822548  64.3052101  60.6975269
  38.1317306  64.6267509  61.4198208  37.3328948  63.6235237  59.5287323
  36.5484166  63.5689688  58.8949156  38.6719656  63.1268978  59.0671635
  39.2637157  62.6945400  59.8740101  38.4379172  61.8593550  58.1276083
  37.7425694  62.2728777  57.3971367  39.2918754  61.5280914  57.5367451
  37.6363111  60.7485485  58.7323380  36.7450094  61.0942602  59.2559433
  37.2851062  59.6875763  57.6191998  36.8642259  58.8193989  58.1263876
  36.6457272  60.1314497  56.8561316  38.2102299  59.4326830  57.1022081
  38.3823228  59.9293232  59.8132992  37.7361655  59.2298079  60.3436375
  39.1152596  59.2490816  59.3795109  38.8062000  60.6673050  60.4943419
  39.4766903  64.2914248  58.4646797  38.9395118  65.2153635  57.8823519
  40.7791090  64.1456509  58.6081886  41.1109304  63.4854126  59.2967224
  41.8030548  64.8097420  57.8232956  41.7909813  65.8639812  58.0999565
  43.2174158  64.2611027  58.0989456  43.9695978  64.7925568  57.5159597
  43.5345221  64.3558884  59.1374826  43.4044838  62.8464699  57.5828171
  43.7426662  62.7173519  56.3798094  43.2277727  61.8433762  58.4477806
  43.7014723  60.9687757  58.2723236  42.6908588  61.9346046  59.2983723
  41.3837814  64.7267866  56.3347387  41.0661888  63.6683941  55.8765984
  41.3881636  65.8942842  55.6389761  41.7909241  66.7189598  56.0606289
  40.8254290  66.0050488  54.2491913  39.7428012  65.8922005  54.3064737
  41.0696840  66.9958639  53.8661432  41.1948347  64.9119854  53.3238888
  40.2273035  64.4518375  52.6638460  42.4588776  64.3772697  53.2355547
  43.1806231  64.7914886  53.8079262  42.7543879  63.3280993  52.2238064
  42.5139427  63.6232042  51.2024355  44.2704439  63.0677462  52.3822832
  44.6328020  62.4208593  51.5833282  44.8424482  63.9955997  52.3839569
  44.3922043  62.5862837  53.3525801  41.8965435  62.0639372  52.5526047
  41.3511276  61.4633083  51.6290569  41.7773581  61.7348671  53.8344526
  42.1472216  62.3378229  54.5553875  41.0992050  60.5263042  54.2557955
  41.3045454  59.8226166  53.4491014  41.7170238  60.0518417  55.5654573
  42.8029013  60.1053333  55.4872561  41.4527845  60.7503605  56.3594055
  41.3131857  58.6663055  56.0820389  40.2258348  58.6174536  56.0239029
  41.8661213  57.4421978  55.3516531  41.8723488  57.6761532  54.2870712
  42.8840542  57.2510052  55.6912994  41.2751722  56.5443850  55.5327892
  41.7571688  58.4160900  57.5251102  41.4225960  59.1502523  58.2580280
  41.5294123  57.4511814  57.9780769  42.8381824  58.5557318  57.5272083
  39.5315909  60.8647871  54.2716408  38.7011790  59.9362135  54.3123817
  39.0580487  62.1411562  54.1984701  39.6853828  62.9087543  54.0052223
  37.6280522  62.3900700  53.9946556  37.0113969  61.6806459  54.5465231
  37.2076941  63.7829399  54.5341253  37.5756335  63.7716389  55.5600882
  37.8268790  64.5569944  54.0807533  35.7159400  64.1347599  54.3849659
  35.0058246  63.3100748  54.4460535  35.4687858  64.9062872  55.1141882
  35.3426719  64.7974253  53.0570030  36.1835027  65.1907063  52.1836329
  34.0842891  65.1619768  52.8456688  33.8620162  65.8044434  52.0987129
  33.4352112  64.9409676  53.5872555  37.3114014  62.1289396  52.5029707
  36.3356233  61.5177298  52.0834303  38.1235313  62.7928591  51.6271162
  38.7074947  63.4798145  52.0822811  38.1045175  62.5609779  50.1817226
  37.2000146  63.0228376  49.7859240  39.2062140  63.3582830  49.3985987
  38.8003492  64.3633318  49.2834854  40.0515556  63.3140135  50.0852823
  39.4618320  62.7827787  48.0396748  38.5980177  63.0899954  46.9563532
  37.7068901  63.6892319  47.0712805  38.7382007  62.4678087  45.6830692
  38.1477857  62.8320599  44.8553419  39.8493147  61.6778469  45.4697752
  40.0670385  61.3890123  44.4521475  40.7916784  61.4213228  46.5218639
  41.5921068  60.7343292  46.2900162  40.5195808  61.9295025  47.8254938
  41.1502457  61.6745472  48.6643362  38.1733537  61.0888958  49.9756384
  37.1700668  60.7072163  49.3206358  39.1989589  60.3237534  50.3838348
  40.0527573  60.7815075  50.6694841  39.3079209  58.8827848  50.2249098
  39.4304180  58.6556005  49.1659117  40.6249809  58.4398651  50.8931971
  40.8241034  57.4163532  50.5755901  41.4919567  58.9831591  50.5173254
  40.4357624  58.5459280  51.9614029  38.1269050  58.1220818  50.7959557
  37.3475599  57.4879456  50.0617313  37.8341079  58.1202364  52.1411324
  38.4655571  58.5151577  52.8233433  36.8335295  57.2254133  52.7762270
  37.1463919  56.1965656  52.5982046  36.7696619  57.3946667  54.2455769
  35.9264636  56.7302513  54.4344378  38.0031657  57.1121264  55.0773096
  38.8555884  57.4722004  54.5012665  37.8451586  57.6359415  56.0200500
  38.1427908  56.0544586  55.3007889  36.3077998  58.6650944  54.4330454
  37.0951080  59.0858650  54.7861671  35.3923631  57.3305893  52.1326923
  34.6714783  56.3771915  51.9118118  34.9904871  58.5551119  51.8016386
  35.4855394  59.3740129  52.1247864  33.7214828  58.9399958  51.1235237
  32.9247355  58.3754826  51.6078997  33.5331559  60.4331875  51.4840555
  33.7187743  60.5729198  52.5490093  34.2657137  61.0108328  50.9203339
  32.1439433  60.7828951  51.1932278  31.9442058  60.6726313  50.1273727
  31.4766884  60.1843214  51.8133736  31.9452572  62.3057747  51.4577532
  32.3127985  62.6240396  52.4333096  32.5855803  62.7970886  50.7251549
  30.4578209  62.5834656  51.3041210  30.1321578  62.1931410  50.3399134
  29.8066664  62.0257330  51.9771957  30.2029562  64.0223122  51.4642429
  30.3465796  64.2250824  52.4431992  30.8837962  64.5783615  50.9668875
  29.2533016  64.2287779  51.1892271  33.6165595  58.5498667  49.6383810
  32.5176096  58.0277252  49.3181753  34.6726727  58.6986589  48.7968874
  35.4630065  59.1912889  49.1877747  34.7110701  58.1793308  47.4018669
  33.8388538  58.5562944  46.8677902  36.0485554  58.6940002  46.7619848
  35.8985329  59.7127771  46.4046431  36.7718148  58.7184668  47.5770903
  36.6871595  57.8885603  45.6128311  37.6556015  58.3773470  45.5065060
  36.8811774  56.8317270  45.7960320  35.9032798  57.9396248  44.3156767
  34.6815801  58.1880236  44.2545652  36.4580584  57.7592134  43.1592989
  35.8373618  57.9299831  42.3810482  37.4370575  57.6785803  42.9244423
  34.7154212  56.6777182  47.4045563  33.9553142  56.0211468  46.6832256
  35.5586338  56.0033894  48.1849766  36.0989356  56.6270542  48.7673998
  35.5877781  54.5502949  48.4138441  35.9751964  54.0858889  47.5070190
  36.5716076  54.2667961  49.5336151  36.3687491  54.9629116  50.3474808
  36.3883519  53.2359505  49.8367262  38.0898833  54.3472624  49.2072201
  38.4013486  55.3837299  49.3369341  38.9050412  53.5896206  50.2719593
  38.9838886  52.5322771  50.0191641  39.9282885  53.9649963  50.2851200
  38.4173226  53.7011671  51.2403536  38.5410094  53.8118029  47.8668594
  38.1512904  54.2757940  46.9608068  39.6203542  53.9135122  47.7538347
  38.3499861  52.7400541  47.9213095  34.2383766  53.9474392  48.7089539
  33.8015509  53.1312227  47.9395533  33.5688210  54.4085073  49.6939754
  33.9976859  55.0558281  50.3398466  32.1219015  54.1205788  49.8997593
  32.0996118  53.1351614  50.3651237  31.5663052  55.0511026  51.0553122
  32.2352123  55.1513243  51.9100761  31.4522290  56.0652924  50.6725550
  30.3547859  54.4662905  51.3621569  30.4984546  53.6840963  51.8998671
  31.1783576  54.2199087  48.7109184  30.6240129  53.1856775  48.4123230
  31.0406399  55.3161526  48.0550575  31.5628505  56.0895777  48.4413290
  30.2878213  55.6520033  46.8513060  29.2212391  55.5844545  47.0656347
  30.5666876  57.1314621  46.4133215  30.6455970  57.7584028  47.3014784
  31.5705442  57.1338224  45.9886312  29.5923352  57.7976990  45.5120134
  28.5752702  57.5051069  45.7729149  29.7546148  58.8624430  45.6796169
  29.7718906  57.3640108  43.9980173  29.4412470  56.3322210  43.8789034
  29.1207075  58.0514336  43.4580994  31.1642623  57.5517130  43.6288929
  31.6893411  58.2559395  44.1273499  31.7383790  56.9330025  42.5855494
  31.0872555  56.1217785  41.8598795  30.1186275  55.9394121  42.0803452
  31.4764333  55.7327986  41.0129309  33.0049062  57.1607447  42.3547840
  33.5990453  57.5527096  43.0713463  33.4142590  56.8270397  41.4938688
  30.5082083  54.7075272  45.6798124  29.5992613  54.0522146  45.2332067
  31.7484212  54.6393871  45.1853466  32.4510670  55.2215672  45.6183100
  32.1796370  53.6400223  44.2283487  31.7524886  53.9562750  43.2767057
  33.7467909  53.6927509  44.0815783  34.2409253  53.2089758  44.9241352
  34.1129827  52.9045677  42.8095055  35.1036334  53.0849171  42.3921490
  34.1411638  51.8371201  43.0282736  33.3184171  53.0143833  42.0714617
  34.2389631  55.0326824  44.0073967  34.2260242  55.3844786  44.9005222
  31.6749620  52.2484016  44.5181799  30.9631395  51.6120720  43.7525082
  31.9830823  51.7278147  45.6921911  32.5287247  52.3024082  46.3184690
  31.6377926  50.3496695  46.0790348  31.8777657  49.7426891  45.2060604
  32.4591923  49.9315929  47.3383999  32.2278404  50.6514072  48.1235456
  32.1441293  48.9030695  47.5144053  33.9413333  49.7646570  47.0880318
  34.4285750  50.7011080  46.8164492  34.5646524  49.4288492  48.4992599
  34.4254422  50.1922369  49.2647409  34.2971659  48.4350872  48.8584137
  35.6304955  49.5389748  48.2993793  34.4240093  48.6845016  46.0509920
  33.9349651  47.7498388  46.3254833  34.1663742  48.9495230  45.0255680
  35.5134034  48.7009048  46.0834360  30.0983500  50.1541424  46.3199949
  29.5078206  49.0760136  46.1124420  29.3102479  51.2111425  46.7260647
  29.7704315  52.1037340  46.8338633  27.9012465  51.1369514  46.8427181
  27.6150274  50.1763773  47.2710657  27.4523425  52.3374271  47.6970577
  27.5993466  53.2672405  47.1475697  26.3792157  52.1654081  47.7802086
  28.1011271  52.3912048  48.9387369  28.9343333  52.8561020  48.8327217
  27.0913649  51.0903883  45.5048466  25.8796239  51.0273457  45.4916716
  27.7343631  51.3746834  44.3915749  28.6895800  51.6897011  44.4834137
  27.1951509  51.1433792  43.0839777  26.1261296  50.9331942  43.0505133
  27.2949767  52.4566460  42.2466087  28.3029771  52.8164625  42.0402670
  26.8664336  52.3828554  41.2471056  26.7717910  53.7754250  42.8792667
  27.3514700  53.9968252  43.7754011  26.8934608  54.5064735  42.0799732
  25.2611256  53.7664127  43.2121801  24.6732831  54.1233826  42.3665333
  24.9085879  52.7631474  43.4515047  25.0001431  54.4281530  44.5507336
  25.5193090  55.2110481  44.9217367  23.9259005  54.2913198  45.2781582
  22.9349947  53.5379124  45.0061226  23.0694413  52.7566528  44.3802929
  22.1463680  53.5677958  45.6364202  23.7454319  54.8402309  46.4425850
  24.4716454  55.3933096  46.8748140  22.8608251  54.7462034  46.9208431
  27.8786469  49.9626589  42.4171352  27.5276875  49.6630812  41.3109636
  28.8916039  49.3252897  43.0010653  29.0550971  49.6578312  43.9406347
  29.5853853  48.0710888  42.5753784  29.9283767  48.1949806  41.5481901
  30.9369588  47.8916073  43.2783079  31.5117025  48.8170147  43.2410002
  30.7638025  47.6966429  44.3366575  31.4257622  47.0143127  42.8546047
  28.6969781  46.8031454  42.7067757  28.1341171  46.5433741  43.7883902
  28.7218618  45.9914923  41.6554308  29.3793559  46.2456083  40.9320831
  27.9807377  44.6984053  41.5996885  27.5391531  44.3647623  42.5387287
  26.8333840  44.8419571  40.6116962  26.3036799  43.8926983  40.5315876
  25.8102751  45.9169245  40.9591246  26.2079906  46.9149160  40.7749224
  24.9171257  45.6919384  40.3762293  25.4866219  45.8372498  41.9969130
  27.3586917  45.2802610  39.3730545  27.6536942  46.1746693  39.5590854
  28.8704419  43.4966183  41.2542439  29.9083900  43.7105894  40.5561352
  28.5360265  42.2572565  41.7418003  27.2656798  41.7818880  42.3315907
  26.5049624  41.7928410  41.5510225  26.8424916  42.3310518  43.1726837
  27.4211049  40.2797222  42.6871824  26.8378901  39.7329617  41.9462204
  27.2284770  40.0434065  43.7336731  28.9603376  40.0110435  42.4051189
  29.1637468  39.0399790  41.9537258  29.5367885  40.0333786  43.3299494
  29.4977641  41.1417198  41.5673685  30.5230689  41.3606215  41.8655825
  29.6179271  40.5970573  40.1213074  28.6950254  39.9959135  39.6111536
  30.8096266  40.8871460  39.5352006  31.4847565  41.4643097  40.0160122
  31.3489604  40.2774143  38.3048153  30.7131696  40.4922867  37.4459195
  32.8514838  40.8654737  37.9572511  33.4788227  41.0392618  38.8315201
  33.7636161  39.9716163  37.1267939  34.6167850  40.5663252  36.8004107
  34.1086626  39.1311598  37.7290273  33.2426524  39.6679616  36.2187791
  32.5324368  42.2393656  37.2351027  32.2451830  41.9524240  36.2235451
  31.7444563  42.7680492  37.7714562  33.6319184  43.3654737  37.1813393
  34.5942593  42.9521847  36.8793535  33.2839513  44.0735340  36.4292336
  33.7886596  43.8803101  38.1292152  31.3385487  38.6691952  38.4793806
  31.7232776  38.1279993  39.5245695  30.7245159  37.9037380  37.5574780
  30.1152563  38.3258319  36.3384771  30.7242107  39.1086721  35.8863306
  29.1065335  38.7077498  36.4956760  30.1035333  37.1147346  35.4054022
  31.1286330  37.0307112  35.0445509  29.3787241  37.0505333  34.5938373
  29.7485518  36.0379386  36.3841844  30.0505352  35.0249004  36.1183572
  28.6663175  35.9212422  36.4412069  30.2669621  36.4968157  37.7325535
  29.4519091  36.4078832  38.4508038  31.4605379  35.5837393  38.1454849
  32.5857282  35.9022760  37.7764201  31.2573767  34.4313502  38.8899899
  30.3223372  34.1303134  39.1248918  32.2543716  33.5644221  39.4037461
  32.7502155  34.0151000  40.2634716  31.5139866  32.3923206  40.0006437
  30.8448672  32.8096867  40.7530928  30.8603358  31.9198775  39.2674017
  32.4272132  31.3418055  40.6039095  31.9022751  30.3867793  40.6254435
  33.2709742  31.0963988  39.9589682  32.9402256  31.5960741  42.0393133
  33.6445737  30.6583524  42.5201511  32.7041793  32.6765347  42.6321650
  33.2654405  33.1903362  38.2831216  32.8665400  32.8024459  37.1833062
  34.5854902  33.1108141  38.6086082  34.8931503  33.5039520  39.4866085
  35.6626916  32.5865126  37.8047681  35.5572653  32.7986169  36.7408133
  36.9417214  33.4500647  38.1704545  36.7998099  34.4527459  37.7672267
  37.0337296  33.6193109  39.2433000  38.2605076  32.9322553  37.6821709
  39.0090847  31.9720984  38.4707570  38.5700965  31.7437458  39.4307280
  40.2248669  31.4764571  38.0516219  40.8274078  30.8707809  38.7123084
  40.8004379  31.9972873  36.8867445  42.1210718  31.7844915  36.6087008
  42.5225449  32.3759627  35.9679317  40.0665522  32.8809834  36.0822511
  40.4540586  33.1775308  35.1187706  38.8106751  33.3850932  36.4965248
  38.3677912  34.2224431  35.9777689  35.7869148  31.0770559  37.9483533
  35.5519700  30.5447316  39.0039802  36.1167479  30.3747654  36.8693423
  36.1831212  30.8996582  36.0089970  35.9916806  28.9210987  36.7273378
  35.3917456  28.5349059  37.5513768  35.1455021  28.6067390  35.4450178
  35.6025553  29.0362978  34.5535684  35.1600862  27.5292516  35.2809763
  33.6418867  29.0332961  35.5924630  33.6240315  30.0629210  35.9497499
  33.2050824  28.9234447  34.1391706  32.2086763  29.3427992  33.9998388
  33.8165998  29.6036434  33.5463119  33.1535435  27.9073715  33.7479687
  32.8399420  28.1288362  36.4826798  31.9009733  28.6694098  36.6019201
  32.8579187  27.1347594  36.0359192  33.3637166  28.0081034  37.4309325
  37.3097515  28.1434941  36.6952109  37.3185349  26.9325471  36.9816208
  38.4320188  28.9045095  36.4079714  38.2132101  29.8793030  36.2596369
  39.7957706  28.4158301  36.4584994  40.4777336  29.2568660  36.3332510
  40.0908470  28.0413747  37.8863931  39.8472214  28.9218616  38.4809422
  39.4661689  27.2108436  38.2151866  41.5374708  27.7151608  38.3577704
  41.7946196  26.6831088  38.1193495  42.2713280  28.3178997  37.8227377
  41.7818308  27.8607082  39.8740101  41.5512753  28.9064336  40.0774813
  41.1834288  27.1694255  40.4674244  43.2708645  27.6301622  40.2639198
  43.4549332  26.5572000  40.2094126  43.8745070  28.1791663  39.5412016
  43.6497688  28.1460476  41.6013384  43.4769773  29.1400433  41.6484165
  42.9893303  27.8158402  42.2904539  44.5980787  27.9550672  41.8917274
  40.1627398  27.4056768  35.2851582  41.1982107  26.7393041  35.4352331
  39.2819881  27.3169351  34.2769337  38.5520291  28.0149722  34.2786241
  39.4136405  26.4262605  33.1462812  39.9436975  25.5243516  33.4523940
  38.0095983  25.8909321  32.6802301  38.1169486  25.1342821  31.9030190
  37.5548649  25.3297043  33.4965253  37.0529556  27.0255709  32.1438861
  36.9248223  27.7843904  32.9158163  37.5823998  27.5948668  31.3798881
  35.7855844  26.4761400  31.6176629  35.3780818  25.4146862  31.9364619
  34.9243355  27.2420359  30.9422398  34.1181016  26.7995381  30.5247664
  35.2312589  28.1504273  30.6248808  40.1782703  27.1659374  32.0117450
  39.9708438  28.3462453  31.7805648  41.1845541  26.4397359  31.4817834
  41.2196684  25.4739022  31.7750955  42.1693277  26.9647813  30.5090380
  41.6882086  27.8530717  30.0996971  43.4601688  27.3738718  31.1778688
  43.5909033  26.5804768  31.9137573  44.6610451  27.4930930  30.2579165
  45.4705954  27.9682589  30.8119440  45.0531340  26.5166783  29.9733353
  44.4596338  28.1473064  29.4096589  43.3673620  28.6901522  31.9141316
  43.5609388  29.5206952  31.2352896  42.3542786  28.8930535  32.2614193
  44.3370867  28.8271499  33.1436968  44.3740511  27.9375958  33.7725258
  45.3268719  28.9457655  32.7028394  44.0704536  29.7498822  33.6590362
  42.3708773  25.8586693  29.3790245  42.6566219  24.6713400  29.6786571
  42.2491264  26.2276411  28.1035209  41.9020176  27.4798703  27.5419593
  42.3850155  28.2485962  28.1451797  40.8158207  27.5681257  27.5638771
  42.4246788  27.5021148  26.1270976  43.4838581  27.7568889  26.1633372
  41.8994236  28.2089686  25.4847836  42.2133255  26.0942101  25.6928110
  42.8206253  25.8746147  24.8147082  41.1667919  26.0442972  25.3921723
  42.5787497  25.3669453  26.9531918  41.8824053  24.5325065  27.0363355
  44.0678644  24.8705173  26.9801140  45.0245953  25.6557989  26.7775249
  44.1869164  23.6137319  27.2647691  43.3346939  23.1861663  27.5979376
  45.4240561  22.8355122  27.3347330  46.0273075  23.1222749  28.1961036
  45.1051712  21.3480926  27.5790167  44.3776131  21.3475823  28.3906579
  44.5268488  20.8318329  26.8127823  46.3586903  20.5179620  27.9356384
  47.0275021  20.6436849  28.9861608  46.7219591  19.6282387  27.0177197
  47.4864292  18.9966488  27.2095060  46.1973143  19.4844747  26.1667323
  46.2041616  22.9593682  26.0077381  47.4166203  23.0498219  26.0907865
  45.4945707  23.0881786  24.9267530  44.4966125  22.9830623  25.0413537
  46.0366392  23.4462929  23.6131287  46.7981052  22.7041292  23.3734035
  44.9967957  23.4381366  22.5101304  45.4175806  24.1102028  21.7622209
  44.8908424  22.4214911  22.1315765  43.7431097  23.8262200  23.0401421
  43.2654381  23.1216097  23.4839368  46.8251848  24.7525811  23.5679936
  47.9134178  24.7426200  23.0225682  46.3292027  25.8122277  24.2527843
  45.3900051  25.8327031  24.6237254  47.0361900  27.1263885  24.2570376
  47.7385712  27.2321939  23.4302521  45.9923697  28.3085275  24.1339684
  45.6014681  28.4909654  25.1349735  46.4216375  29.2455626  23.7792921
  44.6284342  27.8350973  23.0942464  45.3585196  27.9566693  21.9819975
  47.9477119  27.3930883  25.5009317  48.4650517  28.4813190  25.5881786
  48.1507778  26.4991546  26.4578700  47.6584482  25.6310534  26.3025737
  49.0513039  26.6252398  27.6585221  48.4980774  27.3482347  28.2579541
  49.0411472  25.3233719  28.4478760  49.2703533  24.4821930  27.7936721
  50.1659679  25.3847075  29.4999313  49.9638319  26.2853217  30.0797033
  50.1208448  24.5382833  30.1852274  51.1842871  25.4128647  29.1122031
  47.6741791  25.1748419  29.0694928  46.8890524  25.2419853  28.3163834
  47.6250267  24.2368412  29.6225214  47.6032829  25.8677459  29.9079180
  50.3693438  27.2927475  27.3401976  50.9913874  26.9017291  26.3341498
  50.8118486  28.1581998  28.2220435  50.1305151  28.4810567  28.8940907
  52.0476961  28.8996410  28.1185913  52.5490141  28.8402700  27.1525359
  51.7724609  30.4231644  28.3141923  52.6946640  30.9894180  28.1838179
  51.0705853  30.6353760  27.5076962  51.1497259  30.7262564  29.6719265
  50.6120491  31.5092301  29.5324373  53.0470467  28.5147548  29.2196131
  54.1546822  29.0327168  29.2606974  52.6218605  27.8312683  30.3249741
  51.6781902  27.4763155  30.2649784  53.2920837  27.5876975  31.6086984
  52.5729847  27.0208359  32.2000241  54.1794157  26.9894075  31.4018297
  53.7932539  28.7959361  32.4239230  53.2392693  29.9079347  32.2821951
  54.9248219  28.6719251  33.1684041  55.3180456  27.7451181  33.2490587
  55.7873583  29.7912407  33.5226631  55.0843287  30.5592847  33.8450956
  56.5859127  29.3126345  34.7706819  56.8737268  28.2762957  34.5938611
  56.0515547  29.2716265  35.7198286  58.1848049  30.1948571  34.9965167
  56.5228510  30.5359507  32.4043417  57.3865509  29.9648952  31.6632724
  56.0590935  31.7668128  32.2184896  55.2770805  32.0607233  32.7860904
  56.5488243  32.6295638  31.1250877  56.8606615  32.0065641  30.2867985
  55.5374956  33.5593700  30.5367041  55.2197886  34.2476225  31.3199544
  56.0533953  34.0809679  29.7305536  54.0631390  32.5808406  30.2030540
  54.0789413  31.7499256  31.2491107  57.8000069  33.4250641  31.5855193
  58.5620928  33.8568568  30.6859565  58.0732346  33.5877395  32.8692532
  57.3900509  33.1499958  33.4707046  58.9575529  34.5700049  33.4609866
  58.5138130  35.5648160  33.4216976  59.2030191  34.1249490  34.8675561
  59.8870325  34.8205757  35.3536892  59.6521616  33.1319761  34.8480940
  57.5261068  33.9131474  35.6768322  60.2650213  34.8064709  32.6464701
  60.5113173  35.8795333  32.1620679  61.1086464  33.7730551  32.4826193
  60.8362341  32.8888416  32.8876567  62.4476290  33.8707685  31.8624544
  63.0710125  34.6563721  32.2894502  62.9479980  32.9370022  32.1189928
  62.4013281  34.0971327  30.3729796  63.3799076  34.7111058  29.8419142
  61.4092827  33.6069989  29.6330929  60.6886148  33.0831075  30.1087809
  61.0789251  34.0284610  28.2517934  61.9460630  33.7929034  27.6347947
  59.7962809  33.3263993  27.7159166  59.9763680  32.2763157  27.9461265
  58.9325857  33.6671662  28.2868862  59.4984055  33.3944941  26.1851668
  60.1319599  32.7259135  25.2084517  60.9154081  31.9936252  25.3363872
  59.7047520  33.2790971  23.9977002  60.1422596  33.0600047  23.1141305
  58.8020658  34.3199444  24.1487432  58.1912422  35.1285148  23.2359123
  58.3069277  35.1193500  22.1621656  57.3583841  36.1265683  23.7216187
  56.9078016  36.8525934  23.0611181  57.0650339  36.2414598  25.1101375
  56.3124704  36.9415236  25.4417300  57.6761103  35.2982140  26.0225391
  57.6303196  35.5696177  27.0668793  58.6158562  34.3681550  25.5359840
  60.8050442  35.5820704  28.1392336  61.5553856  36.2808347  27.4300337
  59.9183750  36.0557508  29.0216088  59.4116735  35.3844595  29.5808244
  59.5438099  37.5042510  29.1766953  59.1575670  37.7753210  28.1941295
  58.3488226  37.6372814  30.1334929  58.6024189  37.2401953  31.1164045
  58.2484865  38.6934543  30.3835559  57.0674086  37.0464206  29.6206689
  57.2313261  36.0952473  29.1141987  56.1992073  36.8219447  30.8113670
  55.9540176  37.7222967  31.3747048  55.1805639  36.4697289  30.6488562
  56.7327690  36.1577249  31.4912391  56.3851404  38.0672097  28.7820721
  56.2774420  39.0249610  29.2912030  56.9287729  38.1503820  27.8409839
  55.4041815  37.7264738  28.4508204  60.7040501  38.3484387  29.7268128
  60.8230114  39.4210339  29.1723442  61.6017151  37.8194714  30.5987430
  61.2700844  36.9802594  31.0524440  62.8972864  38.4580398  30.9432077
  62.6750708  39.4595933  31.3114572  63.6852026  37.7169728  32.0213461
  63.9416218  36.7146158  31.6783714  64.9684858  38.3986592  32.3033619
  65.6723833  38.3551478  31.4722562  64.7464466  39.4579434  32.4326515
  65.3099537  38.0323696  33.2715225  62.9895544  37.6560140  33.2287574
  62.1397781  37.2475147  33.0481982  63.7797689  38.8917661  29.7226405
  64.3816996  39.9652767  29.7253180  63.7872076  38.1292057  28.6669707
  63.3365917  37.2339916  28.7920260  64.5236397  38.5166717  27.4281192
  65.4650974  39.0306234  27.6220584  64.7473001  37.1899033  26.5791345
  63.7267256  36.8452215  26.4126348  65.0804758  37.4667811  25.5789185
  65.6198597  36.1232901  27.1519327  66.6714096  36.3774276  27.0186949
  65.4660606  36.1706710  28.2299900  65.2967453  34.7278857  26.6086221
  64.2251539  34.5640993  26.7225051  65.4805470  34.8084402  25.5372524
  66.2108469  33.6162210  27.1428776  66.2796068  32.8601861  26.3607121
  67.2400713  33.9009142  27.3613954  65.5651522  32.7806282  28.2522798
  65.2328014  33.2971144  29.0540791  64.8272324  32.1544147  27.9634309
  66.2267637  32.2095299  28.7584615  63.7986565  39.7324276  26.7123961
  64.2823410  40.8063650  26.5646052  62.4941015  39.4688344  26.4115882
  62.1659708  38.5282302  26.5780020  61.6258192  40.3965425  25.6816673
  62.1619701  40.4732037  24.7357488  60.2307129  39.8065305  25.4541779
  59.5536518  40.1279449  26.2456179  59.5375252  40.3257704  24.1838503
  59.5898390  41.4140224  24.2167640  59.9774361  39.9093962  23.2776427
  58.5039616  39.9838567  24.1296268  60.1397943  38.4209609  25.1954675
  60.4053354  38.2941461  24.2816806  61.4665794  41.7735004  26.3365746
  61.6817904  42.7531290  25.5606747  61.1965179  41.8354082  27.6614094
  60.9733820  40.9607887  28.1145716  61.3298178  43.0525875  28.5803699
  60.5982399  43.7701607  28.2089019  61.0681629  42.7861166  30.0934982
  61.8402195  42.0686579  30.3714848  61.1480045  44.0220451  30.9544110
  62.1166611  44.5190668  30.9016299  60.3452396  44.7167540  30.7073188
  60.9041500  43.6273861  31.9407606  59.7109032  42.2546959  30.3221917
  59.5011950  41.3752127  29.7133899  59.6614075  41.9235945  31.3595080
  58.9384699  42.9873657  30.0884485  62.6348162  43.7786102  28.4183502
  62.6064062  44.9160099  27.9627609  63.7533617  43.0870628  28.6915779
  63.6717606  42.0834351  28.7701416  65.0863981  43.7444115  28.6228251
  64.9668121  44.5153189  29.3840742  66.1518621  42.7730322  29.1223717
  66.0127354  41.7911434  28.6700058  67.0772505  43.3130503  28.9220095
  66.1327648  42.5942993  30.6365275  65.1031208  42.6074696  30.9939480
  66.5627384  41.6732788  31.0301661  66.9414091  43.7478447  31.3260865
  67.9363585  43.9450836  30.9269977  66.4729977  44.7304535  31.2697959
  67.1379232  43.4179544  32.8482413  66.1593199  43.2257318  33.2881021
  67.6459742  42.4552059  32.9039025  67.8558826  44.4487715  33.6358905
  67.5833559  45.4192352  33.5723734  67.7725315  44.2413139  34.6208358
  68.8433218  44.3321466  33.4585238  65.3451967  44.3058729  27.1646547
  65.7938385  45.4243994  26.9503093  64.9522448  43.5970545  26.0827947
  64.5681620  42.6786089  26.2532187  65.0537252  44.0424871  24.6940160
  66.0993242  44.3390083  24.6109843  64.7710896  42.8915310  23.7565637
  65.4341841  42.0630074  24.0054655  63.7773848  42.4877548  23.9505124
  64.7524643  43.1440258  22.2399902  64.7593689  42.1953154  21.7033291
  63.8528728  43.6789560  21.9355369  65.8557081  43.9942646  21.6688633
  66.9801283  43.8599348  22.1814942  65.5473995  44.8269463  20.7815528
  64.2225313  45.2536774  24.3828487  64.6938705  46.3402843  23.9073777
  62.9314661  45.1637125  24.8201680  62.6416206  44.2572451  25.1584125
  61.9940758  46.2664747  24.8291636  61.7953157  46.6427040  23.8256454
  60.7068396  45.7217360  25.3711390  60.7261944  45.2698469  26.3628650
  59.6953869  46.8582726  25.3443646  59.9388790  47.4583530  26.2211299
  59.7110081  47.4182558  24.4093347  58.7014008  46.4664936  25.5602360
  60.0342798  44.8554134  24.5507908  60.5367327  44.0418863  24.6362948
  62.5524807  47.4872112  25.5737472  62.2710848  48.6560202  25.2949786
  63.4048510  47.1819401  26.5274763  63.3701277  46.2222815  26.8404531
  64.1740274  48.2579470  27.2000885  63.6392879  49.2054987  27.2657537
  64.6491814  47.8192616  28.6206698  65.5388069  47.1929169  28.5546708
  65.0175762  48.8987827  29.5642018  65.3062725  48.4910774  30.5329800
  65.8632612  49.4901562  29.2132044  64.1480398  49.5215464  29.7743797
  63.7023163  47.0793104  29.2624187  63.4622240  46.3208771  28.7250757
  65.3759193  48.6661863  26.3492799  66.4353418  48.9915657  26.8379760
  65.2183771  48.7857342  25.0155520  64.3654728  48.3960438  24.6403241
  66.3066721  49.1978359  24.0097570  65.8414078  49.0735197  23.0319166
  66.4354849  50.7103586  24.1849875  66.7780590  50.9389305  25.1941943
  67.1837139  51.0244703  23.4572601  65.0923777  51.5239716  24.0013790
  64.6265554  51.1689234  23.0821133  64.4863033  51.3401079  24.8884940
  65.3317547  53.0219460  23.8532019  65.8218145  53.3184862  24.7805667
  65.9824038  53.2129192  22.9998064  64.0488768  53.7962198  23.7184572
  63.3396530  53.3713722  23.1382775  63.7509394  54.9910498  24.1771317
  64.6004534  55.8892488  24.6235776  65.5800772  55.6505823  24.6825171
  64.2656898  56.8197918  24.8288155  62.5645447  55.4568338  24.0691161
  61.7371559  54.9708605  23.7538981  62.6027489  56.3568878  24.5257831
  67.6145363  48.4356928  24.2149758  68.6753893  49.0134001  24.2591786
  67.4946070  47.0828390  24.3737841  66.5722942  46.6714334  24.3599534
  68.6516619  46.1734724  24.3923497  68.1737995  45.1964664  24.3201470
  69.4513988  46.3266850  23.1415749  70.0663519  47.2263002  23.1668210
  70.3647089  45.1141167  22.8927279  69.8327589  44.1759205  22.7348542
  70.9255552  45.3889799  21.9994187  71.0411739  44.9474001  23.7310004
  68.5977077  46.3410425  22.0530152  68.0388069  45.5605555  22.0613551
  69.5598173  46.2414980  25.6420088  70.8073711  46.4536572  25.6731915
  68.8454580  46.0813046  26.7375016  67.9014254  45.7701159  26.5584517
  69.3061590  46.2282562  28.1585455  70.0408745  47.0310831  28.2198334
  68.0924559  46.5922070  28.9558148  67.6195288  47.4669075  28.5093379
  67.4445438  45.7157373  28.9452004  68.3551645  46.8853951  30.4414797
  67.4523640  46.8705368  31.0520768  68.9395571  46.0952902  30.9129882
  68.8899755  48.2978344  30.7347560  68.8204479  48.7258101  31.9313884
  69.3874598  48.9756966  29.7876024  69.9051905  44.9144745  28.7333989
  69.3278885  43.8682175  28.2986999  71.0035181  44.9599695  29.5294166
  71.7774200  46.2676620  29.7053099  71.3069487  46.8679285  30.4840469
  71.8994236  46.9511652  28.8650489  73.1405401  45.9395409  30.1745725
  73.4127474  46.6479111  30.9570122  73.8410425  45.9877872  29.3408680
  72.9702044  44.5133972  30.8033800  72.6603651  44.7909641  31.8108821
  73.8938189  43.9346695  30.7933068  71.8195581  43.8313723  30.0740314
  72.2968817  43.2466984  29.2876363  71.0426760  42.9056644  30.9213114
  70.3359795  43.3572721  31.8700361  71.1149216  41.5837240  30.6603837
  71.4619970  41.2923193  29.7577643  70.2319670  40.5462551  31.2668300
  69.2137623  40.8722401  31.0544705  70.3477001  39.2143416  30.4367709
  71.3969898  38.9492917  30.5665636  69.4355202  38.0722046  30.8436632
  69.7129536  37.5891829  31.7805862  68.4223270  38.4636521  30.9348035
  69.4865179  37.2212982  30.1643467  70.0849295  39.4177675  28.9095402
  70.6816864  40.2335215  28.5014629  70.3407907  38.4954786  28.3879852
  68.6276817  39.8048592  28.5670733  68.3435535  40.6512642  29.1923428
  68.5238791  40.0209808  27.5037694  68.0300236  38.9057398  28.7170339
  70.3147221  40.4487944  32.7645493  71.2497473  40.8403063  33.3972430
  69.2684221  40.0233555  33.4455180  68.4282732  39.7214603  32.9731750
  69.3230152  39.6149349  34.8324847  69.7332621  40.4472733  35.4043365
  67.9076195  39.0817881  35.2079701  67.6774216  38.2810545  34.5051622
  67.9552984  38.6879611  36.2232161  66.8020868  40.1759577  35.0710511
  66.3544559  40.6033802  34.0088201  66.4569378  40.7381010  36.2369156
  65.6568956  41.3492584  36.1561275  66.9951487  40.5365467  37.0674586
  70.4179335  38.5280776  35.0765228  70.6240463  37.7334547  34.1543221
  70.9758615  38.3741832  36.2333417  70.6787491  38.9806771  36.9843388
  71.7772532  37.1786213  36.6365719  72.3986912  36.9975090  35.7595801
  72.5675535  37.3695827  37.9534149  73.1006479  36.4658904  38.2488203
  73.5629797  38.5446215  37.7322030  74.3069315  38.1760550  37.0259500
  72.9876661  39.3868351  37.3477721  74.0415764  38.8093758  38.6750412
  71.8038702  37.8371811  39.0494132  72.1933699  38.5659909  39.5380068
  70.9375286  35.8851147  36.8759418  71.5879250  34.8611450  37.0227289
  69.6212292  35.9312034  36.9408154  69.1640615  36.8251634  36.8315649
  68.8075638  34.7115564  37.0039606  69.2504883  33.7789583  36.6544104
  68.3763456  34.3626714  38.5061884  67.5056314  33.7073469  38.4836125
  69.5569086  33.6855268  39.2982745  70.4574156  34.2592049  39.0789962
  69.2683077  33.7566376  40.3469706  69.5596313  32.6484823  38.9626670
  68.0338144  35.5077219  39.2735028  67.2846460  35.9463120  38.8636422
  67.6246929  34.8615527  36.1027169  67.3422670  35.8599806  35.4145885
  66.8153667  33.7761807  36.0407734  66.9592285  32.9668927  36.6276765
  65.5332184  33.8696170  35.3815126  65.2272892  34.8707056  35.0776505
  65.6838369  32.9715896  34.1269183  66.0780239  32.0051455  34.4410992
  64.6799707  32.7324200  33.7759829  66.4951515  33.5091805  33.0028796
  66.0445166  34.7208929  32.3663235  65.1657057  35.1954746  32.7772474
  66.6436958  35.2153945  31.2739706  66.2421560  36.1410809  30.8889103
  67.7106237  34.5081997  30.6873345  68.2164717  34.9750519  29.4914174
  68.8774872  34.3290091  29.2320299  68.2540274  33.3529115  31.3053942
  69.1117811  32.8579974  30.8744407  67.5708389  32.8467965  32.4344897
  67.9551601  31.9756389  32.9441857  64.5183706  33.2583642  36.3464618
  64.5909595  32.0901942  36.6918206  63.5776091  34.0698361  36.7973137
  63.5515165  34.9296904  36.2681007  62.4003029  33.7999964  37.6266384
  61.9852304  32.8097653  37.4388552  62.8794050  33.8131452  39.1307545
  62.0920563  33.4783006  39.8060775  63.6905193  33.0903029  39.2184734
  63.3358717  35.1203489  39.4130135  64.1630125  35.3343987  38.9752603
  61.4000368  35.0232482  37.4683166  61.6901207  36.1379790  36.9741368
  60.2685118  34.8350596  38.1081176  60.2829266  33.9455891  38.5863805
  59.3321943  35.9506631  38.4929156  58.7616539  36.2672448  37.6197863
  58.1318474  35.3754306  39.2693138  57.5848293  34.6952748  38.6164236
  58.4444952  34.7525573  40.1073933  57.1538877  36.4706802  39.8248863
  56.2451267  37.1503258  38.9754748  56.1953831  36.8455482  37.9405642
  55.3541088  38.1347799  39.5114994  54.6486378  38.6204004  38.8535523
  55.3251982  38.3271313  40.9151316  54.5018339  39.1768479  41.4980936
  53.6082411  39.1555500  41.1478949  56.2706709  37.6518393  41.7263460
  56.2352085  37.8189445  42.7927494  57.1838665  36.6948175  41.1824226
  57.8884411  36.2684536  41.8811274  59.8528194  37.2748613  39.0431666
  59.4933271  38.3133578  38.5213089  60.7971048  37.2071695  40.0012589
  60.9861231  36.3342834  40.4729033  61.4263296  38.3409834  40.6038141
  60.6621361  39.0584612  40.9026909  62.0669127  38.0134153  41.9368935
  62.5657082  38.8549757  42.4176025  60.9445190  37.5077486  42.8685093
  61.3175821  37.4578619  43.8914633  60.0303268  38.0932665  42.9661036
  60.6483555  36.5155911  42.5279045  63.0126810  36.9338751  41.8932724
  63.8403702  37.2529101  41.5261936  62.4455929  38.9947009  39.7126222
  62.7786446  40.1480627  39.9313807  62.9017496  38.2797050  38.6976266
  62.7007055  37.2934508  38.6140418  63.7743425  38.9042902  37.6675177
  64.4704628  39.5542192  38.1977177  64.6563482  37.8764915  37.0221043
  64.0279198  37.1172261  36.5565991  65.2684689  38.4191251  36.3017178
  65.6434011  37.2934437  38.0162239  65.4469204  36.1226320  38.3272219
  66.4161253  38.0633163  38.6160517  62.9015827  39.7269583  36.7264271
  63.1292820  40.8890772  36.5515256  62.0056725  38.9752960  36.1646008
  62.0383692  38.0097580  36.4591718  60.8089781  39.3918586  35.3316665
  61.2255144  39.5839477  34.3428802  59.7422266  38.2745814  35.0600362
  60.1824093  37.4411941  34.5124865  59.3701982  37.7405882  35.9344172
  58.5179520  38.7871981  34.3312168  58.6156654  39.7787237  33.2901692
  59.5770073  40.2386904  33.1150723  57.4600983  40.2934456  32.6875949
  57.5660181  41.1273813  32.0095491  56.2324429  39.7724795  33.1173968
  55.3185797  40.1451111  32.6787615  56.0706043  38.7959552  34.0771985
  55.0768566  38.4624720  34.3372917  57.2476959  38.3848357  34.8417258
  57.1817541  37.6912808  35.6669712  60.2256060  40.6937790  35.8204412
  60.2449512  41.7296934  35.1691675  59.7657919  40.6431150  37.1029592
  60.0405264  39.7986865  37.5841689  59.1406727  41.8331575  37.7710438
  58.4956455  42.2424078  36.9935131  58.2575512  41.5263128  39.0142775
  57.4941635  42.2870445  39.1774368  57.7831221  40.5514002  38.9021516
  58.9449263  41.4040995  40.3595257  58.4221125  40.6731892  40.9764004
  59.9545956  41.0501957  40.1511574  59.0215158  42.6598406  41.1084938
  60.0521755  43.2168198  41.1850405  57.9816389  43.0783319  41.8399668
  58.2163525  43.8219404  42.4818850  57.0362902  42.7641344  41.6735411
  60.0913858  43.0429983  37.9415727  59.7864914  44.1613865  37.6127529
  61.3581657  42.7514553  38.3177590  61.6163540  41.7862511  38.4654498
  62.3602486  43.8121128  38.4766245  61.9603348  44.5488214  39.1733527
  63.5701132  43.2519436  39.2122102  63.8764286  42.2772360  38.8324475
  64.4412994  43.8705683  38.9967108  63.2626581  43.0859327  40.7032776
  62.7716064  43.9846611  41.0764456  62.5139809  42.3143339  40.8827925
  64.5600319  42.8478241  41.5628481  65.2533245  43.6539602  41.3228703
  64.2826939  42.9312038  42.6136684  65.0091648  41.3646603  41.3585949
  64.2328215  40.6189823  41.5299511  65.2115536  41.2009764  40.3001308
  66.2209415  40.9059715  42.0683384  66.2843418  39.9101090  41.9123125
  67.0373344  41.3671732  41.6929770  66.2399292  41.1140442  43.0564928
  62.7245522  44.5405722  37.2512650  62.6784801  45.8284998  37.2010946
  63.0241442  43.8647890  36.0818624  63.0478477  42.8580475  36.1594081
  63.0706692  44.4055176  34.7030854  63.8510799  45.1662493  34.7218823
  63.4675980  43.2730007  33.7650847  63.7407446  43.6050272  32.7634645
  64.1968822  42.5372934  34.1041756  62.6341867  42.5795031  33.6528969
  61.7872238  45.1925516  34.3405676  61.9378376  46.3407898  33.9300251
  60.6115150  44.6583033  34.6057582  60.4423571  43.7196398  34.9380136
  59.4065619  45.4736996  34.4715238  59.2842484  45.8336830  33.4499812
  58.1485128  44.6119595  34.6621919  58.3224058  43.9445877  35.5062699
  56.8166399  45.2613163  34.9507785  56.4300585  45.8579206  34.1245127
  56.0854483  44.4696140  35.1140714  56.9008827  45.9459925  35.7947135
  57.8883982  43.6625862  33.5105395  57.5141811  44.1213751  32.5953460
  58.8085651  43.1845474  33.1745768  57.1514416  42.9899502  33.9493465
  59.3821716  46.7599583  35.2632475  58.9828157  47.7994299  34.7554946
  59.8176432  46.7928743  36.5575337  60.1905823  45.9844255  37.0344234
  59.7721863  47.9904699  37.3933029  58.7630844  48.4024143  37.4041486
  59.9702358  47.5445652  38.8395834  60.4197788  46.5591908  38.9622402
  60.5617619  48.2685709  39.3999529  58.6710930  47.4926472  39.6927166
  57.7724552  48.2144785  39.4764113  58.5625172  46.5612364  40.6686258
  57.7500534  46.5789032  41.2683678  59.3946552  46.0395861  40.9042835
  60.8830595  48.9343166  36.9158173  60.6698799  50.1571178  36.9204593
  61.9912958  48.4309530  36.3215518  62.1588993  47.4411678  36.4326382
  62.9542637  49.3427038  35.7239485  63.1497240  50.2462101  36.3015079
  64.2797804  48.4709311  35.6024075  64.6430922  48.2358932  36.6028380
  64.0843534  47.5847054  34.9986482  65.4604435  49.1873789  34.8366785
  66.2351942  48.4303236  34.7152996  65.0683451  49.7014904  33.9591599
  66.0913944  50.3446102  35.5746126  65.3691387  51.1015701  35.8803177
  66.5799284  49.7887373  36.3748837  67.1022081  51.0186291  34.6801639
  67.8541613  50.3403187  34.2769694  66.6084528  51.4096355  33.7905478
  67.8917742  52.0247412  35.3915477  67.3195696  52.7940273  35.7091570
  68.4274197  51.6728067  36.1721420  68.5541677  52.4780464  34.7784853
  62.4658585  49.9266243  34.3543243  62.8985119  51.0249186  34.0521383
  61.5719223  49.2327547  33.6483574  61.3308620  48.3414173  34.0576410
  60.8309412  49.7979546  32.5162721  61.6314602  50.3471041  32.0205879
  60.3215742  48.6749792  31.5704632  61.1382103  47.9690838  31.4190745
  59.3665600  48.3896875  32.0116639  59.9434090  49.1587305  30.1093936
  59.2697096  50.0087261  30.2177358  61.1405563  49.7591162  29.3404341
  60.7990456  49.9631596  28.3256245  61.5843058  50.5793858  29.9046659
  61.8729591  48.9653921  29.1931629  59.3344307  47.9838514  29.3078637
  58.9515686  48.3975887  28.3749461  60.1047897  47.2329235  29.1324925
  58.5952377  47.4896336  29.9382997  59.8975897  50.8885431  32.8441596
  60.0410604  52.0102930  32.3484182  58.8909245  50.6437874  33.7039065
  58.9015341  49.7014475  34.0672159  57.7730179  51.4683628  34.1525555
  57.3022604  51.6900206  33.1947660  56.9472647  50.7024717  35.1706862
  57.6420546  50.2003288  35.8439016  56.1520481  51.3330030  35.5683947
  56.1316061  49.5967388  34.5108271  56.7907953  48.9764452  33.9035273
  55.4644251  48.7284756  35.5658960  54.7678471  49.2951012  36.1838055
  55.0701618  47.8716660  35.0195098  56.1893988  48.3920956  36.3070917
  54.9694014  50.1564741  33.7470913  54.2181921  50.5719852  34.4187546
  55.2065086  51.0344267  33.1461954  54.3832827  49.4671488  33.1393099
  58.3077860  52.7771378  34.6766019  58.0833578  53.8204193  34.0926242
  59.1708708  52.7188396  35.7426262  59.4488049  51.8028450  36.0648417
  59.6910906  53.8124132  36.4735913  58.9285135  54.3990278  36.9858980
  60.6389284  53.4578657  37.6424026  61.0682344  54.3465614  38.1050229
  60.0537157  52.6573849  38.7954617  59.9184084  51.6061163  38.5412502
  60.7548189  52.5892115  39.6272707  59.1380501  53.1213284  39.1620922
  61.7530823  52.7097845  37.1436238  61.3647127  51.8378735  37.0409632
  60.4841995  54.7551727  35.5735373  60.5252647  55.9425545  35.8721256
  61.0599661  54.1854382  34.5413399  60.9834814  53.1800699  34.4823575
  61.7902851  54.9566078  33.5184789  62.3962736  55.7013226  34.0344930
  62.8287172  54.0423965  33.0357480  63.3738708  54.6235991  32.2920299
  63.4930992  53.7866306  33.8611484  62.4297953  53.1054497  32.6470399
  61.0334015  55.5691433  32.3993564  61.5008259  56.4516163  31.6751766
  59.7695446  55.1314688  32.1668506  59.3818760  54.6050835  32.9367399
  59.1078186  55.2838850  30.8467150  59.6879482  56.0006428  30.2654982
  59.0810251  53.9500523  30.0432897  58.4882545  53.2671928  30.6519222
  58.7231255  54.0512466  29.0187073  60.4007959  53.4302950  29.8951340
  60.5536270  53.0166101  30.7478404  57.6877403  55.8867693  30.9187269
  57.1862364  56.3977242  29.8868108  56.9596148  55.8381939  32.0738816
  57.4661064  55.5705214  32.9056978  55.7605410  56.5605688  32.3101330
  55.1992846  56.3951397  31.3905001  54.9124002  55.9181023  33.4853005
  55.6266403  55.8693457  34.3072414  54.1274023  56.6011095  33.8099146
  54.3051863  54.5572519  33.2222867  55.0883389  53.9380789  32.7848053
  53.8722754  53.8722992  34.5089531  53.1399202  54.5143414  34.9983835
  53.4367514  52.9065752  34.2524362  54.7133827  53.6424732  35.1630306
  53.0998898  54.4767904  32.2513723  53.2203913  55.1080370  31.3709712
  52.9915524  53.4490728  31.9047117  52.1511841  54.8471165  32.6398492
  55.9378719  58.1140041  32.4003124  54.9388647  58.8392448  32.1608949
  57.0042658  58.5337925  32.8827691  57.8310823  31.6441154  36.7212701
  16.5761375  55.6170464  52.0242214  40.8227491  40.6144619  31.3882232
  17.9003620  60.0805998  53.8484144  65.9757566  37.7716827  45.3204823
  17.8522293  29.5713466   0.6942605   2.7792281   4.5260701  19.3466389
  15.5190659  58.1625509  37.3742723  18.2712626  29.1725016  61.2322140
  17.4631596  28.6847234  61.3911915  18.4726751  29.5829201  62.0731735
  73.5378395  70.3755931  18.1141280  73.8949572  71.2601093  18.0345821
  74.2754113  69.8458199  18.4167194  49.4303513  72.1935368  61.3804007
  48.5504198  72.4799824  61.6251469  49.9613047  72.3584557  62.1595812
  22.9302303  30.8799547  14.2449474  23.5456935  30.7129854  13.5311126
  23.4473077  30.7561439  15.0408935  80.3548371  68.8034944   1.2494087
  79.4696175  68.8600425   0.8896636  80.9022366  69.2617134   0.6117439
   8.3552556  64.0711145  41.0940933   8.1603103  64.7359256  40.4335975
   7.6085620  64.1015462  41.6922187   1.6010062   4.3794960  36.0733318
   0.7858721   4.7669214  35.7544517   2.1985713   4.4309944  35.3273486
   2.3554460  11.6326755  32.3542404   1.6899721  12.0122093  31.7803668
   3.0936066  11.4458507  31.7742061   8.1334930  64.4033698   6.2545013
   7.5299173  63.6793379   6.0880470   7.9876142  64.6305017   7.1728467
   9.7546010  38.2513371  56.7105197   9.4790845  37.3525710  56.8909168
  10.6406837  38.1642551  56.3590812   8.2406592  53.3191633  60.7879972
   7.8235531  54.1805840  60.8022833   8.8097638  53.3413458  60.0186729
  52.6852714  48.1968538  14.8675823  52.7219283  47.3352502  14.4522189
  52.5939356  48.0087505  15.8016681   4.0976052  46.8877492  18.4628105
   4.2976384  46.3281796  19.2132091   4.1878657  46.3117150  17.7036857
  34.7412968  43.2443190  66.1958742  35.5410814  43.5607672  66.6159248
  34.7867370  43.5888624  65.3039932  82.0584141  80.3042940  30.4950904
  81.1948000  79.9583916  30.7203769  82.6622378  79.8338107  31.0697841
   4.2145877  67.4058060  39.7593211   3.7024741  66.8947725  40.3860664
   3.6024814  67.5959233  39.0483951  61.0907303  61.8881468  -0.1198769
  61.8693553  61.6334299   0.3751897  60.3646671  61.7517428   0.4887771
  59.3548250  73.2921171  54.3339252  59.4324160  73.4120607  55.2804089
  58.5096169  72.8586102  54.2159271  33.6556427  47.3430866  20.0004577
  34.1907398  48.1194156  19.8354911  32.9573146  47.3903507  19.3475055
  75.4710995  75.1557283  20.5185413  74.6232640  74.9667815  20.1164150
  75.2648674  75.3474716  21.4333820  43.3825325  23.6514644  19.5381259
  44.0561460  24.3315164  19.5404147  43.8611983  22.8396444  19.7056388
  83.5005080  57.9261820  41.4948272  82.6117026  57.7299229  41.7910289
  83.6546837  58.8267605  41.7801666  -0.1109071  73.2544021   3.9657115
   0.0292258  73.3417873   4.9085569   0.6776767  73.6264972   3.5708570
  65.8723866  78.1903032  25.0905036  65.9432255  77.8017596  24.2185878
  66.7748557  78.2365088  25.4061698  77.5003849  55.0032059  27.0522689
  77.8462016  54.1117493  27.0964050  77.4782835  55.2969054  27.9630279
  62.2227870  74.0548066  15.6407165  62.0499455  74.8091749  16.2040042
  61.9181095  73.3023695  16.1479091  59.3519489   1.1077207   3.5813808
  58.8533584   0.8622974   2.8020143  58.9636508   0.5903095   4.2868852
  53.2082891  70.7200718  68.2119513  53.2422543  69.8266840  67.8700018
  52.4153662  70.7414770  68.7477160  84.6760069  71.2199620  38.9166545
  85.4181849  71.0303334  38.3426856  84.3685280  72.0812182  38.6339473
  73.7584769  53.6369089   6.7961835  73.3137070  53.7964467   7.6286268
  74.5705735  53.1926433   7.0398235  31.2071077   1.9171757  22.0288181
  30.3007785   2.1897549  21.8856525  31.2238733   0.9958214  21.7698764
  20.9803157  68.0442218  23.6943626  20.2686792  67.7460388  23.1278896
  21.0223775  68.9893440  23.5487460  21.5310722  57.5457470  15.4000758
  20.8791547  58.2233731  15.5791282  21.0908752  56.9420211  14.8017692
  12.4026227  27.1971154  51.7231512  12.5792646  26.5546083  52.4103260
  11.5007055  27.0201039  51.4558601  80.6046139  53.6634688  16.2697887
  79.8987996  53.3609442  15.6983470  81.3416802  53.0880396  16.0652351
  69.6255194  71.3453654  30.8316707  70.0940453  71.3046769  29.9979686
  69.4026934  70.4349450  31.0258674   0.6629138  38.8470138  69.1657161
   0.3020864  39.6288038  68.7475776   1.4474063  38.6434471  68.6564445
  52.6488744  74.1779188  39.9685478  52.7445351  73.2260350  39.9369811
  53.4207355  74.4804720  40.4470062   6.1009900  23.8600820  38.0224037
   6.5875069  23.0597967  38.2201003   6.6418592  24.3160862  37.3776244
  78.3403479  72.5382404  43.5144615  78.3298861  72.0231370  44.3211746
  77.4286448  72.5452952  43.2229518  65.9180128  46.5821842  39.9048423
  66.6241251  47.0229350  39.4322204  66.2407242  45.6914286  40.0413799
  64.3104241  11.7153066  23.4837341  63.6689220  11.0507959  23.7349986
  65.1587639  11.3018888  23.6438464  37.0689384  21.9706482   7.1992397
  37.9383651  21.5816015   7.2939777  36.9312421  22.4510187   8.0156373
  32.0617429   7.8976387  46.3259124  32.7196304   8.1606859  46.9695091
  32.4352113   8.1546682  45.4828834  21.6157632  65.7242254  21.1343765
  21.4481645  64.9174551  21.6214752  21.6014867  65.4565624  20.2154731
  11.2866155   0.6930012  23.1285095  11.5719954   1.5983957  23.2511710
  10.5748693   0.5788034  23.7582778  39.0765325   0.4386038  48.0112171
  39.3332807  -0.3150088  47.4798202  39.9048273   0.8429521  48.2694053
   6.0981814   3.5284036  33.8483428   6.2790195   3.0315155  33.0504512
   6.9028203   3.4578651  34.3619727  82.3866211  74.8427681  36.3287162
  83.0735384  75.4806427  36.1350822  82.2960221  74.3359641  35.5217647
  37.6391641  44.5519871   5.1732921  36.7872421  44.1787475   4.9471187
  37.5222723  45.4962772   5.0689554  35.5276923  65.5080132  38.9571189
  36.4599471  65.7029490  38.8615512  35.0891833  66.3386492  38.7727737
   8.9493613  63.3174996   3.3666324   8.3866458  62.6034145   3.0671977
   8.4736257  63.7054924   4.1010475   9.0440456   3.8895458  22.4359989
   8.4051148   4.5582718  22.6825904   9.5329610   3.7171310  23.2406520
  15.9751359   0.7736296  35.7277297  16.8806259   0.4633039  35.7318973
  15.5545990   0.2949327  36.4420318  66.8747608  10.7543701  24.1876220
  67.0381919  10.8531135  25.1255893  67.3743907  11.4626974  23.7815761
   3.4928504   7.1310324  32.9784870   3.3236734   7.7156299  33.7173080
   3.0759589   7.5615257  32.2320937  81.7862509   4.7099823   3.2434081
  82.1317027   5.5791086   3.4471654  82.3068140   4.1132301   3.7811183
  24.1520969   4.6350044  54.8519420  23.2570974   4.4594377  54.5614528
  24.7046606   4.2242616  54.1869640  19.0578643  31.6630071  28.4517860
  19.7321598  31.3518709  29.0557288  18.4942094  30.9025186  28.3097076
  69.3058300  12.2507989  64.7324419  70.0491714  11.9083381  64.2360544
  68.7422276  11.4903545  64.8749399  76.3169371  77.4336461  41.0583114
  76.3874136  77.2192315  40.1280975  77.0722233  77.0049624  41.4608001
  71.3951622  78.4904603  10.0346755  71.6088091  79.2177729   9.4502067
  71.9456278  78.6324100  10.8047866  77.2306382  73.3017830  23.5069179
  76.7364060  72.4830894  23.5482692  76.7210232  73.9161424  24.0352058
  82.9651062  17.6792902  66.3946437  83.0608741  16.9114441  65.8311939
  82.0418159  17.6773971  66.6471671  43.8153887   6.4647788  55.6214094
  43.2136059   5.7209480  55.5930567  44.3053722   6.3455731  56.4350033
  37.4792186  15.0286669  45.2214622  36.5435401  15.2296203  45.2028274
  37.8998462  15.8138269  44.8709964  61.9635021  63.3023791  25.7879733
  62.2035419  63.6304335  24.9213695  61.4532076  64.0112642  26.1795234
  62.8173386  75.6159023   3.2035636  62.1848523  76.1399559   3.6950492
  62.2831808  74.9795250   2.7282428  79.2303181  51.2969351  68.9369631
  78.5107517  51.8796062  68.6941624  79.4406271  50.8269453  68.1300449
  55.8398620  62.6839393   5.6360196  55.9774772  61.8447727   5.1965904
  54.8896305  62.7991337   5.6401777  80.5347763  51.8549899  59.5061397
  80.2769076  51.1025504  58.9736270  81.0392796  51.4770106  60.2264499
  60.6074215  11.5413231  22.6459312  60.8981959  10.6921381  22.3134136
  61.3422696  12.1301693  22.4742030  41.5336601  15.6583828  18.9184951
  42.0167247  16.1672205  19.5696258  41.6599552  14.7475904  19.1844558
  33.3902494   1.3625282  18.4250640  33.9450494   2.1404165  18.4826850
  32.5732938   1.6187710  18.8530254   3.9073711  60.7362370  40.9244346
   4.6413427  60.8647064  40.3235816   4.2354875  60.1142518  41.5738201
  40.3347349   7.6098531  67.2542906  39.5796084   8.1539583  67.0307589
  40.8676529   8.1628245  67.8256512  10.6585828  16.4994806   4.5468616
   9.8443500  16.5053266   5.0500726  10.9124795  15.5771965   4.5128059
  84.0099997  71.7462806  53.2362366  83.5924501  72.2670619  53.9222908
  84.8834677  72.1269492  53.1447124  39.5838547   6.9877028  47.7297831
  39.4311833   6.1677110  47.2601700  40.5304098   7.1204752  47.6784134
  74.7286211  32.0454733   5.4819583  73.8322388  32.1826522   5.7884073
  75.1687180  31.6139547   6.2143087  62.0523249  42.8551794  14.4857787
  62.5409423  42.1156154  14.8470687  62.1124731  42.7415438  13.5372543
  37.7715492  27.1397495  67.4872637  37.1510482  26.7998648  66.8425274
  37.9647875  26.3910985  68.0515432  48.7186670  11.2107515  67.8025150
  48.1059837  10.9168005  68.4766388  49.1587543  11.9663596  68.1918859
  63.3241606  40.0504780  68.0813837  64.0789652  39.4621015  68.0992508
  63.4362316  40.6072950  68.8518524  71.8185992  69.4910310  62.4908924
  72.7178712  69.3017564  62.2230959  71.3735552  68.6445318  62.4508142
  82.3198647  72.7462111  41.2831163  82.4885030  73.2572625  40.4915237
  81.4176912  72.4420331  41.1841631  31.9546700  14.3585360  64.5702553
  32.3839021  14.4962716  65.4146576  31.2911606  15.0468862  64.5237446
  73.0725200  63.5279785  55.0605059  73.0684407  62.5741063  55.1401424
  73.8199825  63.8091848  55.5881929  32.7360678  37.8598356  65.8331537
  33.3521748  38.5916471  65.8662271  32.3297071  37.8495073  66.6997528
  78.1446682  40.6427360  13.9256763  77.6449763  39.9317651  13.5243511
  77.4818407  41.2773793  14.1979217  72.3007952  19.9619655  14.2110252
  72.8156697  20.7315342  13.9683341  71.5909993  19.9365715  13.5693168
  76.3172614  56.6561953  32.7375411  75.7560717  57.3492829  33.0852794
  76.4670454  56.9043914  31.8252944  63.9679753  23.2179383   4.2833995
  64.7287952  23.7751095   4.4475507  64.3398939  22.3764900   4.0190601
  29.8143781  67.1565888  25.8514619  29.6004070  66.2237130  25.8377099
  30.3807701  67.2836552  25.0903535  68.0665636  30.8508229  56.8240166
  67.1779966  31.1124325  57.0653582  68.5714579  30.9441113  57.6318550
  26.2584615  17.6759315  62.9512835  26.2510896  18.5065413  63.4269571
  25.8634734  17.8816378  62.1039963  30.7846178  72.4786452  68.2978058
  30.1518024  72.0067779  67.7564049  31.0074867  73.2549844  67.7841330
  39.1416669  22.8220105  54.3808842  39.5838881  23.6709261  54.3848085
  38.6912870  22.7826619  55.2245903  55.6174647  70.8390264  40.2357959
  55.8336769  70.7790498  39.3052673  56.4622675  70.9532551  40.6711101
  80.1604449  73.5692076   0.5855131  80.3276430  74.4640474   0.8813810
  80.8012949  73.0372719   1.0573005  18.6915069  51.2276391  17.9799747
  17.8071456  51.4993505  17.7343940  19.2476707  51.9638793  17.7252960
  10.1516538  23.5645560   0.6750535  11.0016255  23.1426601   0.5494165
  10.2389531  24.0373615   1.5027379  84.2353379  58.8863270  44.9285411
  84.0474974  57.9523079  45.0210285  84.9804341  59.0394704  45.5095767
  44.8549234  42.3071293   6.2112760  44.6856581  42.9135663   6.9322585
  44.3836271  42.6820652   5.4672813  19.3614936   1.8856317  48.1471062
  18.5085094   2.0115903  48.5627794  19.8051023   1.2429365  48.7006283
  42.1671247  31.7044926  60.8377361  42.1017122  31.7623663  59.8845291
  41.7082500  32.4815321  61.1569166  41.6709129  13.0298084  19.5115852
  41.7226402  12.7223867  18.6065769  42.5233261  12.8108734  19.8880004
   2.7694977  59.2536102  68.6832237   2.4602283  59.0034161  69.5538521
   3.3042492  58.5130868  68.3970451  76.8891926  74.5790134  62.6571465
  77.8299041  74.5847324  62.4803448  76.7072458  73.6883740  62.9569626
   8.2277621  74.7673176  69.1198540   8.7277282  74.3516389  69.8223352
   7.3510445  74.3904446  69.1944599  63.9426695  75.4586748  25.9032535
  63.2456457  75.9654597  25.4866504  64.4576799  76.1081604  26.3819694
  68.7203932  35.0693035  60.6497002  69.3878603  35.7455444  60.7655382
  68.6900997  34.6158719  61.4921474  83.2653700  45.5983077  18.5724830
  82.6392733  46.2826268  18.3359718  83.9620053  46.0614453  19.0377044
  39.8789935  47.3135004   6.6148471  39.0307670  47.5826142   6.2622690
  40.5187659  47.6726679   6.0000848  33.7206226  58.8367621  35.3481006
  33.2390647  59.4664673  35.8845805  33.5006576  59.0723340  34.4467925
  19.4073920  54.9491994  34.7687816  19.8844485  55.0602762  35.5911636
  19.9606280  55.3719989  34.1119766  69.7730576  59.4068031  26.6298675
  69.9067913  60.3044109  26.9342517  70.4637801  59.2682306  25.9818458
  46.7866005  76.0593216  66.9471121  46.2017215  75.4112701  67.3397684
  47.4130167  76.2676991  67.6402283  57.8182184  76.5198735  13.0952739
  57.7113806  75.8675842  12.4029350  56.9645273  76.9488172  13.1540202
  18.0213157   3.6617369  17.3573875  18.7402050   4.1397184  16.9439029
  18.2627098   3.6194748  18.2826900  25.4399864   8.1670755   1.7749929
  25.8046857   9.0164608   1.5264510  26.0123674   7.5274366   1.3513564
  57.9947329  18.6407065  50.0934076  58.3868122  19.5036626  49.9599409
  57.2872210  18.5970092  49.4501734  12.8462129  41.0211978  24.9874687
  13.5868220  40.4158852  24.9510383  13.2122951  41.8257413  25.3547954
  10.3233485  47.5384347  14.9616527  10.0837331  47.6246689  14.0389537
   9.4984870  47.6485888  15.4346275  73.9828578   1.5645593   8.5942077
  74.2563812   2.4755472   8.4869241  74.0891353   1.1785930   7.7247476
  16.5998845  63.7704853   4.3139886  16.6294198  64.7261552   4.2686366
  17.5176244  63.5006146   4.2799949  62.3167716  46.9882999  52.1805953
  62.8149401  47.8015194  52.0985412  62.9700743  46.2960068  52.0798206
  43.0385065  37.0719266  69.1617250  42.5471973  37.1977186  69.9735260
  42.4193192  36.6430593  68.5710382  66.9629184   0.9957308  18.0930995
  66.0715572   1.0046190  18.4418487  67.5095741   0.7492775  18.8391971
   3.3603578  74.5001105  10.6455039   2.9905849  73.8369993  10.0625944
   3.6962180  74.0029387  11.3913345  60.6706630  58.7435035  16.0023116
  60.5513822  59.6807472  16.1558627  60.0631820  58.5379998  15.2917003
  71.7234373  34.9775457  68.0860615  71.9266510  34.2260861  67.5290632
  72.2125864  34.8168015  68.8929844  68.9240313  22.5980973  63.2149172
  69.0966320  22.9343104  64.0943527  68.8166761  23.3816695  62.6757288
  46.0842336  80.2954049  56.2694883  45.6467498  79.4517052  56.3835478
  45.4663576  80.8184801  55.7587528  19.6571212  71.6480951   0.8457898
  19.9800925  70.7919721   0.5647706  20.1526408  71.8416146   1.6415548
  80.4366623  55.9163229  20.6145858  80.2239119  55.3788380  21.3775253
  80.1290261  55.4036168  19.8671054  65.2222763  55.2300028  40.3552627
  64.8229061  55.5713646  39.5551299  64.4889723  54.8702089  40.8543109
  17.6724868  60.1384870  25.4116153  17.1348148  59.3991355  25.1278972
  18.2304053  60.3319339  24.6582698  43.7828373  66.8582634  45.3951072
  43.6707817  65.9433870  45.1368808  43.0395531  67.3120336  44.9977969
  77.5044844   8.3480495  64.2855930  78.0925367   7.8157133  64.8213577
  77.4972079   9.2032856  64.7154235  22.1145825  66.8585591  38.4756660
  21.7626386  67.7370719  38.3321857  21.3409381  66.3050751  38.5822582
  23.5037652   5.6507343  37.0844077  23.2953779   4.7330850  37.2596931
  24.4124738   5.6368154  36.7839336  11.7803912  70.7964687  19.8790931
  11.2066655  70.0329856  19.9436092  11.8246083  71.1389593  20.7718276
   5.6558232  71.8011550  28.1688117   5.3642039  72.0496229  27.2916316
   6.3757663  71.1888007  28.0173778  78.6115300  79.2916016   0.0675725
  78.7047373  78.6739330   0.7928514  79.0230881  80.0959543   0.3835916
  39.0582895  22.7730560  41.7365980  39.0441394  23.2623005  40.9139967
  38.8237262  23.4186125  42.4032831  58.7465715  21.0262275  53.9116573
  58.8918257  21.5616632  54.6916866  58.8598013  21.6330624  53.1801081
  61.6602135  13.5334241  62.4160337  60.9461737  13.7931049  62.9982281
  61.4426279  12.6387382  62.1544504  29.1761737  75.1357869  48.9889144
  28.3948283  75.6107334  48.7058162  28.9484935  74.7938661  49.8534870
  23.3704047  45.6035147  30.3445052  24.0926318  45.9955815  30.8353137
  22.6019960  46.1135767  30.6006717  46.1586277   5.6286615  28.1892680
  46.9371931   5.8611053  27.6832675  46.4007513   4.8221582  28.6444187
   2.9787355  70.8212141  16.4053058   3.6084180  71.1100749  17.0658302
   2.7657561  71.6147546  15.9142207  43.0899858  41.5702105  59.7080517
  43.9453840  41.6340160  60.1328516  43.2360888  41.9061136  58.8237143
  56.9718552  27.9765177  62.4466705  56.8066359  28.6268163  61.7639971
  56.1920309  27.4214578  62.4424934  18.4367288  68.5949216  49.9279642
  18.4741987  68.0009363  50.6776381  17.6315702  69.0956602  50.0591421
  75.6309891  38.0115008  62.3946857  76.3400030  37.7795196  61.7949200
  75.4198551  37.1930552  62.8439093  85.4482076  10.4463285  20.6122112
  84.6096204  10.0585455  20.3619575  85.5677006  10.1891321  21.5264415
  10.4524127   2.4114841   3.1595229  10.4321281   2.8468508   2.3073053
   9.7619740   1.7505735   3.1073427  44.9202548  58.1440155  12.2469901
  45.4914950  57.8100888  11.5553188  44.3988656  57.3867838  12.5134277
  24.8266006  18.7604833  51.5521097  24.0741205  18.4839320  51.0291147
  25.2406764  17.9425108  51.8272352  74.9816691  27.7036242  34.5011329
  74.5765005  27.6685158  33.6346244  74.5441185  28.4326641  34.9407672
  67.9462754  74.5379690  10.7940387  68.4528433  75.2963237  10.5033111
  67.7603232  74.7134856  11.7164516  81.3480555  41.1218938  31.4572048
  81.6208445  40.6397129  30.6766128  81.8694292  40.7449553  32.1659469
  26.9206576  24.8104421  55.8001232  27.3936229  24.3570511  55.1022815
  27.6012473  25.2718858  56.2901210  25.6967025  59.9556712  10.7011508
  26.3069205  60.5577807  10.2753209  24.8593192  60.4193453  10.6951904
  84.2939745  55.5769424   2.7742671  83.6837517  54.8546437   2.6254606
  84.3353926  56.0325770   1.9334888  68.1703377  23.0296373  68.8089514
  68.7572813  22.8097868  69.5324135  67.3645401  23.3222675  69.2347288
  48.1286907  30.1849246  58.1828833  47.6047421  29.6829081  58.8071394
  47.6433420  30.1249456  57.3600388  25.9227901  30.4401759  25.3566837
  25.5443053  31.1686329  25.8489608  26.2808375  29.8583869  26.0271835
   1.2209897  57.4892155  19.0658569   0.8166843  57.1071700  18.2868766
   2.1598964  57.3516337  18.9403343  74.4365775  41.4618337  31.5546035
  74.7716462  41.6768802  30.6841373  74.7849690  40.5890315  31.7364597
  38.6548988  15.5548614  15.6259536  38.9823095  16.3878006  15.2864742
  39.4280616  15.1244587  15.9909343  20.9300428  78.4367494  36.6004752
  20.7185607  77.9484514  35.8048152  20.7225471  79.3461613  36.3856601
  47.6801435   9.6825594  11.7072677  46.8676607   9.8893064  11.2453651
  48.3551399   9.7113985  11.0292053  44.5312405  44.9356079  57.9593611
  45.2664375  44.3258762  58.0221653  44.1905308  44.8095703  57.0737743
  80.9755551  73.7450818  53.8411712  81.5880810  73.4734730  54.5247459
  80.5969941  74.5607905  54.1691112   1.2536960  18.4085612   4.0341758
   2.1510606  18.1286768   3.8535213   1.3508659  19.1708616   4.6048688
  68.2100964  23.0210400  52.1293688  68.1117439  22.3101878  52.7628088
  67.8124619  23.7795472  52.5569010  60.9017097  59.5970623  19.1329288
  60.3448211  58.8314168  19.2739772  60.5696522  59.9892430  18.3253574
  44.1408245   9.6685070  21.2850284  44.4678775   8.7706131  21.2297630
  43.2020513   9.5720428  21.4451217   9.2693620  63.9549355   0.5860566
   8.8987165  63.3659915   1.2433242   8.5302978  64.1775994   0.0199890
  64.1170597   9.5390218  63.1169081  65.0590897   9.3723923  63.1493187
  63.9684343  10.2051854  63.7880039  48.7387657  50.8967781  52.8977346
  49.4367170  50.2419710  52.8797436  49.0285969  51.5380049  53.5466194
  56.6686010  12.0996475  66.6920280  56.5782881  12.6921976  65.9457302
  55.7859421  12.0381653  67.0572233  28.0684524  63.8663391   2.2406482
  28.7830501  63.2482580   2.0871591  27.4625163  63.3947615   2.8122091
  17.1291976  74.2410354  12.7274799  16.6680865  74.5494775  11.9474315
  16.9260030  74.8922090  13.3989810  81.5826117  67.8835611  24.0387630
  82.4131523  67.6453118  23.6268520  81.8288361  68.4760002  24.7491359
  84.8157059  69.0291576  19.3131828  84.5032631  69.3537335  20.1577377
  85.2646338  69.7776369  18.9201545   1.3401609  68.9592437  58.4565734
   0.7750087  68.6443643  57.7511024   0.8149772  69.6206645  58.9070510
   4.6146588  44.8534171   8.1522464   4.7558551  44.1262988   7.5459527
   3.7611776  45.2092395   7.9048919  77.8262997   9.4315630  58.0671024
  77.0293665   9.3914509  57.5384045  77.9910803   8.5235471  58.3212376
  78.1619536  46.6745297  13.1686496  78.3653771  46.7189912  12.2343730
  77.3254668  46.2110380  13.2098483  44.2908382  52.1685648  59.1793346
  44.0459251  53.0336189  58.8508129  44.0756559  51.5707350  58.4634256
  18.3319084  17.5949043   9.9939250  18.5503427  17.0629114   9.2287444
  18.8814727  18.3739799   9.9087762  60.1663113  59.0000868  57.6161814
  60.7743263  58.7055397  56.9380951  59.6498489  58.2227421  57.8288507
  60.7127439  72.1792225  29.0364169  59.8374354  72.5177793  28.8481330
  61.0661994  71.9394879  28.1797790  69.8317229  26.3107053   2.2744130
  69.1270625  25.7944290   2.6657485  69.6216093  27.2158186   2.5043105
  26.6892676  43.0474399  10.9060191  26.3566070  43.3581475  11.7480563
  25.9909301  43.2494564  10.2833223  56.7048073   8.5650533  68.2588387
  57.4759531   9.1143036  68.3998823  56.9010019   7.7524525  68.7251234
  71.0008036  50.9229461  13.3926010  70.4993569  51.4724259  12.7902221
  70.4590451  50.8747951  14.1802596  75.4062851  65.7007915  68.3213679
  74.5413598  65.9084564  67.9677994  75.3684052  64.7635227  68.5119562
  60.4893827  29.7825336  58.8041162  61.1930609  30.2296376  59.2744017
  60.6460810  28.8523197  58.9665222  78.0481421  40.3227140   1.7783641
  78.8505923  40.8443319   1.7932414  77.3719489  40.9140080   2.1090698
  11.4818435  67.0198993  25.5321407  11.5581136  66.3187126  24.8850250
  12.0982938  67.6888398  25.2342414   9.4459252  56.3411454   8.8612413
   9.7249179  57.0998661   9.3738221   8.5043483  56.4656214   8.7422180
  63.1859695  28.4734086   6.2738752  62.8232728  29.3127410   6.5570783
  62.9307352  28.4002701   5.3542327  21.3737405  65.6986699  54.6143961
  20.4950441  65.7307015  54.9926805  21.3429321  64.9663315  53.9987993
  81.6237294  61.9551806  13.5780620  80.9088599  62.1183781  12.9627799
  81.7596995  62.7955941  14.0156078  47.6417594  52.7892844  10.7530498
  48.3208041  52.1299307  10.8958244  48.0830245  53.4863095  10.2675866
  41.0734134  50.5547003   2.2278261  41.7015796  50.3077189   2.9065370
  40.2482658  50.1601891   2.5101709  75.2573382  69.0477351   5.7825517
  74.9944722  68.5322360   6.5450429  74.5279395  68.9573650   5.1693296
  34.8857013   4.9181026   4.6761226  35.0364295   4.7453064   3.7467908
  34.9431840   4.0579218   5.0920724  12.8271155  51.3708715  12.8977298
  12.3853784  50.9468548  13.6334609  12.2720676  51.1784820  12.1419906
  51.5419995  68.5953287  54.2953204  50.9721791  69.3528537  54.1623020
  51.1763488  67.9177717  53.7265968  59.7755003  15.4246473  66.9067478
  60.0921059  14.8957419  67.6390409  60.2844763  16.2336922  66.9579649
  25.1245170  72.1309594   1.3162994  25.8480506  71.5313176   1.4983939
  25.5432181  72.9027609   0.9351873  30.6373572   1.5060036  57.6601219
  30.9903908   2.3364434  57.9794455  30.3161407   1.7046905  56.7805910
  79.3567941   8.7307257  22.5678253  79.1411255   9.4797891  23.1233692
  80.2379964   8.4757036  22.8411006  60.7640540  50.6668584  18.2000636
  60.7763993  51.5951304  18.4332752  59.9459874  50.5522613  17.7164649
  40.9623562  61.9670848  32.1143340  40.9653615  61.9215850  31.1582183
  41.6224288  61.3295559  32.3865318  68.5040699  76.2948136  28.2094573
  68.2291924  76.2327413  27.2946834  67.7814256  76.7452339  28.6466598
  63.6761247  59.6116988  17.6815795  63.9436947  60.5241112  17.5713920
  62.7708470  59.5884613  17.3714732  69.1396379  18.7351143  57.6328421
  68.5822630  19.2596567  58.2076645  69.5583534  19.3744922  57.0565557
  64.5194398  44.9173100  18.3063030  64.5624052  44.0160529  17.9867458
  64.9572622  44.8908914  19.1570949  46.1527578  27.2280783  54.1730213
  46.7883245  27.2053522  54.8884010  45.5337469  27.9135937  54.4242763
  84.7186886  80.2322439  26.9048309  85.6277644  79.9736695  27.0563316
  84.2023837  79.4963864  27.2337245  81.1116921  63.0728869  43.2251453
  81.9272457  63.5296754  43.4311675  81.3240134  62.5363926  42.4613857
  40.6410371  66.9875912  37.2011566  41.2193166  66.5343074  36.5876769
  41.1052667  67.7970819  37.4143504  20.7741981  41.1593793   8.0543947
  21.4438300  41.7189155   7.6610231  20.9163385  40.3002104   7.6570844
  64.3932056  35.0040197  67.3830652  63.4600687  34.9250865  67.1849394
  64.6767378  34.1074586  67.5619984  11.5471130  45.7866834   5.9256172
  11.0820251  46.3343279   6.5580797  11.4956384  44.9031738   6.2902974
  74.4509970  79.0795426   6.8424272  74.3364703  78.6899738   5.9756231
  75.3981339  79.0816645   6.9808244  19.0924697  23.1193535   8.4633827
  18.3040338  22.6364104   8.2156562  19.4180827  22.6641599   9.2399167
   5.2112966  75.3636984  24.1914844   5.4341893  76.0525040  24.8176574
   5.2340942  75.7984428  23.3390140  76.6849362  46.2083970   9.1505193
  76.6335856  46.6597209   8.3079624  75.8511244  46.4037631   9.5780897
  69.4370317  53.0876064  52.8695536  68.6383867  53.0512619  53.3959389
  69.1914272  52.6904869  52.0339632  70.8102798  17.1099603  55.6675720
  71.5666437  17.2401226  55.0955582  70.7381725  17.9280949  56.1591911
   3.7123603  31.6691613  67.7177048   3.9735526  30.7496524  67.6675558
   3.5880107  31.8321753  68.6526871  30.4821639  73.3820752  28.1083869
  31.1607700  72.7792935  27.8044414  30.9224753  73.9308957  28.7573432
  64.2388832  72.8149752   6.9935655  64.1214382  73.7123517   7.3052596
  64.5975481  72.9128102   6.1115121  65.0774371  66.9453553   6.8882465
  65.0756489  67.8921322   7.0291137  64.1680681  66.7327193   6.6783285
  76.0575676  23.9084792  59.9101448  75.3306866  24.0163803  60.5235243
  76.8153095  24.2685938  60.3709888   8.3367602  20.4358095  22.6318454
   8.5637943  20.4680342  23.5611724   8.3569805  19.5042986  22.4125099
  22.6741687   7.2618622   5.9400510  21.9790784   7.0102495   5.3319597
  23.4835569   7.1305698   5.4462051  12.7052490  29.7835153  44.3575095
  12.6729766  28.8539833  44.5836925  11.8494598  29.9653810  43.9692020
   5.6647102  16.9427723  28.4611129   6.0503737  16.0916132  28.6685466
   5.5193869  16.9158024  27.5153922  22.4466233  58.7903504  36.0930919
  22.8725629  57.9979936  35.7660102  22.8633123  58.9544801  36.9390582
  74.0679728  71.8871097  21.6432094  74.0161358  72.2658257  20.7656383
  74.1973578  70.9507112  21.4927005   3.5163275  18.0321163   6.5666389
   3.1660048  17.1654695   6.7726135   2.7604739  18.6163753   6.6263103
  60.7984447  17.2163224  68.8350105  60.6883240  17.9550767  68.2363892
  60.3657866  17.4953723  69.6419573  81.6998373  76.6336421   8.5370397
  81.9233929  76.9721965   7.6700734  81.1514698  75.8689837   8.3614730
   4.0048236  38.2029605  49.4688368   3.9402217  37.3201656  49.8331642
   3.1427592  38.5893703  49.6229982  36.0220771  49.0438012  38.0190181
  35.5298286  48.2750330  37.7310562  36.7848258  48.6840282  38.4717941
  52.8210926  52.0513868  66.6584253  52.9293251  51.3963270  65.9689236
  52.1060801  51.7147636  67.1984911  77.7654158  66.2996773  14.1069984
  76.8697153  65.9628348  14.0847682  77.9269110  66.6096763  13.2159042
  30.1219421  67.0413903  28.5252666  29.2233043  67.0218734  28.8543510
  30.0289111  67.0147661  27.5729751  39.4272857  75.0393752  11.5166282
  38.7061553  75.6007485  11.2318897  39.9638229  75.6029491  12.0740699
  64.9908535   5.0417608   1.6667270  65.2118770   5.4384512   0.8241033
  65.0284950   5.7671160   2.2901630  26.5482704  40.2790970   4.7848510
  26.9612209  40.1260132   3.9349841  27.2768537  40.4788059   5.3726529
  14.6117038  20.7932997  64.3219757  14.6069354  19.8796141  64.6072578
  14.3276232  20.7604814  63.4084940  45.5885463  69.9706439  64.1742706
  45.2438312  69.2417959  63.6583423  45.1237254  69.9140743  65.0091171
  74.4494295  51.6002178  63.5314989  75.3333902  51.9624329  63.4711695
  74.4747972  51.0338116  64.3027163  21.4090400  78.3530454  43.1176853
  21.3078694  79.0173153  42.4359607  22.0233302  77.7200154  42.7459907
  34.5988941  58.1172752  68.3162832  34.6789479  59.0413141  68.0796909
  33.8983250  58.0967808  68.9682150  44.7873346   7.6009888  24.9630355
  45.1927034   7.1151251  24.2448139  45.5041114   8.1088251  25.3432559
  52.7695838   7.1065420  17.0599555  52.4209968   6.7637914  17.8829002
  52.5443355   6.4417976  16.4090919  10.6003909  63.8068775  12.0164966
   9.7061639  63.4662179  11.9933414  11.1230950  63.1378321  11.5744590
  10.2784686  69.0046624  14.3126487  11.1774354  68.6963228  14.1985320
   9.9708657  68.5592250  15.1020717   2.8184896  60.7403640  23.7222766
   2.4923282  59.8913185  24.0205478   3.1462293  61.1633138  24.5159530
  80.4402386  73.5440234   3.6094045  79.5051323  73.4028272   3.4615087
  80.8684050  73.0966357   2.8795099  41.5718166   9.2136902  21.6371536
  41.3661901   8.9280075  20.7470226  40.7187978   9.3791622  22.0386600
  52.1023893  66.6412210  46.7510891  52.7420998  67.2945929  47.0341253
  51.2703657  66.9493532  47.1102953  76.3783919  65.8749108   4.8177909
  75.7050310  65.2005629   4.7279167  75.9207236  66.6199783   5.2072095
  54.8160648  53.4613466  68.0516434  55.0279713  53.5467529  67.1221113
  54.0369463  52.9055738  68.0696011  82.2112171  17.7893061  15.8307456
  83.1676189  17.7838272  15.8692741  82.0016281  18.4572595  15.1779460
  43.8144008   2.7761406  22.1758079  43.3159629   1.9895929  21.9541549
  43.3038703   3.1960481  22.8680991  24.5819044  22.3161817  67.0394468
  25.4847598  22.0038080  66.9801998  24.0553403  21.5926147  66.6997194
  12.6437144  51.4089255   3.0620384  12.0711761  51.3139931   2.3008441
  12.0510440  51.6243915   3.7821388  81.4106750  35.5462599  63.4484673
  80.7967472  34.9865317  63.9238977  81.8260860  34.9616981  62.8144693
  26.0984378  49.1454993  20.5839824  25.1820998  48.9775173  20.8038329
  26.0737281  49.4643168  19.6817779  69.5815516  30.1810145  65.7209682
  69.0278244  30.9213352  65.4728842  69.0900755  29.7348356  66.4106131
  61.4625732   2.1561378   8.0019140  61.6099636   1.2104076   8.0119705
  60.6464283   2.2765201   8.4873485  74.1210972  50.9314267  13.5433101
  74.1789233  51.8017570  13.9375305  73.1833016  50.7879595  13.4160613
  18.5763078  70.9537510  38.7390708  19.1993623  71.2458901  39.4044208
  17.9197078  71.6493634  38.7039375  83.8391959  75.5336575  17.9294776
  83.4602343  76.2660913  18.4154414  83.6339747  75.7220630  17.0137214
  83.9912115  76.1134986   4.8941135  83.6622368  75.2540831   5.1575803
  83.6507975  76.2390236   4.0083408  55.8086501  73.4174923  20.0234126
  55.9830009  74.3568734  20.0816917  54.9419009  73.3592467  19.6214389
  55.6596271   6.1509079  17.7003955  56.2508766   6.5177912  17.0430850
  54.8364536   6.6221613  17.5717639  66.1502361  59.7002268  63.5625696
  65.5004025  59.2748213  63.0031204  66.4315033  59.0138626  64.1675711
  20.1587491  75.9814910  22.1688938  20.4046540  75.6837801  21.2930297
  19.4925027  76.6515092  22.0158481  77.4473715  39.0512848  69.5969820
  76.8905401  38.2829928  69.4708872  77.9772091  39.0963078  68.8010693
  14.8507075  77.8500704  13.3881473  14.7019868  78.5693864  14.0019130
  15.3922610  78.2324557  12.6976966  82.5355339  48.9664078  53.8090801
  82.7938080  49.4784641  54.5754528  83.1878853  49.1854382  53.1437302
  53.3684150  11.8045276  16.5613269  53.9305107  12.2996658  15.9654044
  53.0783550  11.0513777  16.0466766  83.0932617  21.6216063  42.3060036
  84.0254307  21.7593837  42.1377087  83.0165100  21.6420770  43.2599020
  78.7744652  74.5733790  28.3702659  78.1117140  74.4318275  27.6942825
  79.3516289  75.2430538  28.0033206  60.4804230  31.7465615  66.5831375
  59.9591398  32.1173954  67.2951651  59.8336172  31.4141917  65.9607220
  58.8884640  42.5039959  65.8663750  59.5412731  42.0464420  66.3961983
  59.3142700  43.3243465  65.6174803  18.2387595  76.7963413  31.1468887
  18.8491826  76.4578919  31.8019294  18.7991004  77.1138267  30.4387569
  73.3608675  26.8493509  60.6527758  72.4509192  26.7310405  60.3803349
  73.3171225  27.4909186  61.3617945  76.7741476  46.0810737  29.7540187
  76.3239466  45.7200555  30.5177116  76.4666211  45.5482952  29.0206718
   9.7306887  14.1625208   5.6942605   9.5795146  14.1604751   4.7490739
   9.1632334  13.4681696   6.0290765  21.9114439   3.0730623  16.1645889
  21.6079561   2.3396629  16.6996192  21.9590799   3.8101238  16.7734432
  16.4868061   0.3451103   3.5754728  16.8451110   1.1485523   3.9527511
  17.1552412  -0.3184491   3.7460946   2.6378780  55.9082500  59.2390060
   2.3743062  56.1525063  58.3518123   2.9016404  54.9909691  59.1665172
  18.4822850  72.0904974  10.7857227  17.9080443  72.8504423  10.8804035
  19.2269330  72.4146227  10.2790880  29.9231283   5.6618732  13.1717967
  29.1960184   6.2161344  12.8883552  30.4814521   6.2441582  13.6870097
  19.2584983  15.7291788   8.1865787  19.9864713  15.5451721   7.5929212
  18.5288803  15.9527963   7.6087522  15.9647578  41.9498873  46.5704203
  16.0462970  42.6095724  45.8816528  15.2458304  42.2638512  47.1188736
  81.9317423  71.9171004  10.2841138  81.2523686  71.8454699   9.6136331
  81.6276537  71.3522200  10.9945201  18.0486732  36.4704714  38.9531040
  17.1845822  36.1137287  39.1588020  18.1940894  36.2328578  38.0373382
  50.7097284  12.7469248   2.8022718  50.8221380  13.5110992   3.3676290
  51.3666860  12.1225256   3.1101131  61.9147674   3.9246839  49.2489528
  62.3666278   4.7619146  49.3542671  61.3759510   3.8426775  50.0358295
  22.0255809  68.5142545  12.0110797  21.2545114  69.0593151  11.8542671
  21.7695050  67.6437239  11.7063999  27.0454078  79.7442273  51.9010066
  27.2660499  80.3873066  51.2272167  26.4957481  80.2248339  52.5199794
  61.8160306  76.9503502  24.0086173  61.9456016  77.2098068  23.0964088
  62.2352826  77.6446418  24.5169734  16.9380002  78.1005983   7.7258920
  15.9993415  78.2000546   7.5669669  17.3532109  78.6442212   7.0563363
  77.4813353  69.6599392  29.6776771  76.5868174  69.5893840  30.0109767
  77.5746666  68.9158611  29.0828037  43.4083991  65.9290318   3.0007362
  43.7358623  66.6793827   3.4966945  42.9734187  65.3813676   3.6542606
  75.8598328  17.9242432  59.6230936  75.6572914  18.6654305  59.0522575
  76.6279745  17.5166857  59.2229843  13.2087998  60.3655748  34.1653728
  12.6100831  61.0729126  33.9256954  12.9726987  59.6440617  33.5823535
  79.8283087  55.1164440   2.4454498  79.7091757  54.2028896   2.7051734
  80.0630986  55.5673591   3.2564878  49.2103863  38.3469701  67.3996019
  48.5506153  39.0403295  67.4132586  49.6862602  38.4529138  68.2233477
  83.2167339  44.9422264  60.1201582  84.0685844  44.6215582  60.4163885
  83.2140064  44.7786903  59.1770363  24.3630748  48.5458688   2.4818563
  25.0343089  48.1475375   1.9277763  24.4097190  49.4804368   2.2802638
  28.6778823   5.3428310   9.6466064  28.1129543   5.6455463  10.3575563
  29.1835872   6.1161608   9.3966960  83.0069767  77.8410772  19.2803764
  82.2689282  78.3261708  18.9113139  83.7470852  78.4445266  19.2146777
  59.5550299  36.9281507  68.4193850  59.3547869  37.6545167  67.8290176
  60.5109882  36.9138908  68.4659338  70.0370346  40.5394585  37.7091884
  70.1527916  41.4515675  37.4429416  70.2955662  40.5242868  38.6306953
  76.9332457  34.9330688  65.2616644  76.3545609  35.5843806  64.8652458
  76.3522530  34.3875694  65.7918692  62.8321921  39.6452260  20.5287170
  63.7490379  39.5124088  20.2879142  62.7097618  39.1076256  21.3111686
  27.6940775  11.4783239  49.4180822  27.8689885  11.1617661  50.3043270
  27.9217386  12.4076247  49.4463968  17.4942199  25.3788942  55.0381660
  17.3315755  24.5589632  55.5045223  18.4103052  25.3222555  54.7664737
  24.3528024  19.8944467  22.2161960  25.0266401  20.0773949  21.5614414
  24.5556537  20.4864210  22.9405212  20.2926927  42.0820099  35.8075904
  20.6268697  41.3124482  36.2683868  19.3638377  41.8950855  35.6715106
   6.7213445  74.7355727  29.5062637   6.3863378  73.9766530  29.9837970
   6.8814044  75.3930191  30.1832961  71.9557272  64.8193125   3.6491823
  72.4510847  64.7522692   2.8328752  71.0984360  64.4483093   3.4402751
  10.4199271  58.3023040  13.5375690  10.3857761  57.4217645  13.1637859
  11.3230090  58.3994130  13.8396358  39.8472095  43.5888529  64.9284172
  40.3002882  43.9864397  64.1848612  39.7353387  42.6717377  64.6781874
   7.3144631  49.4778256  19.6753406   7.4125438  50.3734760  19.9984836
   6.4710002  49.1886310  20.0234413   9.0492349  77.2538237  24.3424606
   9.4612985  77.6375226  23.5683727   9.0731816  76.3101963  24.1836356
  71.3159071  48.0254267  18.4990119  71.4857565  48.5841409  19.2574500
  70.6657397  47.3941998  18.8073444  21.0861926  60.1781933   4.6946620
  21.4187484  59.9114529   5.5516815  21.8453603  60.5551128   4.2498826
  69.1701984  31.8156767  68.7022972  69.0332842  30.8953118  68.4777594
  69.1725636  31.8309307  69.6593714  49.3093673  22.2451633  23.0724143
  48.6405317  22.8485626  23.3961391  49.9008409  22.7959722  22.5595760
   0.1237124  47.7493858  68.2664776  -0.3857023  46.9391584  68.2505703
   0.8871096  47.5631046  67.7198887  29.6358447  64.4385270  25.4201030
  30.4759364  63.9973287  25.2943420  28.9814906  63.7700276  25.2172088
  42.4001018   0.1252073  11.9942378  42.3592559   1.0342783  12.2911548
  43.3009712   0.0125402  11.6909789  33.0524055  23.5164493  25.9027290
  33.5172502  24.0493292  25.2575969  33.5241310  23.6665529  26.7219829
  18.5037809  77.3610524  35.4511070  18.1230502  76.4873032  35.3625869
  17.8900199  77.8339390  36.0131645   4.5730167  51.5955714  34.5015716
   5.2554517  51.9003431  33.9035510   5.0397782  51.3850705  35.3103160
  75.0189392  12.9817194   6.7277145  75.6503669  12.8115076   7.4266815
  75.2070896  13.8775581   6.4478921  72.2242785  40.7817364  69.1811943
  72.6720715  40.9377480  68.3497047  72.2629070  39.8326802  69.2996550
  50.3988743  69.0416002  64.5685101  50.6303930  68.4801483  63.8286400
  49.6164942  68.6355639  64.9416780   2.2801070  52.3298303  14.8589801
   1.7848067  52.5550393  14.0714549   2.1314244  53.0648808  15.4538154
  70.5867230  65.0749759  21.6092300  70.5367743  65.8451394  21.0430240
  71.5176903  64.9884252  21.8142795  46.2879943  46.5320454  46.7205524
  46.3639938  47.4117438  46.3509750  45.5409991  46.1443881  46.2645339
  24.1872840  60.0453214  43.6599731  24.0967231  60.0813345  44.6121978
  23.3679061  60.4117350  43.3274173  47.7737371  14.6071762  23.3544921
  47.4536554  13.9967960  24.0187358  47.8344194  14.0823406  22.5563049
  51.4427757  23.3934569  59.2201614  50.5817652  23.3855367  59.6382904
  51.7425299  22.4858785  59.2719221  80.8817863  14.3165183  42.4385691
  81.1274242  13.4316802  42.1684647  80.5817032  14.7381186  41.6333151
  28.9055721  13.0738968  21.8483066  28.4221498  12.3438591  22.2350597
  28.5508577  13.1537336  20.9628486  62.3852205   7.8368670  66.8136930
  62.9947042   8.4953946  67.1470165  61.6465807   8.3433467  66.4758825
  10.4143874  24.4881052   3.1445073  10.8566562  25.2981228   3.3984899
   9.7014991  24.3961138   3.7766122  79.0811539  42.1368265  67.2691345
  79.4994831  42.8677368  66.8141508  79.6565199  41.3901949  67.1026039
  45.6961433  12.4418253  14.4550037  46.6225950  12.6064676  14.2794608
  45.2437917  13.1996149  14.0843677  74.8418800  12.2793526   2.2283887
  74.0944664  12.6727527   2.6787710  75.5069725  12.1802849   2.9096174
  46.9112419  71.7709068   4.0078878  46.4784621  70.9892229   4.3512582
  46.1986839  72.3914079   3.8546800   2.7778071  41.8815517  38.3153176
   3.1274909  42.2310495  39.1349554   3.4179705  42.1400309  37.6522803
  31.6846995  71.5231494  35.9809398  31.4033179  71.6204909  36.8906593
  31.8809371  72.4150542  35.6941890  40.8811418   2.0000547  28.2836055
  40.6551115   2.9212135  28.1547260  40.6946174   1.5874189  27.4402904
  12.6995963  13.5146618  61.3977480  12.7591342  13.9932501  60.5709219
  11.8137854  13.6922359  61.7140293   3.9781111  39.1267562  67.9389572
   4.3538111  38.9347076  68.7981415   3.7271136  38.2712388  67.5906467
  19.6238427  64.1565422  16.0173892  19.1851382  64.2886142  15.1769542
  19.3958383  63.2614617  16.2685394  81.0364853  78.2643823   3.8454723
  81.8972336  78.4483484   3.4693097  81.0898577  77.3523287   4.1310262
  22.1289340  40.1003212  42.5657367  21.5702144  40.0490993  43.3412647
  22.3453228  41.0294479  42.4873828  82.6895211  40.9971947  10.1389121
  82.0595906  40.5334133  10.6905650  83.5326741  40.5953354  10.3482627
  18.8083762  45.4963923  62.2242260  18.0201071  45.0104237  61.9819546
  19.1389674  45.0447941  63.0007553  24.0912096  18.0202431   6.1955737
  23.2312147  18.4175438   6.0584878  24.3189088  18.2471651   7.0971774
  31.2281947  74.6577338  42.8961276  31.7891555  74.5110230  42.1345329
  31.6714530  75.3469257  43.3908653  76.3037777  51.9184160  68.8422871
  76.4403963  51.0905886  69.3030071  75.9746122  52.5151300  69.5144606
  11.4422946  10.7791414  67.5160694  10.8162885  10.0550928  67.5266504
  12.1404939  10.4835691  66.9317818   7.2751336  73.1747750  38.6118125
   7.3097568  74.0281324  39.0440368   6.3678079  73.0915145  38.3184528
  67.6902572  18.1631559  24.7265052  67.3002521  17.4427170  25.2215671
  67.2896568  18.9509100  25.0941848  47.3648505  75.4788355  31.5509891
  48.2439094  75.8347968  31.4214420  46.9097762  76.1457113  32.0652103
  29.2260353  13.7381882   7.8695726  29.4182388  12.9908651   8.4359693
  29.2538015  14.4953913   8.4544658   4.3896788  39.4663453  29.0060353
   3.7952059  38.7194419  29.0765405   4.6315974  39.6661139  29.9103594
  74.1252986  18.3436436  15.7201003  74.3135158  17.4790996  15.3548908
  73.4291259  18.6924261  15.1633834  10.6688136  36.5472484  42.8513813
  11.5570849  36.8979716  42.9161739  10.5137748  36.1297202  43.6986494
   3.0363135  79.7402434  20.8022594   2.7413325  78.8555936  21.0181617
   3.7056546  79.6121601  20.1300907  59.7467128   2.3643678  23.9355182
  60.6280033   2.4543709  23.5729408  59.2517940   3.0837959  23.5434532
  20.7607226  66.1858396  11.2725829  20.8991675  65.2920584  10.9591770
  19.8166375  66.2447313  11.4190864   1.8987387  33.6461353  55.8611107
   1.0123175  33.7060022  56.2173510   1.8247622  33.0231524  55.1381636
  47.9702417  17.3886961   4.0196561  48.9220230  17.3235220   4.0977668
  47.8262893  18.1774134   3.4967470  66.3267899  25.8218360  58.5796785
  65.3962421  25.6427312  58.4446669  66.3811207  26.7757201  58.6378765
  59.2203574  71.3515000   9.3192100  58.6710410  71.9984488   8.8765573
  59.9988799  71.2802509   8.7668847  15.8556800  70.1333574  13.9551067
  15.2910190  70.1625733  14.7274589  16.0481315  69.2035369  13.8341426
  33.1466714  62.9258865  17.6680755  33.8636343  62.6047272  17.1212196
  32.4849550  63.2246536  17.0443057  21.7444126  13.3599705  25.8209609
  21.1090700  13.9660925  26.2020015  21.4569417  13.2501978  24.9145698
  68.9791957   1.2330812  23.3846473  68.1756679   0.7321781  23.5249137
  69.0320865   1.8176645  24.1407585  75.5734722   1.6757673  23.9810371
  76.1303512   1.5611738  23.2109832  76.1743824   1.6096300  24.7231674
  24.3972831  66.1786870   6.3967943  23.9497714  66.4836148   7.1860837
  24.1523032  65.2562527   6.3237905  83.4951817  64.3774180  41.2130832
  83.6055027  65.2169065  41.6595363  82.7336775  64.5052342  40.6473922
  54.1898052   0.7026094  16.8521404  54.0401260   1.6479677  16.8633937
  54.6119968   0.5169672  17.6909065  58.7638330  46.1235380  57.6643038
  59.6126890  45.6839132  57.7133799  58.7743473  46.5708637  56.8181229
  56.0759632   0.5559629  19.1800403  56.5499774   0.6079763  18.3500766
  56.5405647  -0.1155192  19.6795368   6.4292150  58.6289648   1.7823505
   7.3334079  58.6623315   1.4700174   6.4961915  58.7753646   2.7259158
  72.5361339   5.1450485  50.3426837  72.5033657   5.9952062  50.7813072
  71.6250030   4.9560398  50.1182937  83.0510235  52.3987293  58.1987667
  82.1247578  52.1597242  58.1647825  83.4698105  51.8263578  57.5559282
  74.5429889   4.2842621   8.5404729  75.2225772   4.1436619   9.1997337
  74.0646259   5.0534624   8.8498782  12.7884978  24.0664482  65.0693941
  12.1882266  24.1530848  64.3288517  12.9636782  23.1271863  65.1270962
  44.5139647   6.5058744  69.6869326  44.8793983   6.8703198  68.8807869
  43.6066151   6.2964821  69.4653559  38.0388034  77.8375105  35.6037402
  37.7852977  78.7351290  35.8187914  38.6655105  77.9309830  34.8862910
  18.6166167   7.4415529  42.9723644  19.4348383   7.5889987  43.4467125
  18.8491070   7.5594968  42.0513487  78.5702835  75.8662681  32.8491973
  77.6333271  75.6731490  32.8168010  78.6175906  76.7731456  33.1517982
  42.5819111   5.1302481  59.1005850  41.6252613   5.1254296  59.1327763
  42.8131199   6.0522228  58.9877319  65.9613501  71.8703417  20.6452464
  66.2092196  72.7885107  20.7536697  65.1473128  71.7818646  21.1409664
  70.1956927  41.8132261  42.6815891  69.4147765  42.2709667  42.9928302
  70.8965718  42.1152560  43.2593154  20.0226320  73.1508301  52.2363138
  20.6248439  73.7717978  52.6461601  20.5624832  72.6743404  51.6056347
  77.4318777  79.3869118   7.1130609  77.6137816  80.0707082   6.4684200
  77.4978243  79.8310451   7.9584169  33.6209540  64.5283441  12.1912288
  34.3134742  64.1564612  11.6450214  34.0853744  64.9361209  12.9221629
  65.4168473   6.8889898  18.3961677  65.8366976   7.6905102  18.7084483
  64.6059851   7.1880192  17.9846858  42.7516998  63.4536109  17.2853541
  43.5889686  63.1564293  16.9291306  42.9772533  64.2078362  17.8298736
  18.6202661   4.9589437  27.6509952  17.9775611   5.4549068  28.1581210
  19.2997018   4.7290510  28.2848262  16.5703111  69.6156124  10.6774616
  17.4164252  70.0334768  10.8377838  15.9274964  70.2383069  11.0169696
  61.8409300   6.2487197  69.8022795  61.6419411   5.3560728  70.0847960
  61.8344355   6.2043810  68.8461256  71.3561760  79.2846827  18.1294536
  72.3122679  79.3300275  18.1372165  71.1607682  78.4034542  17.8108787
  81.6544234  47.9838846   7.2524356  80.9759604  48.6214499   7.4747753
  81.5630041  47.8563080   6.3081884  70.6529188  34.1060805  45.4695845
  71.5522957  33.9137483  45.7348394  70.7181597  34.9245381  44.9775410
  79.6409594  43.8085176  16.6125964  78.9451300  43.4305594  17.1503639
  80.4512488  43.5358341  17.0430755  66.3639079  38.0422550   6.1838674
  65.9204756  38.3144396   6.9873046  67.1971260  38.5131616   6.1988544
   5.8934487  76.3472278  54.4466972   5.9574069  76.2650261  53.4951830
   6.7823495  76.5629328  54.7287560  64.3761015  12.9454732  29.0534544
  64.6055889  12.9395926  28.1241894  63.6335754  12.3451567  29.1205955
  13.5010731   0.4800612  61.6097546  13.0304086  -0.3451470  61.7269611
  13.0136251   1.1111152  62.1392775  34.8030758  19.8121190  45.7032633
  34.7961283  20.4878759  45.0253725  33.9137387  19.4581699  45.6977415
  51.1376296   7.0651201  13.1570052  50.7784163   7.0212607  12.2708511
  50.7601081   7.8620533  13.5293006  41.2354946  26.0851336  58.3232450
  40.3014994  26.2253475  58.1676102  41.5132809  25.5095243  57.6106882
  28.9752639  45.5068479  67.8718662  28.3675541  44.7769318  67.7529478
  28.9369501  45.9875474  67.0450068  30.9310870  58.4565691   5.8902406
  30.8239226  59.1902725   6.4955758  30.0640540  58.3372788   5.5026054
   6.9851260  51.8756310  32.8375148   6.6807895  51.6755537  31.9523143
   7.7916198  52.3742739  32.7065276  84.0442215  51.2670747   3.0874347
  84.7249924  51.2023441   3.7572049  83.4999787  50.4914729   3.2233619
  66.7847013  13.6521041  65.6956100  66.2651062  14.0145159  64.9780369
  67.5043201  13.1932032  65.2622604  21.0015506  40.9896517  61.4716959
  20.5197829  41.7002773  61.0484457  20.5378836  40.8438253  62.2963047
  14.8473185  18.9867663  54.2283154  15.1226634  18.5957694  55.0574923
  13.9158553  19.1717148  54.3483448   1.2298125  17.1104228  58.0658484
   1.1053294  17.8562832  58.6527252   0.8858699  17.4082887  57.2236967
  43.9315276  33.7311534   5.7630061  43.9064269  32.9403261   6.3016986
  43.7316470  33.4248463   4.8784351   7.9358344  39.4264718  31.7912387
   8.3966165  38.8386742  31.1925697   7.0458369  39.4743355  31.4421844
  67.0950890   8.3900928  22.9507565  67.0616579   9.2411506  23.3875799
  67.6599264   8.5327297  22.1912527  23.6613552  38.4444898  10.2639722
  24.4185773  38.0182022   9.8625612  22.9810802  38.4070247   9.5916175
  79.1756903  77.6336888   2.2637653  79.9209153  77.8177361   2.8356027
  79.5558773  77.1734885   1.5154981   1.3770776  70.3694395   9.2913484
   0.5526500  69.9285607   9.4967269   1.7979627  70.4983596  10.1413297
   5.0889640  72.4295382   8.1822395   5.5480771  72.4036578   7.3427295
   5.6672721  71.9633750   8.7859678  69.2114210  44.6237087  55.8017063
  68.4457302  44.1650581  55.4558849  69.6557999  43.9724445  56.3444901
  74.6507263  24.4054818  29.2592907  75.3698826  24.3206310  29.8852682
  74.4677496  23.5079098  28.9815927  43.8971567  18.6466467  40.2583265
  44.6286154  19.1375983  39.8839355  44.2832899  17.8158367  40.5356121
  77.2499362   2.1271747  26.4970683  77.9536811   2.6736778  26.1473369
  77.6929943   1.5092558  27.0785426  11.3577514  31.0979954  14.6413707
  10.8177381  31.4552871  15.3463172  12.2556357  31.1784325  14.9631881
  35.4061179  61.8259339  16.1991882  35.4271751  62.0538191  15.2697467
  36.3124328  61.9251398  16.4907073  51.8301439   7.8105110  54.1368675
  52.0526314   8.7414938  54.1356945  52.2594452   7.4626434  54.9184799
  11.2885480  32.8102259   6.4331149  10.8074479  32.6696430   5.6176280
  10.8031707  33.5029594   6.8811750  27.9640536  49.8447214   1.0953235
  28.3867984  50.5801467   0.6518554  28.1025176  50.0151883   2.0269870
  31.6107516  64.8706536  16.4127826  32.5286250  65.0742892  16.2331485
  31.3684325  65.4641155  17.1236324  75.5926800  -0.1191575  65.2684832
  74.7225571  -0.3812806  64.9677992  75.5754423   0.8376402  65.2467346
  82.4423313  15.3050840  48.7524605  81.8480301  14.7132039  48.2912493
  82.4912262  16.0797727  48.1923723  42.6491157   4.5063061  24.2587852
  42.7845565   4.9996227  25.0678157  42.5330631   5.1770490  23.5858344
  65.8190780  29.4045190  17.2982597  66.3395076  28.9412061  16.6419601
  66.4134078  30.0664596  17.6515769   9.8186021  73.2909064   4.0452146
  10.3539710  73.0974011   4.8147392   9.2939906  74.0489415   4.3028926
   3.8610476  10.8218277  58.1329632   3.0881137  10.4741919  57.6880503
   4.4828242  10.0940788  58.1367016  14.7307605  18.3128488  61.2429285
  14.3253535  19.1799533  61.2461710  15.6658763  18.4852397  61.3527822
  59.9879932  25.7889414  35.5426455  59.7861576  26.6249990  35.1225233
  60.0194359  25.9920883  36.4775109  41.2907280  77.1784441  68.0471992
  41.6851295  77.8795416  68.5659838  41.9317735  76.9999711  67.3591280
   3.4320121  51.7129366   9.8670387   4.3774419  51.8305067   9.7744703
   3.3189778  51.3697676  10.7534313  51.5129198  70.9667585  47.9494190
  50.9615816  70.4045502  48.4936476  50.9509910  71.7084823  47.7251196
  67.5866079  40.9859610  61.5035391  67.6992178  40.0560999  61.7007780
  67.0622826  41.3230944  62.2299433  54.2371035  27.7377653  60.0811100
  54.4056892  28.5317230  60.5885029  54.3736124  27.0227790  60.7027149
  24.0181364  79.8290734  27.1552610  24.7124876  80.3832033  26.7988205
  23.8044275  79.2254675  26.4437675  11.7375903  50.4953889  20.1034641
  12.1598868  49.8467485  19.5402908  12.4610286  50.9176580  20.5666637
  55.1211023  31.6619587  66.7330217  54.2352724  31.5443540  66.3899374
  55.5194044  32.3091435  66.1510086   3.5601634  16.2152719  59.3691444
   4.0335768  15.9206378  58.5911322   2.7066535  16.4952588  59.0384340
  44.3499557   3.8201612  16.9947719  43.7509052   4.2725414  16.4008712
  44.3518631   2.9133934  16.6881751  20.8410792   8.1616048   3.6796188
  21.5600591   8.7800721   3.8092279  20.0545364   8.7070493   3.6711692
  48.4417261  76.6307423  56.8981600  47.7863563  76.7852728  56.2178373
  47.9499591  76.2389405  57.6198864   9.0275210   1.2570019  44.2152643
   9.9566573   1.2378835  44.4445467   8.6878890   0.4161363  44.5215702
  59.9932056  48.2764635  13.3399009  59.4256549  48.3890901  14.1024207
  59.7000556  47.4566571  12.9421329  39.1555171  36.5056221   2.7731370
  39.2343478  37.2898970   3.3162116  38.3680110  36.6547988   2.2498607
  33.2925619  60.7491420  64.2904758  33.1730665  60.3370915  63.4348106
  34.1705145  60.4832504  64.5638466   1.5021437  12.1924126  45.9590912
   1.1948985  11.9647515  46.8365908   0.9595793  12.9376245  45.7011938
  75.4350615   9.0790945  26.4076447  74.7160244   9.6273267  26.0935426
  75.0234365   8.4752208  27.0258164  13.4646802  47.2614173   8.2319545
  13.1114011  47.6453422   9.0344667  13.0114370  46.4225094   8.1480836
  54.7836833  68.8195423  28.1042098  54.6310954  68.0051951  28.5835647
  54.7669845  69.5002226  28.7769889  85.2334118  14.2295778  61.8208742
  84.4518471  14.5990407  61.4099312  85.6891727  14.9853504  62.1914482
  74.8577296  50.8702914  -0.0771666  74.2140566  51.4541451   0.3241205
  74.4666516  49.9993251  -0.0085641  60.9304296  75.2298574  21.9164371
  60.4650151  74.6883229  22.5539016  60.2400242  75.5956558  21.3634776
  35.8266033  79.1590262  57.2698069  36.6178192  78.7842063  57.6567507
  35.1281608  78.5539245  57.5193310  64.1966688  66.0175614  12.5987148
  64.8939120  65.4096250  12.8446769  64.3037878  66.7587308  13.1948852
  48.5698366  23.5164118  59.7895813  48.0186796  23.7123871  60.5472422
  48.3418608  24.1885281  59.1473007  42.9157972  44.7332191  55.5349588
  42.5712729  44.1960907  54.8215055  42.1896982  45.3097773  55.7728624
  38.3210087  37.8761172  65.1097918  38.4220839  38.0633497  66.0430431
  37.9114151  38.6631632  64.7505903  44.6013082  73.9571957  53.7457561
  45.3200639  73.5353951  54.2166138  44.0019573  73.2418511  53.5329437
  41.7581892   7.0336813  64.0883446  41.4288473   6.2840080  63.5926056
  41.5506840   6.8279040  64.9998426  84.9214732  78.2004384  14.4176483
  85.5949913  78.6230115  13.8846969  84.5635401  77.5157360  13.8525867
  11.8760972  71.4161925  22.5554752  12.5415235  71.0500149  23.1380176
  11.6628032  72.2664169  22.9399967  31.9231563   6.1366967  22.2127342
  31.4901977   6.6659145  22.8825950  32.3540740   6.7752151  21.6445541
  13.8085425  25.8261824  66.8475580  13.6084020  25.1134491  66.2407732
  13.5492122  25.4902363  67.7055311  47.7951384   7.5072849  46.0765314
  47.8583384   7.5568515  47.0303583  46.8584394   7.4137646  45.9030962
  75.5893599  50.0401352  11.5175533  76.3268601  50.3250496  12.0571327
  74.8140513  50.3039602  12.0130538  36.9006658  -0.1080932  38.4191608
  37.1101093   0.8028701  38.2129765  36.7869306  -0.1185120  39.3695211
   7.1923928  67.4723200  16.2428188   6.8698983  67.9644565  16.9978237
   6.4725213  67.5015644  15.6126117  52.8097200  14.6877789  35.3378654
  53.7596321  14.7068322  35.2215195  52.4803734  14.2573130  34.5489025
  47.6932374   1.5603870  11.9052314  48.0853502   0.9391254  11.2916278
  47.2931425   1.0110897  12.5793456  30.0838618  64.8900680  31.0765933
  29.2825370  64.8152737  31.5947818  30.1024490  64.0924172  30.5477809
  68.5722338  45.3221254   9.9218702  69.2413842  45.9044753   9.5622348
  67.7474176  45.7846616   9.7736406  30.4119110  11.2135947  59.3055773
  31.2987447  11.5323567  59.1377974  29.8682690  12.0013618  59.2951488
  73.1642949  78.6662010  32.2573280  72.5738846  78.4029011  32.9632472
  73.0061566  78.0275516  31.5620899  81.1195599  63.4633092  38.8043022
  81.3156401  64.3360929  38.4636688  81.9169794  62.9587821  38.6436462
  75.8511353   3.1652868  55.0958157  76.5340567   3.6387238  55.5709028
  76.3259077   2.6529330  54.4413567  54.9919271  38.0815697  55.5382681
  54.1401625  38.2402015  55.1313686  54.8306274  37.3754549  56.1640596
  64.9081932  32.5932352   1.9864797  65.5168163  33.2480411   2.3285913
  64.8739039  31.9199590   2.6660013  40.6638050  20.2883291  34.2989826
  39.9599862  20.8584166  33.9893532  40.2236605  19.6436846  34.8529983
  62.4374056  18.9845502  29.1804957  62.3365116  19.9327457  29.2640281
  62.4481344  18.8270772  28.2363987  31.3717704  26.8132345   8.1262159
  30.6141906  26.8102101   8.7112760  32.1099143  26.5793590   8.6889505
  48.0266571  35.0458407  43.9695168  47.9714584  35.1897740  43.0248117
  48.6091995  34.2921281  44.0633249  45.3211750  70.8043889  55.3933334
  44.5152677  70.9197263  54.8898935  45.0541080  70.9269379  56.3043165
  18.8026134   7.1842045   5.7235813  19.1417161   6.5116304   6.3142394
  19.2477123   7.0194763   4.8923253  37.0731276  11.8917835  46.5897131
  37.4269885  12.1684492  45.7444477  37.5767440  11.1098158  46.8158293
   3.2786994  65.9592132   1.7119359   2.5276141  66.1701278   2.2665691
   4.0189700  66.3932757   2.1359968   4.5637851  73.3003215  12.7299213
   5.4436927  73.2724575  12.3541259   4.6995025  73.1653241  13.6677837
  84.8964440  59.1179852  14.9989795  84.5376192  59.7705058  14.3975734
  85.7892357  59.4168238  15.1717471  37.8676753  51.9871632  24.7686481
  37.3397689  52.0690839  25.5629062  38.4518867  52.7450995  24.7901248
   7.7510314  68.1855969   3.3792781   8.3860021  68.9013557   3.4063482
   8.2542806  67.4303488   3.0750226  50.8801031   8.9029342  38.8352656
  51.1656046   9.5501977  39.4800687  50.4097223   8.2455313  39.3478990
  39.5440722  36.6444850  62.6203442  40.1605320  37.3669147  62.5007248
  39.0052938  36.9102764  63.3655310  69.2484331   6.3020444  63.1127357
  69.9853230   6.0379362  62.5618553  68.8667679   7.0530814  62.6583052
  37.8477025  24.5150232  68.2600212  37.9641867  24.0010715  69.0590954
  38.2434440  23.9804912  67.5716209  43.1737232   4.0681067  50.4452085
  43.1848764   4.9890345  50.7059765  43.4445953   3.5933739  51.2310123
  76.1279011  41.4956903  45.4069376  76.5073299  42.2210884  45.9029913
  76.1134672  40.7647085  46.0247469  77.1719360  24.2444348  31.6002655
  77.5219059  24.5806408  30.7752085  76.4591742  24.8442817  31.8202353
  11.3926047  44.0686464  11.5438259  11.0971469  43.2887411  11.0740471
  10.5870455  44.5405388  11.7550719  57.4378872  27.6175642  58.6973619
  56.6632175  27.7213621  59.2499399  57.4468994  26.6878653  58.4697437
  31.0816526  32.0361376  54.0126848  31.9726396  31.7557144  54.2218208
  31.1889768  32.9034209  53.6221266  39.5464473  15.2448873  11.4696121
  39.0172343  16.0424284  11.4595413  39.2864184  14.7748808  10.6773280
  71.3657331  38.0111718  64.9566650  71.9870043  38.0388093  65.6843233
  71.7608404  38.5648775  64.2832232  52.1271480  72.4979613  58.1188154
  52.9478325  72.9852960  58.1909800  52.3500026  71.7301694  57.5924492
  55.0436687  15.6769276  51.7132759  55.9514189  15.4229927  51.5467119
  54.5316076  14.9028456  51.4791393  45.6867175  50.5900661   3.3586978
  45.3150802  51.4716462   3.3891773  46.5998511  50.7058732   3.6213874
  10.8790988  18.0434787  36.8902922  11.3666743  17.3445702  37.3262119
  10.5143374  17.6292610  36.1082411   7.5103049  46.5130548  15.8519267
   7.2258048  47.4081949  16.0363578   6.9919829  46.2488071  15.0918292
  44.0220083  69.7785197  58.0584669  43.8422454  70.7165537  58.1217718
  44.5138849  69.5746956  58.8539219  50.9997988  35.4972672  56.8708754
  50.3347063  35.0862503  57.4231005  51.7036152  34.8503709  56.8219042
  57.6113844  28.9612865  49.1817999  57.7710819  29.7661424  48.6889124
  56.6606140  28.9301729  49.2880821  40.3086901  18.5083425  46.0244036
  40.2860117  19.0394390  46.8204260  41.1617994  18.0749941  46.0498285
  28.4933368  11.9959301   5.0566339  28.6624900  12.2790474   5.9552287
  29.2443649  11.4460701   4.8333692  20.6821767   5.6589645  20.4931545
  21.2587205   5.3535169  21.1935233  19.7997276   5.5684990  20.8527850
  50.7297421  40.3609324  58.0385160  51.0216236  39.4537950  58.1287098
  51.1054182  40.6519222  57.2075987  64.0609323  36.0493914   9.7744512
  64.4286810  35.7436354  10.6036090  63.1272637  36.1612428   9.9533033
  79.4794403  64.5394592  30.4503631  78.5490881  64.6406225  30.6514739
  79.7462212  65.3950433  30.1141452  24.6604270   6.6394103  64.4743252
  24.3371600   6.0328269  63.8081503  25.0856704   6.0784167  65.1229286
  69.9692691  76.7756669  46.2337971  69.6388019  77.5287704  45.7440472
  70.5999149  77.1485738  46.8498087  38.8658958  65.2752976  14.3255710
  39.5269065  64.5869617  14.2514514  38.4036594  65.2547006  13.4876346
  81.2180554  47.0713458   4.3162488  80.7919203  46.4663343   4.9233770
  80.8374297  46.8623499   3.4632110  10.9342532  80.1344804  19.8302268
  11.7088323  79.5723085  19.8155403  10.7448440  80.3054194  18.9076518
   9.5935289   3.5023445  12.6719856  10.0543443   4.3285364  12.5260734
   8.9589302   3.7004322  13.3606624  51.6400814  36.2115717  69.3855238
  52.1023464  36.5791321  68.6322355  50.7428837  36.0842872  69.0771866
  76.6213070  13.7096433  19.7107219  77.4814736  13.8440065  20.1085758
  76.0909258  14.4373087  20.0354194  18.4228521  61.3736490  38.8342571
  17.9711490  60.5827550  39.1286754  17.8380637  61.7533950  38.1784820
  75.5699812  72.9539041  18.4543228  76.4530455  73.1143479  18.1216239
  75.5769335  73.3203582  19.3385791   5.8822827  24.7411434   2.2625970
   4.9353366  24.6220509   2.1894979   5.9852939  25.6129650   2.6441049
  10.1716523  46.4971338  23.8497257   9.7330098  46.7364649  24.6661472
  10.8676677  45.8975647  24.1186332  19.4849210  29.0815524   4.4709873
  19.4896846  28.9456550   5.4184818  20.4060702  29.0269307   4.2165565
   8.9440554  33.9849257  26.6496253   8.7437266  33.0864882  26.3871169
   9.7656363  34.1876245  26.2022495  67.8771747  67.6475082  67.3783636
  67.8126682  67.1806023  66.5452576  68.2818664  68.4851084  67.1527958
  66.8219566  14.6634161  55.7905340  67.5076294  14.7992289  55.1365900
  66.1672020  15.3333354  55.5937243  28.0071425  27.0082903  57.2525692
  28.9473438  26.9840121  57.0746183  27.9118681  26.5686893  58.0975008
  71.2380838  20.9336615  39.7725272  70.9306574  21.2555575  40.6199360
  72.0732689  20.5081820  39.9665952  12.7733998  61.8054084   1.7372512
  13.6907439  61.9009070   1.9933462  12.2800832  62.0212797   2.5286245
  69.2360210  45.0407982  45.5715561  69.5412827  45.4840422  46.3631248
  68.7756443  44.2657709  45.8934498  56.0601997  39.3037176  68.9417934
  56.5152931  39.9907875  68.4549093  55.1433468  39.5786905  68.9437151
  66.4786911  39.4624448  48.3699560  66.2177706  38.9146686  47.6296186
  65.7206535  40.0242710  48.5310841   4.6094531  63.5815001  36.9925547
   4.3658847  63.8828182  37.8678370   4.9080199  62.6815367  37.1235228
  36.0399190  14.7244924   2.5644683  36.3155405  13.8489193   2.8358268
  35.2143756  14.5828718   2.1011638  75.5499744  37.2780299  44.2123413
  76.0642433  37.4994302  44.9886990  75.8385897  37.9033089  43.5475397
  78.1673895  56.8569688  17.1296119  77.7133023  57.6463632  16.8348407
  78.9740359  56.8382494  16.6146373  32.3125033  54.5004956  20.9858512
  32.4661689  53.6329595  20.6116866  31.3602023  54.5971529  20.9833621
   3.0099410  22.3255253  61.7756987   2.0615309  22.4243021  61.6920614
   3.1991404  22.5847673  62.6774931  74.5673847  36.5136504  40.8116150
  74.9019051  36.0507989  40.0434399  75.3360033  36.9451761  41.1847734
  40.3439037   6.5886301   4.1854524  40.4558126   7.3657268   4.7330140
  40.8325140   6.7862552   3.3864307  68.0311108   0.2883749  44.3524361
  67.9107428   0.5964427  45.2506733  68.9624643   0.0749914  44.2951918
  53.5269599  57.4760000  24.9503612  54.0592246  56.9388811  24.3634891
  53.2901149  58.2410077  24.4260501  42.7251582  73.6807875  22.3432731
  43.2618957  73.3191423  21.6380405  42.1280532  74.2860464  21.9035434
  34.9300914  74.2262391   3.5400056  35.7989459  74.1733746   3.9381742
  34.9542956  73.5883741   2.8267192  20.5889624  40.8105278  47.4462795
  21.0540599  41.4724112  47.9579687  19.6764678  40.8905506  47.7241135
   5.5813807  25.6400204  65.5989408   4.7918147  25.1301169  65.4177809
   6.0687941  25.1106429  66.2301493  39.1175739   9.4507641  23.2724475
  38.2827751   8.9825529  23.2837486  39.5680229   9.1563982  24.0640735
  22.7269858  15.0171793  61.0086346  23.0575198  15.6695843  60.3911018
  21.8981951  14.7258782  60.6285238  15.4843513  11.6113943   9.2830753
  15.0929157  11.2103838  10.0590896  16.3542644  11.8891805   9.5699882
  48.6460452  58.0327622  11.1014270  48.3494525  58.8954548  11.3912963
  47.8764587  57.6412551  10.6882762  80.2073089  19.3892378  25.8298396
  81.1310283  19.2441410  25.6251239  79.9682991  20.1644987  25.3218269
  55.4386287  78.0064634  22.0197486  54.7402721  78.0114845  22.6743507
  55.4009299  78.8765864  21.6226386  37.6834262  67.7474568  68.2133484
  37.6771082  66.7905960  68.1886673  36.7745269  67.9884384  68.3924055
  71.2703263  34.9144803   3.9211034  71.4380347  34.8948262   4.8632907
  70.5944239  34.2506627   3.7842368  77.1086740  35.6289482  49.1545248
  77.9631519  35.1985860  49.1842461  76.9278669  35.8655071  50.0642395
  84.9953972  49.1892389  15.2921867  85.0391184  48.4551237  15.9048843
  84.1737734  49.0577153  14.8190402   2.9494200  13.2380194  15.5442142
   2.9279719  12.4391025  15.0174331   3.6420450  13.7672037  15.1486587
   6.1808400  72.7803044   1.7024946   7.1051746  72.6481418   1.4918422
   6.1798101  73.0388169   2.6241254  44.6894741  12.4307775  65.1792192
  44.6608877  12.1201015  64.2742872  45.0512075  13.3148527  65.1176214
  84.8196923  65.1781158   5.7845449  85.7408129  65.2109269   6.0427951
  84.3867432  64.7126464   6.5001726  21.5180163  79.9978189  27.9993438
  22.4494939  79.9959830  27.7789401  21.4450841  80.6164364  28.7261390
  30.4680686  66.8157343  18.0448055  30.2810054  67.5757388  18.5958385
  30.0325446  66.0866837  18.4864425  59.2442131  39.2745495  66.6486359
  60.1373482  39.0356660  66.4006948  58.8176727  39.4981170  65.8214045
   0.3592782  53.2129852  13.1730270  -0.4293723  53.6887805  13.4335708
   0.2850347  53.1285993  12.2224521  15.7628649  12.2520733  59.7690916
  14.8641413  12.1825969  59.4470596  15.8442897  11.5428710  60.4067707
   5.3950362  54.1452412  30.0348472   5.6696134  55.0524704  29.9015235
   5.2764468  54.0675430  30.9814929   6.1573892  61.2540368  25.9731292
   6.5358930  60.8893279  26.7731094   5.2311807  61.3772372  26.1809444
  46.2335873  26.3283539  61.5831184  45.5297852  26.8445826  61.1901760
  46.7632389  26.9683218  62.0586586  84.7818851  15.1093912  54.7092009
  84.3648243  15.0495684  53.8497162  84.0522289  15.1698041  55.3257942
  26.7721194  26.8743968  60.3266382  26.1550921  27.0290112  61.0418987
  26.7642707  27.6885605  59.8233414  13.2842845   2.9074273  39.5983315
  13.1516188   2.8018522  40.5403948  13.6466902   2.0690185  39.3120480
  20.0965327  27.5346947  28.8211918  19.5985049  27.0863438  28.1376815
  20.4119986  26.8310618  29.3883014  36.7886310  55.9857289  15.7797431
  37.2777801  55.3003852  15.3244590  37.4615436  56.5216724  16.1994933
  19.8068051  70.7809405  17.2588634  19.4799047  70.0349502  17.7617168
  19.6080976  70.5617074  16.3485336  22.8422647  60.3474693   0.8008909
  23.0321555  60.7021741   1.6694307  22.4187951  61.0685090   0.3350448
  60.8230639  48.2270098  50.0794125  61.0105038  47.8794909  50.9513807
  61.0242128  47.5040960  49.4851351  61.8200922  60.1356649  48.6399031
  61.5246534  60.4994822  49.4745159  62.4958801  59.5019627  48.8806629
  77.8078114  42.5828516  18.0978870  78.1737839  41.9603638  18.7262248
  77.0702921  42.9827354  18.5587501  63.3632278  60.1632786  55.8205795
  62.5322533  59.7940588  55.5216026  63.1153727  60.7966423  56.4941120
  22.5225453  66.2630848  42.4389076  22.1218209  65.4599218  42.7714443
  21.7902904  66.7666439  42.0833015  69.7058951  46.6633449   2.7700519
  70.6545197  46.6877965   2.8955459  69.5921980  46.5216599   1.8302488
  34.3908553  35.1664040  21.3736343  35.1795535  35.4393352  20.9049033
  34.6783500  34.4356708  21.9209956   9.5280271  69.1433052  22.8343677
   9.6569257  68.2007817  22.9405116  10.4112439  69.4946269  22.7215480
  55.2906752  32.3166370  69.3642235  55.8573580  33.0632353  69.1700792
  55.0978184  31.9334364  68.5085392  44.7155051  55.5027918   3.5653972
  45.2859264  56.0512094   4.1039991  45.1797633  54.6684686   3.4975767
  50.0012580  17.3977894   5.8817434  49.8469440  16.8691439   6.6646575
  49.2342512  17.9673475   5.8223152  24.1438346  19.4493488  12.0279979
  23.8988834  20.3469888  12.2526550  23.4419398  18.9109091  12.3935890
  68.6398745  31.0657597  52.5819063  69.4504213  30.9198713  52.0940971
  68.8569546  30.8286262  53.4835052  69.3897152  22.8852248  55.9553242
  69.9908590  23.6300159  55.9671593  68.7886333  23.0510163  56.6815805
  17.6428717  15.3409910  44.2838478  18.2630271  14.6217859  44.1639137
  16.7851275  14.9464130  44.1263342  19.6174483  68.0264787  26.0663509
  20.2667480  68.2913641  25.4148292  19.5826249  67.0725254  25.9956836
  37.8778640  17.3792452  11.0067272  38.0730382  18.1627840  11.5207290
  36.9233600  17.3712200  10.9353637  65.9715700  39.6853375  65.6581497
  66.3101816  39.2476821  66.4391994  65.3659010  39.0523481  65.2725077
  26.9613570  20.9914136  67.9267693  27.5686282  21.7312217  67.9149485
  27.2244185  20.4536533  67.1798801  73.3372688  13.1201971  60.3131056
  73.9587402  13.0601132  61.0386419  73.7264585  13.7597930  59.7167206
  49.6636539  70.2504901  18.7586688  49.0092044  69.7043494  19.1941642
  50.4829173  69.7647862  18.8542842  44.0459590  78.8757638  42.7077293
  44.5853667  78.1733231  42.3446082  43.1553702  78.5252003  42.6943015
  80.0907421  42.6842070  60.4874229  79.2709780  42.4477625  60.9213638
  79.8706818  43.4540129  59.9628210  81.0733795   9.8676604  26.0754299
  80.3017902  10.1242006  25.5703950  80.9541225   8.9316100  26.2361097
  50.1102656  24.2119622  64.0573502  49.2678374  23.9320254  64.4153833
  49.9660701  25.1187158  63.7867165  70.7990013  45.0918917  15.6446075
  70.1881348  44.8797096  14.9388789  70.7648932  46.0461001  15.7120990
  72.7542448  47.3935795  48.4588194  72.6289129  47.3745441  47.5100517
  72.8281593  48.3237982  48.6720324  16.7095523  73.2866077   2.2437667
  16.0712247  72.6906590   1.8518304  17.2132211  72.7369742   2.8441429
  29.5156401   8.9423639  58.2850504  30.1229590   9.0328908  57.5507450
  29.6215934   9.7519094  58.7846947   0.7948499  69.1591410  12.5096225
   0.6150775  70.0623039  12.2484493  -0.0108666  68.8684849  12.9369068
  35.4418529  70.2947817  49.3599701  35.8949960  69.9254165  48.6020374
  36.0246004  70.1159857  50.0979900  74.8222017  20.0110412  53.4517670
  74.6257687  20.8945322  53.1401777  74.0617085  19.7688174  53.9801693
   0.0753980  56.7231981   0.4431390   0.3459029  57.5018112  -0.0434971
  -0.3778739  56.1821298  -0.2034045  80.6974567  76.6774396  44.6241999
  81.0968460  76.9800122  43.8086224  80.7456649  75.7227356  44.5747232
  30.6033092  66.9648174   4.2501306  30.3820949  67.4152855   5.0652265
  31.5148597  66.6961722   4.3647241   9.1310042  32.4381661  44.3918419
   9.4929999  32.2942209  43.5174990   9.6545333  31.8763852  44.9632883
  26.3430171  67.6295213   5.0628852  25.5818038  67.2348313   5.4883241
  26.9673019  67.7730517   5.7741546  37.7231841  52.3239283   5.0269746
  36.9493823  52.0197217   4.5527267  37.4448257  53.1411533   5.4403686
  32.4968457   7.1863580  54.7934961  33.0738878   7.1877033  54.0297890
  33.0509353   7.4891853  55.5128813  43.2376138  16.0818857  21.9230937
  43.0788270  16.9619507  21.5817642  43.3072034  16.2012905  22.8702640
  39.0488582  27.8107170  20.2354717  38.8592868  26.9132201  20.5089568
  39.6399837  28.1466154  20.9092521  81.0814754   0.5895704  28.2057475
  80.1520053   0.4460663  28.0276107  81.2823955   1.4204401  27.7750205
   3.8640027  68.7189178  56.2381553   4.1845231  68.5293678  57.1199512
   4.6569734  68.8436345  55.7167339  84.1947937   9.3920952  40.6346035
  83.4626675   9.6417099  40.0707722  83.9236164   8.5615683  41.0256529
  43.8714461  78.7194447   5.0814628  43.2665115  78.0358032   4.7935104
  43.9622073  79.2945151   4.3216705  64.9696255   7.0181745  60.6220865
  64.1010714   7.2052008  60.2659082  65.5466461   7.6472110  60.1889706
  83.3168888  24.6586823  39.5285940  83.2787323  25.4419112  38.9796615
  84.2391682  24.5822668  39.7730994  36.3028579  11.8541483   2.9250573
  37.1684508  12.1151499   3.2394790  36.1827045  10.9667901   3.2632732
  64.6862698  40.7132721  52.0046854  65.2578831  40.1047325  52.4728394
  63.8001013  40.4408169  52.2428274  57.6159811   9.2087924  52.8592920
  57.2793293   8.8001519  52.0618534  57.7235460   8.4825790  53.4735203
  21.2335509  33.3590698  46.4436388  20.9778136  34.2555761  46.6606760
  20.7556933  32.8153968  47.0699787  18.5153502  22.1935630  55.8371973
  17.9932326  22.2792912  56.6348648  19.1411990  21.4966464  56.0343313
  42.7325058  42.5449467  57.1958923  42.6520824  41.9411325  56.4575338
  42.7022648  43.4150600  56.7981243  41.8852282  31.8382835  65.2890539
  42.6345348  32.3094797  64.9247122  42.0339775  31.8463039  66.2345934
  48.9392225   8.9417642  28.3830261  49.3411724   9.7291797  28.7499713
  49.5902339   8.2538170  28.5213756   4.5403724  69.9905543   1.7970943
   4.8894315  70.8609609   1.6053104   3.9399152  69.8086743   1.0741805
   0.4399604  50.1915646  44.9599934   0.0319785  51.0440350  44.8081017
   0.7743186  49.9297953  44.1021395   5.0005679  72.5411181  25.5781841
   4.8552899  73.4741811  25.4216098   4.1460328  72.1370534  25.4273891
  22.1553031  32.3694080  26.3302135  21.7220918  33.0144686  26.8891906
  22.8714172  32.0298189  26.8669509  29.5197921  51.5072469   9.6398115
  29.3263583  50.6828193   9.1935682  28.8187270  51.6007153  10.2847862
  59.8783008   8.7881368  37.0227622  60.7783405   8.4988827  37.1727180
  59.7448627   8.6775106  36.0813903  61.5382814  27.3346281  52.5556135
  61.9135094  28.0270195  52.0115280  60.7446480  27.7229548  52.9238272
  34.0875011  52.7855770   6.8118095  33.8064342  52.1189324   7.4385595
  33.3195548  52.9346708   6.2602090  78.2488394  33.2640862  55.8726454
  79.1816759  33.2541943  56.0869932  77.8720903  33.9079881  56.4723778
  10.8337836  69.3626193  10.4731464  11.0481601  70.1563386  10.9633350
  10.3835397  68.8040499  11.1067867  37.6579528  65.6941179   5.1133775
  38.3101325  66.3666515   4.9169254  37.1672683  65.5908827   4.2980241
  38.0934196  42.3153154   2.9014301  39.0199428  42.5505511   2.9509639
  37.8872638  41.9698198   3.7699699   6.6550368  10.3159487  36.3876319
   7.3560542   9.9744314  35.8325076   6.4020079   9.5743185  36.9373560
  83.2347870  11.9985807  48.1750536  82.7421284  11.1986160  48.3583117
  82.5637913  12.6576734  47.9972982  48.6429834  11.9617832  60.2021933
  49.2062044  12.4523354  60.8008337  49.1511059  11.1814344  59.9806118
  12.5760192  37.5459504  30.2819109  13.0235976  36.9226074  29.7097659
  11.8407744  37.0523405  30.6452250  19.3668370  61.3088087  13.3117294
  20.1322417  61.8835286  13.3211326  19.7108512  60.4561047  13.0456733
  59.7030115   9.4717830  58.8508987  59.0764809  10.1815712  58.9919376
  59.1711664   8.6761010  58.8671255  17.0462764  71.6296021  61.8417978
  16.6117347  72.1408818  62.5244379  17.5926317  71.0063032  62.3205757
  31.4676051  56.2537400   7.3680448  32.3767524  56.4516584   7.5928068
  31.1644130  57.0275001   6.8930673  80.4095840  25.5966949  39.0744376
  80.9672451  26.3016534  39.4034934  80.9470844  24.8087525  39.1548491
  84.9654185  45.2791921   7.2380065  84.5048701  44.9707828   8.0183982
  84.5823466  46.1376039   7.0574045   5.4057139  53.3672762  52.6732779
   6.2846297  53.7463474  52.6788616   4.9035376  53.9179754  53.2739258
  30.0907474  74.0062837  24.4930362  29.8257785  74.7522668  25.0311088
  31.0474830  74.0358643  24.4970702   1.6247576  37.7816248  60.4464722
   2.2725791  38.2301426  60.9899759   2.1014327  37.5467300  59.6503305
  75.3966236  21.0593176  59.6783781  74.4911909  20.8224344  59.4776058
  75.3663063  22.0013142  59.8455715  30.4727377  66.6348908  34.5176148
  30.8337701  67.3794518  34.9987745  30.6820310  66.8174539  33.6015916
   9.1374224  35.7118869  57.0529032   9.4693392  35.2963877  56.2570238
   8.6029834  35.0365448  57.4706507  84.0363979  14.9181628  36.8018866
  84.6378231  14.4961751  37.4154377  83.5678673  14.1929197  36.3886929
  82.3691975  67.1740321  11.0734748  82.9795205  66.4604906  10.8874797
  81.5334307  66.8735103  10.7165241   3.0727500  35.4176617  47.1458721
   3.0536002  35.5307651  48.0961752   3.8819045  34.9344754  46.9784403
  14.6244817  51.6201941  16.5678500  15.2811341  52.1627442  16.1311817
  14.0877442  52.2423820  17.0587921  50.6271232  80.0093140  59.9087667
  49.9675859  80.5128464  59.4315910  50.6116546  79.1447398  59.4982767
  22.0948046  59.0989447  68.2893801  21.7499846  58.5811090  69.0168238
  22.8110522  58.5703754  67.9374695   9.5815295  36.5900254  45.9512472
   9.3935603  37.4295020  45.5315113   8.9075488  35.9985662  45.6163502
  40.6649928  76.4314179   8.2974624  41.5209346  76.2448863   8.6832094
  40.8386283  76.5190629   7.3602294  73.6451912  44.2956543  56.0910654
  74.4767189  43.9016819  55.8272839  73.0123520  43.9706945  55.4506350
  65.2952281  11.9926685  34.3514442  66.0496513  11.9137472  33.7676334
  65.3928844  12.8557438  34.7536754   9.9811000  20.2182722  68.6839724
  10.8405417  19.9324179  68.3743382  10.1247329  20.4614782  69.5985508
  73.4243917  17.3814559  57.4514151  73.8176155  16.7662668  58.0704069
  73.9314318  17.2691786  56.6473389  53.1421237  75.6332783   5.1603126
  53.7499862  75.1953773   4.5645093  52.4638133  74.9803428   5.3329658
   6.8103427  43.4655619  69.1982794   6.9288176  43.9901972  69.9900866
   6.4011878  42.6567316  69.5058775  77.3795128  68.0075169  57.5037861
  77.8354740  68.8095951  57.2488308  76.8716383  67.7643490  56.7297316
  63.7387085  25.2530146  57.7264214  63.0066109  25.7359219  57.3429298
  63.9853144  24.6180677  57.0539188  73.4316444  39.6493459  45.3022766
  73.8639975  39.8492575  44.4720173  72.5036764  39.5791578  45.0782728
  62.0817462   0.1952022  14.6296977  62.9435817  -0.0556523  14.9621868
  61.9384948   1.0759825  14.9760150  25.9299712  65.9782342   2.6166391
  26.5860610  65.3449730   2.3254918  26.3384013  66.4215640   3.3601903
  50.9558392  59.2670584  58.5026884  50.6610394  58.8585234  57.6887941
  51.9110632  59.2607498  58.4415436   6.2303834  69.9150018  12.5036048
   6.4979987  69.0101413  12.3428535   6.0159164  69.9392656  13.4361553
  59.2705112  57.5072149  20.0519084  58.5405688  57.1324114  19.5590209
  58.8858943  57.7670733  20.8890342  81.5205860  25.0631475  52.2371340
  81.7596340  25.4776168  51.4080954  82.3455620  24.7190332  52.5795126
   7.4603099  37.8916001  34.0140748   7.3557967  38.3861995  34.8268962
   7.6160926  38.5590649  33.3458996  51.5465832  56.5968800  63.2021332
  52.0477819  57.3805332  62.9764891  51.4785051  56.6226816  64.1565609
  39.8994498  75.3934983  22.5045490  39.7104030  75.3291253  21.5684127
  39.7286754  74.5150856  22.8443431  84.3960528  68.7335543   9.4502878
  84.6392970  68.0937270   8.7811946  83.7352901  68.2870559   9.9796867
  19.7807330  65.1546955  50.9844542  20.0807685  64.3418312  51.3912249
  20.5505103  65.7235956  50.9899092  36.9302217  15.2905744   6.8900871
  36.4945499  15.9847874   7.3845386  37.5896398  15.7466072   6.3671779
  40.7949726  19.2291540  13.1941318  40.9955255  20.0963634  13.5461997
  40.6531850  19.3771690  12.2591304  19.5718688  45.2774572  55.4266119
  19.2622203  44.4059181  55.1801014  19.2072505  45.8588076  54.7592974
  10.0288218  50.2117777  58.4223175   9.9528617  50.9683847  59.0037060
  10.6319445  50.4968071  57.7358532  44.4886581   3.6908859   7.3418044
  45.2410451   3.8683122   7.9063033  43.7841217   3.4600490   7.9472589
  49.0824596   4.0969700  35.1583766  49.2846958   4.4053358  36.0416984
  49.4603197   3.2183880  35.1190376  27.8102832  61.1691026  30.7867431
  28.0424075  61.8347696  30.1392555  28.0773978  60.3418426  30.3860950
   9.7098082  35.1664782  61.5474653  10.5634040  34.8602152  61.2411833
   9.7856349  36.1206532  61.5531874  39.4673816  20.2877802   6.6968917
  39.4286243  21.1218590   6.2288665  40.1315395  19.7813743   6.2292623
  31.6435866  25.7451026   2.8342962  31.8852286  26.6090373   2.5004434
  32.4295573  25.4332511   3.2828903  48.1633533  61.1663399  44.8930645
  47.4546207  60.6519757  45.2795315  48.7777771  60.5134700  44.5576859
  38.7553268  57.9181878   5.5672407  39.3648772  57.3885683   6.0812282
  38.8762717  57.6165084   4.6669149  49.0499640  24.3449140  55.2316809
  49.5758724  25.1037240  54.9789762  48.1622553  24.6899199  55.3274536
  44.9095779  54.5219473  48.9120101  45.6881385  54.9658589  48.5758399
  44.2013507  54.8124115  48.3373069  61.4100599  22.2613430  53.3957338
  61.1374092  21.3443136  53.4265661  62.2429085  22.2478676  52.9241323
  30.0661672  76.6145275  45.3691053  29.6586860  75.7856039  45.6202555
  30.9084142  76.6148729  45.8239126  43.6608328  57.6730142  34.2317748
  43.8119615  58.0689679  35.0900388  43.6787857  56.7302547  34.3964267
  27.9316009  68.5332308  63.4487104  27.2409738  68.9124248  63.9922905
  27.9979099  69.1243980  62.6988077  62.2482387   6.7878193  29.0070819
  61.5441028   7.1559376  28.4733104  62.7918617   7.5408262  29.2387866
  30.7176512  15.0115454  35.5264831  31.4190024  14.3672240  35.4306245
  31.0743636  15.6663632  36.1266494  55.0986004   3.1767845  27.3204422
  54.7899008   4.0717191  27.1789169  54.7256088   2.9255769  28.1654310
  21.8874316  49.8539732   5.1585388  21.2736325  50.3457658   5.7040834
  21.5975576  50.0208865   4.2616844  44.2963184  71.6173277  50.8199692
  45.1208700  71.8830816  51.2270594  44.4500555  70.7171772  50.5330467
  39.2105449  65.5814753  33.7387991  39.1251243  64.7029374  33.3685231
  39.9072946  65.9908901  33.2258153  18.0744857  30.3642082  40.2237177
  18.8104361  30.3772378  40.8356333  18.3908576  30.8441424  39.4583368
  24.5420604  42.7829594   4.3275117  25.3944068  43.2150889   4.3823432
  24.7448974  41.8860787   4.0616273  58.8333511  23.2317781  35.4764295
  58.2810307  23.1926847  34.6956325  59.2106056  24.1113329  35.4591513
  37.5468021  67.6905994  43.7788963  37.9865604  68.5356597  43.8722801
  36.6257148  67.9135064  43.6441802  41.1496080  78.0831728  42.6230907
  40.4098238  78.0274476  42.0182371  40.9582962  77.4301414  43.2962799
  12.3317164  16.6707313  48.9160919  12.0675105  15.7577300  48.8027239
  12.5916404  16.7324889  49.8352528  42.6402153  79.2593856  58.2330418
  42.6467861  80.1912220  58.0142498  43.4784998  78.9310951  57.9078579
   7.4822634  19.7020650  31.5818524   8.1093425  19.0428925  31.2843752
   6.7537421  19.6353817  30.9645724  27.6669446   0.2283090   5.3073882
  28.1786291   0.7360023   5.9371948  26.7602388   0.3327268   5.5958461
  74.7156013  41.2986312  52.4468040  74.6566070  40.4132042  52.0879602
  75.0223316  41.8337689  51.7148352  82.3567963  22.5466251  49.2378330
  81.5148354  22.5724173  49.6924543  82.1349716  22.3154306  48.3358479
  32.6661457  78.4026890  43.4976959  33.3264650  78.1101649  44.1259003
  32.5012888  79.3161648  43.7313986  62.4346534  15.3927654   4.8894548
  62.2049800  16.0478920   5.5484628  62.6071350  14.5970291   5.3927278
  26.2357288  47.7698008   0.4586315  26.7854743  48.5454605   0.5698299
  26.8279986  47.0329557   0.6086492  74.6205711  42.9937840  50.2400732
  75.3139305  43.5965014  49.9713326  73.8422918  43.5450411  50.3214979
  27.6253657  62.7432231   7.5446367  27.9784255  63.5851053   7.8324222
  27.5672488  62.2216372   8.3451413   3.2417792  32.6402164  65.1030731
   3.5094851  32.5311446  66.0155773   3.4318274  31.7954254  64.6950960
   4.3194693  31.9038129  46.9247150   4.8073024  31.5956903  47.6884651
   4.8847598  32.5688505  46.5317678  64.6080589   8.6034477  47.3208857
  65.1156998   9.0844727  46.6673183  65.2175188   8.4699643  48.0468130
  32.7538837  78.7554281  68.5768652  33.2190050  78.5867094  67.7574587
  31.8305458  78.7856292  68.3263159  25.8439273  37.6443291  41.2070036
  26.0034674  37.8923798  42.1176338  24.9310034  37.8851986  41.0495710
  60.6501155  76.3917712   0.6362867  61.2060027  77.1246962   0.9009456
  59.8611884  76.4844827   1.1703491  80.1827179  57.9921214  44.4026851
  81.0133110  58.4655468  44.3556499  79.9466597  58.0141489  45.3300666
  82.2979450  45.2693033  26.5226388  83.1773663  45.6260014  26.6476607
  81.7686653  45.6951427  27.1969867  79.2380428  16.2196231  43.6984873
  79.7033548  15.9287655  44.4827843  79.4848204  15.5860090  43.0247879
  79.6891832  40.4628897  42.9311991  80.2839851  41.0132599  43.4406471
  78.8142729  40.7422352  43.2008934  62.4958693  78.2071785   1.5987014
  63.1856882  77.6721982   1.2060403  62.3886525  77.8503303   2.4804019
  68.1891502  65.6985329  43.5869122  69.0227283  65.2290068  43.6173439
  68.2686390  66.2788580  42.8298521  80.5940342  70.8369017  44.8639107
  81.4346027  70.4980707  44.5558977  80.8216953  71.4199924  45.5880737
   5.3496556  58.9636115  18.0134677   5.1983075  58.0191449  17.9772853
   5.6754499  59.1875438  17.1417236  28.2882062   1.5146154   2.6875734
  27.5065795   1.2826771   3.1890678  28.6692420   0.6735414   2.4353027
  39.6783595  56.0549049  14.7576713  40.2029472  55.2681235  14.9060439
  39.0264754  55.7893268  14.1090297  82.8389250  33.1958137   7.8183030
  82.5294339  34.0774332   7.6104736  82.4449717  32.6391349   7.1466350
  20.5319518  42.6580429  18.0500209  19.6395701  42.9802322  17.9232287
  20.4284877  41.7179680  18.1976211  14.9560374  -0.0833123  42.4465322
  14.8777121   0.8475884  42.2379208  15.0955886  -0.1056915  43.3932400
  70.3567028  23.3438253  36.0046411  69.5610142  23.0132771  36.4215922
  70.4056358  24.2607260  36.2750649   1.0819167  47.1365738  65.2784061
   1.1444682  47.1649075  64.3236732   1.7369860  46.4904356  65.5422783
  81.2758602  46.9772110  47.9448223  81.2109913  47.3325072  47.0583773
  81.9645084  46.3148580  47.8875780  83.8242435  24.8340034  43.7422085
  83.6064434  25.6836915  43.3590269  84.3772411  25.0451660  44.4944286
   1.1011796  46.5772221   0.4062700   1.6666417  46.5571479   1.1783313
   1.0769992  45.6695131   0.1034307  47.4871558  21.0811162  68.4536743
  47.5766963  20.1489639  68.6519289  46.6453379  21.1504292  68.0033636
  12.9847640  42.9134560  34.1389251  13.4959143  42.3280573  34.6977258
  13.5984629  43.6053133  33.8920665  21.0825747  19.6236038  48.6737585
  20.9411639  20.1370358  49.4691324  20.3576678  18.9986598  48.6600494
  78.8694143  42.2670937  32.2810149  78.5885429  42.4721050  33.1728172
  79.5679283  41.6221523  32.3921990  77.0004177  22.9907036  27.2265291
  76.9955540  23.3543801  26.3411212  76.1060143  22.6777101  27.3618197
   4.9390239  62.7574062  66.5293932   4.6269339  63.6548948  66.4138651
   4.1410845  62.2346640  66.6084957  51.8144035   8.5519159  67.7345324
  50.8972979   8.4194142  67.9745054  52.2748280   8.6113858  68.5716152
   1.4354438  28.7157631  59.1634321   0.7734793  28.9788151  58.5240269
   0.9358424  28.5030556  59.9517107  22.3424296  41.1918581   1.4936256
  22.8494697  40.6306105   2.0802640  22.5372272  42.0821748   1.7862367
  84.5829678  21.3672709  35.6137085  84.8427486  21.6018605  36.5046120
  84.2422962  22.1806931  35.2415252  63.7090540   6.1526763  65.0387383
  63.5678339   5.2349979  65.2714491  63.3414745   6.6451705  65.7726097
  44.8123764  68.5081033   3.9327239  43.9653646  68.5622529   3.4901523
  44.7875022  69.2090348   4.5841121  32.2600555  32.0358801  65.3491259
  32.7167511  31.2088060  65.1954746  31.3316154  31.8128514  65.2821255
  76.6588532  73.2134561   9.9677371  77.4242770  72.9271440  10.4661178
  76.6367422  72.6320485   9.2076682  53.6192894  60.5064297  66.8754578
  53.9020252  61.3321400  67.2685146  53.9890528  59.8313189  67.4444342
  65.3410374  56.4436285  33.5950851  66.0322796  56.0437671  33.0673313
  65.2669488  55.8761827  34.3623828  70.8472715  49.5219368  33.3899497
  70.0957988  49.1611046  32.9195022  71.2632082  50.1113457  32.7608013
  69.1251276   1.0441870  32.2202014  69.5730994   1.3446516  33.0109405
  68.2325790   1.3784307  32.3089122  10.8357898  25.8572525  24.1074657
  10.9438292  25.0956291  24.6771049  10.0115458  25.6975168  23.6477565
  80.4941880  60.9463600  47.7369308  80.9211098  61.3640360  48.4849452
  81.1039482  61.0752849  47.0104312  36.1984043  67.0328860   8.8702964
  35.4007309  66.7902784   8.4000968  36.7622076  66.2626604   8.7988233
  42.9084730  46.4911318  64.4362116  43.3544445  47.2118950  64.8810053
  41.9781256  46.7046547  64.5075893  22.4658876   8.3843603  64.4284010
  23.3307814   8.0621042  64.6820593  22.5915282   8.7407388  63.5489464
  47.5730811  67.6115493  13.9075279  48.4625422  67.2623758  13.8512420
  47.2948359  67.4151496  14.8020934  67.4840985  30.8311647  28.7000083
  68.0808888  31.1408180  28.0186939  67.5922356  29.8800939  28.6989688
  71.3558672  30.9288210  11.7240428  70.9253536  31.7620367  11.5326213
  70.9998057  30.6645912  12.5723552  53.1254755  74.5818810  27.6681518
  53.3591329  73.9877419  28.3813381  52.6258909  74.0391092  27.0582008
   0.7883612  49.5730537  18.9639282   0.4249255  49.8953956  18.1391620
   1.7190377  49.4437927  18.7812709   8.6055714  38.4712243  67.7500820
   8.4837651  37.9028797  66.9895697   8.0231297  39.2137504  67.5899172
   3.8376323   7.7624792  45.3898906   3.1733338   7.3904938  44.8097419
   3.7785021   7.2384924  46.1887550  38.3980833  51.4565138  19.0160655
  38.6858164  50.6094841  18.6754989  38.8435744  51.5395121  19.8591995
  40.5083744  30.1454061   7.7489375  40.3482954  30.2116388   8.6903333
  39.8174802  29.5654386   7.4287271  33.7625027  29.4474149  58.0418205
  33.4246206  30.0957179  57.4239445  34.7017574  29.6263003  58.0869341
  57.2266840  17.0549768  29.6769332  56.6342709  17.5360817  30.2547073
  57.6496456  17.7326149  29.1495513  28.6773817  30.2335829  30.1165866
  28.6509696  29.2771000  30.1424026  29.3336956  30.4728121  30.7709979
   4.7820989  18.1798023  25.6958579   3.8458792  18.0548328  25.8511161
   5.1287643  17.2931904  25.5959796  33.1330101  24.8404688  47.5317668
  32.2981445  25.0136036  47.9667949  33.1382982  25.4322237  46.7794132
  49.6126413  65.5650139  65.1501465  50.0034237  65.1886272  64.3615675
  48.8710213  66.0777235  64.8286438  64.5387350  67.9684023  20.5810260
  63.7298666  68.4433774  20.7717132  64.7617232  67.5347761  21.4047241
  76.4871007  77.5798225  54.6097183  75.5592936  77.5108433  54.8347664
  76.6108590  78.5017109  54.3837929  69.0242574  12.8655714  14.1444110
  69.7007904  12.6637310  14.7907829  69.2373524  13.7485260  13.8424014
  15.2996532  42.9717678  22.7049922  15.9706155  43.6542267  22.7222919
  15.7614557  42.1894592  22.4033927  33.9821792  34.9823713  56.5068626
  33.3986855  35.6359267  56.1213303  34.2407990  35.3587317  57.3481083
  44.5733653  65.7445363   0.3230714  44.0487920  65.7850699   1.1227035
  45.2534257  66.4062790   0.4489517  84.8388407  12.7230543  13.1968021
  84.0275691  13.0801004  12.8354263  85.2657888  12.2981399  12.4528980
   7.3845212   6.4264578  33.1971073   7.9126088   5.8482784  33.7476158
   6.4805953   6.1663765  33.3746051   7.5818674  17.4963516  34.2497730
   8.2245842  18.1505150  33.9755153   8.1024543  16.7185968  34.4505786
  72.2779786  68.0123095  55.4002189  73.1187045  67.8635768  55.8329963
  72.1572768  68.9613656  55.4311179   3.6045747  46.6430346  28.4305763
   3.8059526  46.2546877  29.2819690   4.2647843  46.2805978  27.8398227
  82.3098419  27.9399818  64.8857211  83.1779311  28.2480282  64.6254157
  81.7091391  28.3807510  64.2848014  57.6917794  23.5542959   7.7425193
  57.7128140  23.6681503   8.6926889  58.3754987  24.1392320   7.4160098
  29.4728843  37.1501964  44.7929191  28.5566846  36.8785137  44.8476791
  29.7606412  37.2073025  45.7040500  36.9434158  16.7429727   1.1526298
  36.3030044  17.3099130   1.5823745  36.9093315  15.9246105   1.6479635
  71.1518084  79.3912081  21.1862754  71.8759953  78.7683586  21.2483310
  71.1147438  79.6237520  20.2584934  24.1566745  22.7040762  30.4647445
  24.0408031  21.9743055  29.8562717  23.4774438  22.5742525  31.1265754
  66.4467726  16.2855715  28.9441776  66.4405231  16.3067573  27.9872321
  65.5225764  16.3225216  29.1906070   6.6721670  43.7827820   9.8756074
   6.0208050  44.4160026   9.5739507   6.1602489  43.0143398  10.1279163
  38.8218596  17.5197802   5.6369113  38.9524439  18.0357478   6.4324950
  38.2929972  18.0820606   5.0708865   0.7681542  53.0131721  51.4260578
   0.0775399  53.3617210  50.8623219   1.4535269  53.6810780  51.4060640
   1.1436030  65.6064081  64.7869921   0.7702334  64.8361254  64.3586302
   1.2275663  66.2530375  64.0862417  12.6755672  76.7060665  53.1393146
  13.2312017  77.1750979  52.5168132  12.2736650  77.3952822  53.6681747
  15.1834575  41.8661827  31.4156818  14.5780126  41.9249863  32.1547412
  15.8812419  42.4861378  31.6277694  23.2310510  52.8909779  67.1801043
  22.4588704  53.4547710  67.2259903  22.9614949  52.1604586  66.6234064
  13.1677953   8.5483116  28.0476951  13.3786670   8.5047954  28.9803695
  14.0137092   8.6687702  27.6162528  26.4260618  42.0346397  29.9596595
  26.0664979  42.7085728  29.3828010  25.8122245  41.9946903  30.6930351
  13.8647657   2.8447332  44.9440765  13.7404304   1.9935503  45.3639174
  14.7667365   2.8245821  44.6242666  23.3800975  29.8457521  27.9954147
  23.3888666  29.7870392  27.0400524  23.8923637  29.0913528  28.2864475
  37.7578823  55.3004783  35.6483936  37.7242176  55.7396263  36.4982414
  38.6902372  55.2628464  35.4350089  17.2262708  32.6986402  14.8918056
  17.2844831  31.8645901  15.3578567  17.8488580  33.2689565  15.3427696
  25.3500605  69.8213243  46.1540174  25.9635901  69.1797495  45.7959747
  25.7388401  70.6695700  45.9405708  25.2441838  63.4169338   3.1659793
  25.1494863  64.3397568   3.4018992  25.3610137  62.9666231   4.0025138
  77.0333598  19.2012447  36.8679714  76.5656767  19.7860426  37.4642276
  77.4006508  19.7821993  36.2017726  65.3535735  76.4064888   2.1871328
  65.2978479  76.3916258   1.2316703  64.4514309  76.2814669   2.4816417
   9.9621026   4.3021578  25.1821994  10.5308668   5.0163454  25.4697418
  10.5186359   3.5241312  25.2164840   7.4635998   5.1423782  29.2950630
   7.2125832   5.2447075  28.3770465   7.5032345   6.0368103  29.6336650
  57.2385504  33.3249229  52.8689002  56.5747860  32.6502603  52.7258014
  58.0367577  32.8366464  53.0706024   7.1956507   4.6277517  26.1628818
   7.8862659   4.7835630  25.5186748   6.7932431   5.4861492  26.2949848
  39.7562782  18.0009884  15.1908111  40.5483810  17.7726120  15.6772804
  40.0674764  18.5481018  14.4696616   1.7856232  27.2896284  43.1659793
   0.8552138  27.1538538  43.3452415   2.0025364  28.1001037  43.6267471
  63.5973059  74.6417360  22.3525714  63.4591733  73.7017326  22.2361755
  62.7155148  75.0139980  22.3623466  77.6047657  11.9401640  47.3171424
  77.1453855  12.2231907  48.1077766  78.0897448  12.7144951  47.0317649
  75.9397850  39.3571037  28.9491271  75.1208363  39.7461075  28.6421584
  75.7835553  39.1691536  29.8746013  73.8866507  76.7831163  30.0221824
  73.8925539  77.3006658  29.2169856  74.7987114  76.5194945  30.1441478
  16.0669843  20.6367344  38.4046459  15.9408132  21.5844625  38.4507560
  15.2232639  20.2696651  38.6685275  51.0627591  56.9741980  30.0589656
  51.0153209  57.6522366  29.3849849  51.4124810  57.4246923  30.8277129
  77.4148867   1.1936897  12.6651668  77.3729680   2.0342869  13.1210994
  78.2744596   0.8398956  12.8936385  70.7048975  57.2305719  10.4045104
  70.9716879  58.0901484  10.0786590  70.8934199  57.2609190  11.3424777
  51.2782764  39.2454767  61.1969042  52.0316744  38.8049817  60.8037233
  51.4270306  39.1784692  62.1400976  33.5153155  62.7200107   5.5087470
  33.3067696  63.0393461   4.6308183  32.6761966  62.7202586   5.9693050
  65.0576703   2.2413915   2.6139163  65.3467862   2.0593494   3.5080623
  65.5599973   3.0130142   2.3521852  41.4474964  11.3070118  51.6944313
  41.5605450  10.5549371  52.2756672  40.5702257  11.6339958  51.8937111
   1.3363366  54.2427985  23.6689090   1.2328534  55.1713494  23.4607791
   2.2613006  54.0615884  23.5020923  73.3275687  65.8091740  21.9130706
  73.8229643  66.1711792  21.1783790  73.8569914  65.0728492  22.2192954
  25.9870553  12.2907460  64.0260029  25.3416848  12.5731504  63.3779478
  25.7608604  11.3785386  64.2075157  73.9063107  57.9077009  34.4472026
  74.6687542  58.2848171  34.8861789  73.7745463  58.4617261  33.6778354
  56.5060531  52.3356954  40.0830840  57.2353732  51.9417803  40.5617904
  56.5618001  53.2691769  40.2873802  58.7069951  42.4661761   0.5253743
  57.9571806  43.0341546   0.3481483  59.2574607  42.9749701   1.1206436
  40.4489708  26.4394808  52.4302530  41.1247301  26.8457127  52.9729795
  40.8882093  25.6958771  52.0175123  60.8350913   2.9118532   4.8149537
  60.0600097   2.4365419   4.5156860  61.3849232   2.9885477   4.0351867
  55.2245151  70.7537250   2.6255941  55.6180869  70.5214647   3.4666585
  55.4117476  71.6868190   2.5230693  45.8143782  43.7221123  14.5208740
  45.6065797  43.6836405  13.5872936  46.7286824  43.4438814  14.5744037
  46.9646072  45.4449368  67.9741478  47.2552156  46.3059998  67.6735783
  46.1666775  45.2734041  67.4740314   0.9725496  41.6356277  52.3182678
   1.1170277  42.1043968  51.4963150   1.6924477  41.0065031  52.3649311
  19.5759284   9.5040238  65.4268360  20.3970909   9.9499822  65.2193642
  19.8344874   8.6021805  65.6167221  23.3130717  25.0336218  62.2811222
  23.3832598  25.1848650  63.2236910  23.3581018  25.9079933  61.8942404
  38.0528234  69.7835163   6.9988250  38.3634584  68.9110545   6.7568588
  37.6827120  70.1386503   6.1906623  52.6001822  62.6617006  22.8942394
  52.7668702  62.2495250  23.7419128  53.4088003  63.1331662  22.6940250
  47.9845572  31.6589594  61.3590384  48.5195446  31.9242048  60.6109285
  47.3915339  32.3964310  61.5028811  45.4661428  54.8330275  31.8274211
  44.9250947  54.1592876  31.4156341  46.3619851  54.5073930  31.7399024
  48.1697165  61.2171463  16.8099784  48.5070955  62.0545916  17.1279334
  48.9123236  60.6173472  16.8807411  68.0912625  74.5017342  16.2702846
  68.0835496  74.7411541  15.3435420  67.3074209  74.9159364  16.6312026
  66.0466634  64.1253404  28.4025287  65.7769882  64.3632821  27.5154590
  65.3275858  63.5884599  28.7355708  64.6560679  29.4976753  20.1132774
  65.5262522  29.7620815  20.4117679  64.7939972  29.1867346  19.2185497
  81.6660402   2.7062363  51.2952613  80.9262941   2.3911947  50.7758808
  82.0962713   3.3505195  50.7330989  50.3761387  22.5941777  62.0372200
  50.4218197  23.1499362  62.8152132  49.4844532  22.7129245  61.7100668
  21.4609599   4.7771323  44.8821259  21.8846393   4.0319148  44.4562435
  21.2113094   4.4491315  45.7460260   1.3362829   1.5014499  23.2813167
   1.7414896   0.7482332  23.7110805   1.4463536   2.2202152  23.9038085
  51.1567783  51.1138678  68.7798882  51.0279560  51.3629389  69.6950912
  50.9425354  50.1813412  68.7530136  77.4891255  -0.3011399  15.7984542
  77.8268001   0.3529352  16.4103317  76.8384145   0.1706117  15.2785968
  46.3973093   6.6676295  32.4821091  46.0784149   7.2399926  31.7842984
  45.9051704   5.8545172  32.3686194  79.6785723  48.3849506  23.1076335
  80.4778229  48.8167248  23.4092903  79.2056738  49.0647546  22.6275634
  73.0861746  37.7469511   0.9735202  73.4983050  37.8726978   0.1187848
  72.9899966  36.7981551   1.0557842  45.2094746  32.6503539  42.0194912
  44.7823286  33.5069418  42.0135498  44.4893169  32.0241070  42.0931339
  18.2455719  22.5469995  47.8580475  18.3853257  21.6416764  47.5803947
  17.8285027  22.9666233  47.1055841  61.0674154  21.4263801  17.0668792
  60.9387051  21.7049674  17.9735469  60.6675516  20.5577521  17.0241546
  37.9172318  61.6280774  10.3779506  38.2636457  62.0664410   9.6007346
  38.6908196  61.4285711  10.9051990  64.8633086  66.4488987  22.8592872
  64.3113266  66.6588835  23.6125850  65.4524742  65.7648281  23.1773471
  74.1706429  29.8429817  15.3317832  73.8975344  29.4157022  14.5199489
  73.3709619  29.8963064  15.8551406  72.5659166   4.5228189   1.3245010
  71.9399116   4.2889780   2.0098256  73.2607315   4.9932140   1.7851495
  24.9674551   9.4093603  17.1067046  24.2664424   8.7619346  17.0315551
  24.5229761  10.2536339  17.0300292  62.7616130  76.6002158  16.9565009
  63.4126316  76.7075328  17.6499652  61.9481622  76.9296793  17.3385715
   1.3373141  63.1872896  10.9417343   0.8287625  62.6366834  10.3463840
   0.8996778  63.0930666  11.7877960  70.4342686  64.3636684  40.8926200
  71.3017260  64.7087959  40.6813526  69.8772179  64.6585254  40.1722144
  41.6047335  25.1153564  65.8619404  41.0237694  25.8731198  65.7948494
  42.2844172  25.3884649  66.4781237  48.3569860  54.4598770  67.3588610
  48.3749056  54.7463846  66.4457226  49.2441082  54.6238518  67.6787901
  24.1706634   2.4916504  40.2958345  23.7007856   2.8279531  39.5327187
  23.6185169   2.7290019  41.0408401  69.2537629  76.5569381  21.3131332
  69.4292485  76.8152575  22.2179603  69.1235815  77.3838596  20.8489322
  14.6574346   9.3641228  30.4968547  15.4956714   9.3558115  30.0347804
  14.7939054   8.7905020  31.2508869  32.5726717  74.7242932  12.8158473
  32.0301040  74.0202145  13.1709861  33.3217667  74.2751316  12.4242591
  37.6466703  49.2699623  61.6560364  37.4190235  49.6125221  62.5203657
  38.5943317  49.3891764  61.5931368  28.6442224   2.3291534   7.3273467
  27.9934970   2.4154085   8.0240154  28.8091461   3.2275289   7.0410776
  43.4979628  79.9909834  25.2588939  42.9602836  80.1652054  26.0314082
  43.4265529  80.7874493  24.7327899  73.2088505  67.0492772   4.9501180
  72.8144251  66.5588741   4.2288923  72.7272784  67.8762964   4.9690151
   4.1210453  16.9355053  11.0389804   4.0839783  16.5022177  10.1862668
   4.7047965  16.3858217  11.5617751  45.0769495  74.8186735  18.4983920
  45.5246233  75.6504301  18.3434772  45.1964592  74.3273453  17.6856517
  79.6836970  31.3690227  32.3124694  79.6376059  32.3103279  32.1449947
  78.9036486  31.1800760  32.8340625  77.3916279  55.9440223   6.1507415
  78.0952250  56.1122362   6.7775440  77.3751294  56.7228321   5.5944919
  31.9224381  31.3083100  61.6328812  32.2917819  31.9037580  60.9807634
  31.0616589  31.6761708  61.8328142  23.4862189  75.6781844  35.9081268
  23.0932622  74.8138265  35.7868480  23.6263900  76.0044221  35.0192165
  37.3057621  48.9639650   0.6867551  36.9645100  48.0793784   0.8182287
  37.4207305  49.0379767  -0.2606297   9.9677485  38.2945085  51.5109301
  10.2701873  39.1839290  51.6944742  10.5022544  37.7380776  52.0774221
  27.5239746   3.3238977   1.1472463  27.8785793   2.6547378   1.7326593
  27.8764049   3.0997843   0.2859687  31.7449903   8.4751898  60.5292034
  32.5590968   8.7283736  60.0940466  31.0543489   8.7714404  59.9363422
  37.2848858  55.3705464  59.3806028  36.6392912  55.6593643  58.7356091
  36.7631973  54.9975691  60.0912094  17.7347565  71.4637280  64.7102356
  17.6843166  71.0054684  65.5490971  16.8407512  71.7645836  64.5475340
  82.1385561  51.1006097  30.1184940  81.5031182  50.9276001  29.4238567
  82.7550732  51.7212502  29.7299766  13.6656515   7.6487774  22.4723911
  14.1497175   8.3715576  22.8717613  12.7450363   7.8750938  22.6046085
  60.6067610  42.8438616  62.1185875  61.0208893  42.4423170  62.8824568
  60.1147079  43.5838842  62.4742317  28.6986327  40.7673073  63.2158947
  29.3248272  40.4854965  63.8827515  27.9130912  40.2490520  63.3907318
  16.8073135  65.1411275   7.9017352  16.2310557  64.3769793   7.9171800
  17.6476579  64.8139171   8.2226562  73.8067376  68.8826708  -0.0203753
  73.8786637  69.8371200  -0.0295401  72.8715884  68.7140493   0.0949191
  76.1610053  38.2324928   5.0292968  75.5762968  38.2142299   4.2716598
  77.0408390  38.2462734   4.6525525  59.1870653  75.1449494  34.6420287
  59.3877207  74.5478729  33.9212894  59.3002449  76.0186724  34.2678260
  35.4030538  36.3112712  69.2348289  35.8815002  36.8680310  68.6205482
  34.9113345  35.7076550  68.6779690  51.7020522  63.7653808  34.5501136
  52.2236453  64.5476274  34.7297286  52.1605169  63.3318738  33.8303184
  43.7054491   4.8854035  62.5290155  43.5946465   4.2234087  61.8465805
  42.8164721   5.1859295  62.7177811  38.5845184  14.7237706  53.6082792
  37.6968193  15.0039196  53.3852625  38.4614539  14.0377784  54.2644072
  10.9413724  50.5336205  63.1957626  11.3081317  50.7048468  64.0631675
  10.6179433  49.6341066  63.2457733  56.1320650  76.1132459  19.6312904
  55.9604536  76.5582017  20.4612254  55.5285322  76.5221814  19.0110015
  40.4618143  61.6118507  29.4754314  40.9772276  61.0359601  28.9106941
  40.5668079  62.4817614  29.0901183  11.7508035  54.5679681   0.4547881
  12.6411777  54.6858601   0.7857942  11.7741447  54.9318830  -0.4302312
  76.4921891  39.5206374  25.8468437  77.0368277  39.0478043  25.2175330
  76.2246500  38.8545499  26.4800739  30.1254884  19.3026680  16.4421367
  29.8194543  19.9194235  17.1071147  29.8155490  19.6697801  15.6142520
  60.4181062  66.5629176  14.3775749  60.8285438  67.3982171  14.1538524
  60.1623975  66.1883334  13.5346507  12.7170078  20.0871366   0.1606654
  12.9209033  19.7437567  -0.7092477  12.6097242  19.3081993   0.7065343
   1.2036424  49.1204182   9.8387622   1.7661767  49.8704664  10.0316762
   0.4148536  49.2724703  10.3592729   3.8373169  13.9820492  66.7568541
   3.8637525  14.3116796  67.6551199   4.3181252  14.6347868  66.2479448
  55.5866109  60.3408007  22.5770568  55.3208958  61.2007813  22.9027271
  55.4010736  60.3723005  21.6385364  60.0825559  71.6965536  45.7158183
  60.0622546  70.7677941  45.9465217  59.5148860  71.7651252  44.9481773
  30.5796684  64.3498049  64.5553112  31.1656822  63.5955284  64.6176577
  30.5687297  64.5682261  63.6234283  41.2523102  55.7975249  40.4681968
  41.2319087  54.8405437  40.4666328  42.1582257  56.0181324  40.2516841
  48.9570808  73.1712866  68.7487936  48.8666248  72.5867653  67.9962063
  49.8621035  73.0524302  69.0369558   2.5531427  16.4517206  15.5892848
   3.4907738  16.5032524  15.4037475   2.2945205  15.5845970  15.2771282
  84.6552537   5.6820721   3.5312127  84.5381425   5.9695095   2.6257324
  85.5374358   5.9726948   3.7625646  58.7520539  60.5613522  27.5068664
  59.4753014  60.6829051  28.1219768  58.0388342  60.2126984  28.0416488
  83.2832048   2.2157282  35.6911373  82.5470469   2.2781986  35.0825214
  83.3792136   1.2776321  35.8554172  58.5726010  73.8078908  40.1516818
  59.4648420  74.0923766  40.3496837  58.1851374  74.5453552  39.6802425
  31.1718647  24.6826691  17.0024967  30.4343740  24.1045564  16.8072414
  30.9062902  25.5348104  16.6567230   3.0167309  20.6549114   1.0165643
   3.8579933  20.7169956   1.4689540   2.5462476  21.4471096   1.2759780
  72.3935782  74.5696692   3.2185315  72.1572529  74.7261290   4.1328048
  73.2492386  74.9866609   3.1175851   4.2079917  14.5763105   2.8254747
   3.3809654  15.0570577   2.8592729   4.8728148  15.2273458   3.0499696
  36.8996549   2.6353186  50.8813953  36.3539886   2.1172419  50.2897215
  36.6275620   2.3634058  51.7578983   1.7350631  78.1037144   7.8046131
   2.6764255  78.0228690   7.6512241   1.3327842  77.6062397   7.0926284
   7.5115768   1.5425867  15.2941989   8.0874125   2.1230024  15.7919597
   6.9641153   2.1338219  14.7775268  49.2490951  19.8851103  38.2671451
  49.3153516  19.6219391  37.3492240  49.6273462  19.1529745  38.7541198
  30.7479620  43.6072016  62.4855471  31.3016033  44.0515947  61.8434954
  29.8618531  43.9111137  62.2888851  38.5823671  50.7794231  15.4751109
  39.3768350  51.2122291  15.1624870  38.8883201  49.9451774  15.8310127
  49.8481523  68.8153533  40.8668899  50.6383168  68.6117033  40.3664970
  49.6826636  68.0273227  41.3844394  11.1283556  13.1009001  40.8587932
  11.9793264  12.6635259  40.8308791  11.1998073  13.7175888  41.5873622
  41.5019178   8.5513180  50.2096891  41.6179800   8.0567157  49.3984365
  42.0671177   9.3168968  50.1063919  43.9682476  14.7246355  13.5991287
  43.5693017  14.7810978  12.7308654  44.1306058  15.6346124  13.8477516
  43.5834114  37.2886843   8.6970567  44.4980804  37.1222204   8.9248752
  43.3998195  36.6790050   7.9823446  68.1715475  71.7618183  24.7856902
  67.6891838  70.9870819  24.4970130  67.5504862  72.2395567  25.3354930
   5.0856118  62.8070740  62.6947116   5.6857352  62.0635585  62.7518939
   5.6356292  63.5722737  62.8625869  18.3568799   5.0286573  44.1590595
  18.4222293   5.9536350  43.9216232  18.8969135   4.9443623  44.9448681
   7.7682082  17.4866003  37.4590396   7.9481522  17.5482792  36.5209293
   6.8399517  17.2587055  37.5103855  75.1347659   4.2171615  67.0177173
  75.2004550   4.9032921  67.6819038  74.8601649   3.4392971  67.5032615
  63.9157985   6.0584968   9.6326494  64.2728148   6.8679518   9.9981021
  64.5669601   5.7785028   8.9893627  30.6657020   8.7117904  27.4859523
  31.2155286   7.9931921  27.7982616  29.8429815   8.2920736  27.2345542
  51.4485256  13.3417696  33.3248233  50.7964996  12.6842588  33.0823898
  51.8131016  13.6366028  32.4903201  51.2370491  79.3586493  63.2258511
  51.6412973  79.8886108  62.5388622  51.9442940  78.7964678  63.5420513
  78.7446343  76.5169601  19.1079997  77.9590021  76.7372994  18.6075305
  79.2411028  75.9364371  18.5311603  71.7874466  49.1422621  10.7318019
  71.3147055  48.6330686  11.3901805  72.4721609  48.5514168  10.4182720
  15.4794780   9.7521967   7.1983241  15.5137245  10.4782099   7.8211927
  16.1526481   9.9604648   6.5504836   4.7728960  14.1629785  13.8492774
   5.0714962  14.8466724  14.4489669   5.2063195  14.3655533  13.0202102
  80.2151058  29.3145555  15.8390140  79.9576161  30.0674337  16.3710975
  79.4235895  29.0826267  15.3532695  33.4481239  29.4966745  65.9001493
  32.9267740  28.9135456  65.3484392  34.3150878  29.0916872  65.9244919
  81.7889450   1.9994253  46.9562244  81.1300419   2.6661152  47.1501445
  81.3267634   1.1679310  47.0622157  70.3637097  20.6812280  23.8488769
  69.9431668  19.8420852  24.0365314  71.0439537  20.4704899  23.2092761
  12.6147180  75.1180104  41.3544273  12.3213868  74.2663078  41.0307121
  13.3390432  75.3574661  40.7762813  73.1655728  70.9951214  24.7843837
  73.3037745  70.9907202  23.8372230  72.3115670  71.4117316  24.8998927
  49.4571864  62.7875499  14.3486595  48.5946142  62.3748020  14.3057346
  49.8442232  62.6235918  13.4886836  59.1928338  31.1515135  56.5663909
  58.5835181  31.8025678  56.9143771  59.3892024  30.5845350  57.3121833
  76.2049090  69.1310362  18.9424037  76.5971171  69.6405319  19.6514987
  76.8499504  69.1674809  18.2361316  50.6619679  61.6229753  49.9381446
  50.3381335  61.2542538  49.1163158  51.6038572  61.7238907  49.8006915
  79.0648924  56.4652340  33.6155223  79.3508421  55.7335405  34.1624069
  78.1326376  56.3048605  33.4691810  69.1223431  25.6569171  69.0086126
  68.2937622  26.1145687  68.8663435  68.9397097  24.7494960  68.7647629
  46.9989387  63.2496399   0.3068399  46.7577402  63.7201732   1.1047458
  47.1766845  63.9388508  -0.3331900  79.9650490  61.4501095  67.6616716
  80.8230540  61.4106464  67.2391796  79.3588591  61.6661167  66.9530773
   7.7541558  24.8513407   5.4822110   7.8879420  25.7913154   5.3606366
   8.3676020  24.6098894   6.1761951  70.0841891  79.5306186  23.6246204
  70.4195200  79.5719771  22.7290344  69.2774474  80.0452999  23.6023139
  -0.1330644  43.3184671  61.0399055  -0.1509267  42.4073315  60.7470894
   0.7726401  43.4645700  61.3129997  35.9966837  67.7411536  30.8923625
  35.2084540  68.2108549  31.1649513  36.7116182  68.1922177  31.3414096
  36.2768626  71.9491434  52.6354027  36.7922306  71.3032055  52.1522999
  35.7945108  72.4249315  51.9592381  67.0249807  76.9983844   4.2042541
  66.3294517  76.9199137   4.8571824  66.5883767  76.8344979   3.3683395
  15.6346374  54.4143693  18.6817836  16.2379794  54.0670935  18.0248164
  16.1757617  54.5400194  19.4612884  63.8087546  79.3841676   5.4753637
  64.1915022  78.5622243   5.7821893  64.4763719  80.0439815   5.6628942
  24.2251468  56.0083532  38.8661933  25.0870180  55.9083366  39.2704272
  24.2206240  55.3719330  38.1512237  46.4428568  68.7509298  60.8525562
  46.8515253  68.2682991  61.5710878  47.1772957  69.1354609  60.3740597
   7.5833503   3.0100721   2.2736024   7.1617333   2.1829552   2.5067376
   7.0034687   3.3981460   1.6183423   6.5081159   8.6646026  15.1762580
   6.2204281   7.7678722  15.0049495   6.2128679   8.8444609  16.0688495
  23.4569167  71.4980034  20.0871276  22.7360933  70.9420590  20.3830528
  23.9052915  70.9751968  19.4223976  50.0882970  63.6642007  29.6763706
  50.8687602  64.1246823  29.3680477  50.3584753  63.2607249  30.5012607
   6.8038612  28.3348874  45.0083351   6.6655069  29.0800051  44.4236183
   6.9789224  27.5992111  44.4215011  23.8337867  69.8615555  29.7630309
  22.9784130  69.5915345  30.0971793  23.8955276  70.7904677  29.9856185
   9.3480926  57.7559690  16.2017249   9.2609983  58.0469231  17.1094703
   9.9270778  58.4022407  15.7975673  37.9766774  25.7714510  53.3191633
  38.7760162  26.1394596  52.9425192  37.5030494  25.4103160  52.5698376
  35.2918100  40.8299923  63.0792141  35.9147048  40.1632166  62.7900076
  34.7950339  41.0513926  62.2915411  24.7669069  23.0318159  17.1054458
  24.4819299  23.4550995  17.9152965  24.5174781  22.1141142  17.2142410
  39.3523097   8.0035990  60.3748894  39.8566484   8.4221351  61.0725307
  39.0729427   7.1681863  60.7494211  20.9776855  38.1879902  60.5059814
  20.9810376  38.1868172  59.5487881  20.7803512  39.0939617  60.7436943
   6.4156715   4.1842979  10.9214973   6.6591732   4.3245977  10.0064849
   6.5127460   5.0445885  11.3297939  66.0756198  19.5544666  18.5084438
  66.1408035  19.5691913  17.5535774  65.8540431  20.4545158  18.7472915
  32.5327897  11.3023126  55.5648184  32.1097875  11.6676736  56.3418722
  33.4009123  11.0359883  55.8675814  47.3842029  16.6587681   9.6920204
  46.5203617  16.2570900   9.7851037  47.9073260  16.2665123  10.3910970
   9.2627609  32.8738189  63.5235500   9.2695689  33.6867523  63.0182505
   8.4884059  32.4049401  63.2124901  83.7100111  61.7807512  32.3985767
  84.0813719  62.0081643  33.2509803  83.0103051  61.1594705  32.6002025
   1.4326196  48.8346986  25.2446651   2.1091895  48.8830618  25.9200477
   1.8315940  48.3211182  24.5423221  62.4751965  39.8343986   4.8855495
  62.3723046  40.3928322   4.1149663  63.4165249  39.8368019   5.0591230
   7.7282039  14.8925966  14.4601344   7.9340855  14.1198009  14.9860954
   7.6100031  15.5938429  15.1008510   9.1935401  75.7985143   1.6700601
   9.9406247  76.3512854   1.4408492   8.5561996  76.4029054   2.0505094
  57.1353446  75.6745128  36.6178798  57.7829682  75.1176862  36.1857223
  56.4855324  75.8571915  35.9391975  48.4093904  10.9828198  38.8523483
  47.6497078  11.3190472  39.3278122  48.5143614  10.0865793  39.1716695
   1.4077107   3.1136841  27.6912402   1.8309943   3.5307306  28.4416580
   0.8048383   2.4790138  28.0784988  78.6820971  52.5108914  27.4139785
  79.6165310  52.3298697  27.3125076  78.5702216  52.6750175  28.3503341
  44.6477603  73.3159570   3.6312579  43.9619850  73.1184725   4.2691802
  44.9069892  74.2158870   3.8291454  72.6425884  12.9686445   3.7815904
  72.2115932  13.4219688   3.0570411  72.3050092  12.0739597   3.7390470
  74.6099173  67.6170639   7.9978990  74.2832981  66.7191414   8.0552339
  73.9943205  68.1297568   8.5217523  53.3092165  42.9666996  63.0412626
  52.9886913  43.2960272  63.8809299  52.6755285  43.2885361  62.4000978
   2.2522979  54.0537194  19.4005107   1.4901214  54.2188815  19.9555301
   2.7286058  53.3552436  19.8493957  49.4001579  37.0717573  60.5032778
  49.9842548  37.8237033  60.6014776  49.9056911  36.3306022  60.8369827
  35.0866084  57.3175983  26.6226959  34.5798068  56.7722933  27.2243881
  35.3941302  58.0466191  27.1613883  82.0126521  75.4216913  20.2079486
  81.0893618  75.4512386  20.4587364  82.2458969  76.3355951  20.0448131
  39.7314977  78.7610034   8.9531802  40.0604116  78.9067725   9.8401975
  40.2115594  77.9932241   8.6428785  80.7204472  43.3629490  21.1780071
  80.9800516  44.2696963  21.3412380  80.8356797  42.9252795  22.0214557
  51.6316091  73.4144596   5.7998323  50.9900652  72.7435283   5.5663728
  51.1159192  74.1034846   6.2188005  30.5739760  52.4608040  63.9636755
  29.9601531  52.7631807  64.6330214  31.0702157  53.2430935  63.7228394
  12.3214666   6.6679663  19.3515205  11.6705696   6.1268562  19.7984790
  12.6195613   6.1282820  18.6193275  10.0556628   6.7714876  29.2314338
  10.0084487   6.9611114  30.1684760   9.1420809   6.6948360  28.9562511
  38.5674356  78.9037899   6.5657758  38.8780438  79.0315680   7.4621200
  38.8617503  79.6845512   6.0967111   7.2128028   5.3087062  47.7282715
   7.0012206   5.6711960  46.8680000   7.9846686   4.7636825  47.5752783
  15.4080629  34.8435664  66.0482550  14.8991954  35.0297403  65.2591848
  14.9061525  34.1670752  66.5028715  38.0881095  35.4806256  60.5691719
  38.7407684  35.6792808  61.2405920  37.8896260  36.3276935  60.1700306
  44.7200918  60.6577253  67.5293159  45.6303453  60.8817673  67.3357344
  44.7057152  60.5098581  68.4749174  26.7776060   2.1218856  67.5408125
  27.4682283   1.4629868  67.6123953  26.0283661   1.7336011  67.9925966
  46.0818911  58.0744028  64.8033762  46.7047596  57.6843691  64.1900730
  46.6297293  58.4956551  65.4656792  55.2417861  80.1735620  36.8594932
  54.7879874  79.3396191  36.9812965  55.3381072  80.5253128  37.7444934
  77.7879856   0.6691068   3.4354925  78.5084913   1.2942118   3.5151624
  77.8696678   0.1097578   4.2079496  73.2543217  41.3456549   3.0447292
  72.9841553  41.2035092   3.9519452  73.6784827  40.5262610   2.7899503
  26.9292665  42.0497131  59.6961832  26.6342306  42.1689701  58.7934303
  27.2212148  41.1389208  59.7344065  47.5099182  48.0535126  67.4568748
  47.9315472  48.0405807  66.5976381  47.9497433  48.7606192  67.9288769
  30.5894176  10.2422804   4.6087789  30.7143728   9.7155947   3.8193368
  30.5655471   9.6037048   5.3214406  31.7010760  17.3198533  61.8137217
  31.1779332  16.8671286  61.1522150  31.1745477  17.2690248  62.6114798
   1.0284297  26.4948028   5.4851817   0.8054821  27.3247045   5.0635337
   1.6210119  26.0645622   4.8687648   4.4335450  64.0678606  40.0000143
   5.1831640  63.4730504  39.9775362   4.3571938  64.3223212  40.9196043
  41.7803192  28.0345273  46.2321615  41.0402727  27.6178288  46.6736698
  42.2072744  28.5508108  46.9158220   6.0864965  13.3485931   0.3745221
   5.4069845  13.0349630  -0.2222396   5.6343762  13.4707111   1.2093305
  51.3849770  56.5585498   6.0869407  51.4364158  57.1144728   6.8644571
  50.4503476  56.3813786   5.9805869  23.3192245  11.5858501  17.7718162
  22.9365102  10.9759992  18.4025668  22.6913015  12.3067468  17.7243518
  11.4911913  47.6409165  31.2212848  11.3109242  47.9723410  30.3415775
  10.9398137  46.8626151  31.3016605  32.6593439  14.3476194  15.6496715
  32.8428880  15.1978678  16.0491943  32.3647872  13.7997145  16.3771724
  71.3736616  41.5943336  13.3160209  71.4155470  41.0856103  12.5062751
  71.2718045  42.5003989  13.0246353  42.2979212  48.6605406  68.3218098
  42.1957922  49.1564274  67.5094700  43.0782509  49.0324211  68.7329388
  41.9226885  60.1057768  66.7192936  41.8136549  59.3557501  66.1346531
  42.8688192  60.1740980  66.8473339   4.2194358  24.2621845  16.1183833
   3.6959282  24.8125357  15.5358981   4.0448085  24.6065182  16.9942664
   1.4309660  62.1269935  37.4029731   2.0728556  61.4285892  37.2747897
   1.3014738  62.1622986  38.3507156  37.8546476  59.1343832  63.8131189
  37.3203945  59.5936298  63.1651211  38.1470919  58.3413982  63.3638096
  58.1637955  54.2796183  52.5494194  58.5692883  55.1366091  52.4176121
  57.4617720  54.2443371  51.8996906  74.7353671  24.7165865   2.0590972
  74.5573745  25.5437416   2.5067186  75.5948029  24.8420709   1.6567849
  79.9865532  31.7370629  63.6441517  80.1986122  30.8048415  63.5969734
  80.0732327  32.0483088  62.7431297  57.3915302  70.8600120  63.6138057
  57.7300631  71.0516242  64.4884013  56.4413773  70.9337095  63.7033080
  42.6261989  28.7069601  11.4869403  41.8239871  28.9992088  11.0541820
  42.3222438  28.2458824  12.2687625  30.0511686  34.6034187  10.7559490
  29.8067466  34.8295826   9.8585367  29.2252056  34.6159881  11.2395477
   1.4462081   3.3257049   5.1578616   2.3008148   3.3483881   4.7273254
   1.6224233   2.9497856   6.0203409  82.5508020  53.6061615   2.5423002
  81.6215847  53.4902901   2.7407026  82.9738281  52.8334469   2.9167222
  16.8722288  10.2893919  16.7215061  17.1665946  11.1717552  16.4956378
  15.9279577  10.3777450  16.8510341  42.7350322  15.7688946  35.6957626
  42.9293672  15.9882492  34.7845268  43.5057537  16.0615343  36.1821651
  42.9526845  12.3730272  17.0775985  43.7732402  12.8447765  16.9348430
  43.2221738  11.5252107  17.4308872  60.0186859  57.6798073   7.7356529
  59.7841703  58.4036926   8.3163595  60.5591546  58.0831365   7.0563506
  77.1894108  45.5674766   4.6852302  76.8724190  44.7208262   4.9997663
  78.0834471  45.6285260   5.0216817  24.6450559   4.1473907   8.6138343
  24.7936956   5.0924820   8.6444711  25.4794685   3.7647814   8.8851261
  78.5735653  20.0006956   3.8022708  79.2562101  20.5975336   4.1088867
  78.6579464  19.2309755   4.3649816  43.0046082  76.8649197  65.8114672
  42.1606445  76.7384291  65.3779316  43.4691620  76.0388899  65.6769514
  59.8150765  60.0405935  36.5094184  60.5355584  60.6537131  36.3637351
  59.0252720  60.5555228  36.3442325  61.4411974  32.5150466  55.6616879
  61.3251591  32.4002886  54.7184992  60.8330250  31.8896365  56.0556698
  44.1298078  62.1200351  40.8130740  44.8517715  61.7390613  40.3132152
  44.3871271  63.0320291  40.9482955  82.9827963  69.4610600   0.4768895
  82.6017414  69.2758421   1.3352155  83.5292994  70.2339248   0.6191825
  11.6392795  53.8242096  20.0094032  11.4475147  54.4507164  19.3115901
  11.3677804  54.2692894  20.8121585  46.7230836   1.7151111  21.4412784
  45.7855646   1.5511602  21.5433311  47.1358291   1.1704391  22.1115112
   6.3312880   2.3603481  57.8182315   6.4750711   2.0900196  56.9113254
   7.0689312   2.9374212  58.0159568  45.2924728  65.7094526  64.7242975
  45.8294439  65.7370806  63.9323759  44.9869347  64.8037434  64.7750235
  71.6760049  23.3598083   6.4886998  72.3731933  23.9051193   6.8531131
  71.6624472  23.5792822   5.5570983  12.5292627   4.8190206  17.4461555
  13.3835355   4.9047464  17.0229625  12.1874849   3.9831823  17.1286773
  83.2586682  73.4923506  68.2793093  83.7225431  74.3003178  68.0596685
  82.4801722  73.7844610  68.7534904   6.2331378  49.3568182  57.7043056
   6.4929253  49.6498442  58.5777330   5.9981251  48.4362316  57.8205681
  32.9851905   2.8472036   1.4617729  32.8198091   3.7441772   1.1713933
  32.5877277   2.7998108   2.3312568  65.6033230  69.8156929  60.2567148
  65.5459690  70.6473684  59.7863340  66.4659643  69.8339081  60.6711340
  44.3439913  63.1488419  64.2120934  43.7240219  62.9569578  63.5084915
  44.4488287  62.3162746  64.6726084  12.2395889   1.6935629   4.9145841
  11.5737859   1.6733545   5.6019925  11.7824928   2.0406574   4.1485404
  62.5777685  68.4463648   7.1648406  61.7574607  68.9076356   6.9900321
  63.2564269  69.1105084   7.0441388  83.1723593  15.6682772  24.3224525
  83.5643051  15.7777447  23.4560680  83.9189384  15.6344265  24.9205398
  42.5480548  25.6289667  21.3316535  42.7921430  25.0099462  22.0197391
  43.2939235  25.6265873  20.7317352  18.3652297  17.8842682  12.7411174
  18.7658302  17.1200937  13.1555843  18.1927434  17.6060051  11.8416404
  41.5270947  71.6279368  29.9513339  41.8577253  72.5176171  30.0753497
  40.5782973  71.7093400  30.0482272  30.4016725   7.5350374   9.3785714
  31.1945669   7.0792574   9.0960502  30.6473676   8.4601301   9.3871879
  69.2637036   3.1861013  11.9912242  69.2287956   2.5931400  11.2406158
  68.4409867   3.6735958  11.9498062   2.4967448  35.0455135  14.1997718
   1.8341056  35.6456465  13.8577365   2.1678058  34.1742414  13.9785957
  25.8467571  32.5186676  30.7978439  25.1434700  31.8706030  30.7573890
  25.9753028  32.6745170  31.7334842  56.0110747  71.4515642  21.7759227
  55.9518610  72.2267846  21.2175655  56.4271675  70.7897619  21.2235450
   1.3499456  50.2117447  57.2492694   2.1430831  50.1350085  56.7189216
   1.5424304  49.7108201  58.0418968   4.9151865   1.9051784  11.3455104
   5.5257074   2.5501055  10.9883403   4.9683706   2.0244974  12.2937488
  10.7538146  49.6884394  51.3201380  10.6848258  50.3642845  50.6458187
  11.2495726  50.1038408  52.0257521  27.8805248  32.4724191  23.4881305
  28.3050529  32.3405594  24.3358421  28.1484024  33.3514637  23.2202625
  34.7350637  10.1061052  10.2970361  35.3747789  10.2579111  10.9926986
  34.1139928  10.8296341  10.3807067  28.9914361   5.2867025  21.8630504
  28.6747018   6.1484665  21.5923595  29.9088422   5.4307455  22.0951080
  18.0130661  45.4167461  43.6434317  18.5677361  44.8029232  43.1619835
  18.6295676  45.9942389  44.0936041   6.7111701  48.0495453  44.0601492
   5.8810824  48.0402803  44.5367002   7.2402972  48.7058640  44.5134830
  10.6862121  71.3449458   7.5320958  11.2857919  71.4363412   8.2726240
  11.0838990  70.6684212   6.9840097  25.4075710   0.6743091   7.5224733
  24.6084062   0.8972114   7.9998445  26.0458938   0.4704660   8.2060098
  60.3030205  52.3339224  53.1783915  59.8081160  53.1046343  52.9003668
  60.5255270  51.8850994  52.3627472  41.2517206  15.5452055  48.6739158
  41.3842288  14.8240703  49.2892455  40.3348962  15.4691070  48.4095764
   3.1396739  10.8859247  13.9428806   3.0636970  10.3103346  14.7039031
   4.0554658  10.8093399  13.6751270  45.5753271  21.2739366  51.7217922
  44.6629755  20.9843963  51.7252254  45.6922952  21.7072052  52.5672721
   8.5962348  60.8554606  34.5489406   9.1539769  60.8709363  33.7711715
   9.1146760  61.2930540  35.2241897  80.8552096  19.0523189  17.7640151
  81.2397025  18.4118456  17.1655177  80.1213000  18.5906881  18.1696033
   8.2698695   0.3426784  56.1656856   8.6299459   0.8892196  55.4672050
   7.6849023  -0.2667338  55.7154941  59.4499824  25.3703350   5.6005859
  60.0182457  25.2729744   4.8365020  59.8260123  26.1041206   6.0867929
  75.5143963  52.7686505  10.3393411  75.4498516  51.8156938  10.4021167
  76.1397492  53.0118457  11.0219955  67.3352192   9.7189277   8.1140565
  66.9112656  10.5506176   8.3256769  67.1766863   9.6007675   7.1775007
  25.3961269   7.3781294  27.8104495  25.1527730   6.8210310  27.0710944
  25.9198991   8.0781216  27.4206924   1.1042457  72.9520945  26.9858264
   1.7796378  72.9141406  26.3086032   1.5831189  72.8462962  27.8078555
  36.4630119   1.3842911  12.9479694  35.9918300   0.6407636  13.3239745
  36.2149517   2.1277374  13.4975051  12.8920881  22.6835960  10.0139331
  12.3390190  23.4191412  10.2772188  12.2991745  21.9323486   9.9964380
  33.4796428  69.2633514  47.3903655  32.9127439  68.4966187  47.3068237
  33.9320247  69.1370086  48.2244014  32.7025223  65.1371384  69.4604063
  33.6431861  65.0706005  69.6245956  32.6060104  64.9265051  68.5316706
  59.6125309  45.6550068   5.8977079  60.5501930  45.4760021   5.8271551
  59.3246070  45.7837623   4.9939632  57.1034431  40.9259987  61.6463089
  57.5163841  41.3216734  60.8787441  57.7434397  41.0412264  62.3487043
  83.3583186   5.0246185  18.9483928  83.6598418   5.9303993  18.8785457
  83.0317137   4.9493688  19.8449897   9.3689982  20.3890795   2.0060109
   9.3060891  20.7604927   1.1260557  10.0994483  19.7726530   1.9541454
   4.8177973  16.7765802  33.9143180   4.6476141  16.0754103  33.2853221
   5.7720391  16.8459648  33.9432716  58.7786399  60.0454442  51.0522746
  58.3004199  59.7814016  50.2662563  59.1049253  60.9224753  50.8508109
  27.5138513   4.4846767  30.8170699  28.1015388   4.8469013  30.1540088
  27.8280298   3.5907787  30.9529590  81.3300727  19.5664924   0.7763004
  80.7073186  20.2582926   0.5530929  81.3742087  19.5832914   1.7323350
  31.8101255  28.0496782  15.2155399  31.1649791  27.3590702  15.0636291
  31.6128484  28.3725303  16.0947894  38.4216266  78.2340507  31.8167304
  38.5551696  77.7598957  30.9960174  39.1789584  78.0011992  32.3538207
   5.3521210  52.9531050  69.1862345   6.0316670  53.1593990  69.8280239
   4.6555215  52.5425959  69.6985435  19.2044631  38.1961197  14.9656295
  19.3398468  37.3932165  15.4688739  19.1410486  37.9015297  14.0571021
   2.8096215  47.3583454  31.6361427   2.9945604  46.4695782  31.3326263
   3.6254374  47.6461452  32.0458316  73.9187489  25.4663462  15.4975223
  74.8262427  25.5700010  15.7837772  73.5097907  24.9392980  16.1839675
  60.9248161  72.4287081  64.8053026  61.8287516  72.2944832  64.5204973
  60.5347967  72.9687023  64.1179037  41.7567730  49.4221401  65.7902431
  42.6930571  49.5013380  65.6076717  41.3457441  50.0717211  65.2198696
  38.8992476  56.4825773  42.3173475  38.2397652  55.8557510  42.0200253
  39.6550679  56.3209724  41.7526817  25.2898828   6.8004459   9.1476821
  25.9860221   6.7019934   9.7972440  25.3354780   7.7198261   8.8852166
   9.8401515   8.1567806  10.9453105  10.5627910   8.7786669  10.8599758
   9.4286911   8.3807939  11.7800330  22.3860836  43.0370092  67.2718906
  23.1407547  42.4796963  67.0818663  22.3815489  43.6830568  66.5656090
  32.5800125   5.6418365   1.2069034  33.5350362   5.6541675   1.2702417
  32.3711196   6.3510317   0.5989265   2.0465427  71.3146166  41.3185024
   1.6624885  70.4798989  41.5867996   2.8667741  71.3694934  41.8088531
  37.9813377   8.1889385   5.2716493  38.7997047   8.4535831   4.8515653
  38.2543842   7.7886528   6.0971498  56.7573977  48.3240843  43.1212854
  56.3624191  47.4540758  43.1787872  56.7917585  48.6318636  44.0269995
  77.1069098  28.9463520  57.8330278  76.5086937  29.6522188  57.5878286
  77.9102516  29.1337085  57.3474598   8.4946934  35.5518860  34.2132377
   9.3249933  36.0207170  34.1293811   7.8479306  36.2378830  34.3785858
  71.1267315  74.2697291  21.6945457  70.4003798  73.8049583  22.1100330
  70.7130896  75.0046138  21.2416934  13.7061206   5.2034801   5.1635026
  14.2404024   4.4984001   4.7979402  14.3409530   5.8247179   5.5202627
  28.1055681  34.2767423  12.6603126  27.2547761  33.8385624  12.6800060
  28.6198036  33.8317627  13.3339500  11.2426297  20.5563444   9.8203277
  11.9621269  19.9525637  10.0047349  10.5986086  20.0254673   9.3516731
  11.7462532  45.1686519  28.3584403  12.1227876  45.9671444  27.9884815
  12.4730245  44.7543567  28.8236236  84.5997927  12.3681158   4.1924619
  83.8714812  12.5318426   3.5933065  84.9449823  11.5169853   3.9229249
  62.1851837  77.1684150  34.0215968  62.1209060  77.1403436  34.9762248
  63.1175100  77.0489315  33.8407039  49.3887102  71.1852650  66.9947433
  49.0711771  70.6517653  66.2661933  50.0854050  70.6609873  67.3896884
  79.8596499  12.5294918  17.5469493  79.8730347  11.6897482  18.0061721
  80.5285857  12.4418348  16.8679237  67.0960198  26.2131685  20.7373332
  66.6356418  26.3881248  19.9165630  68.0185364  26.1593384  20.4877376
   5.6857006   2.4576515  26.8572711   5.4051939   2.1427196  25.9979915
   6.1112586   3.2960695  26.6778659  40.2066700  26.4493746  48.9993286
  40.1744691  25.7792896  49.6821021  39.4776336  26.2338919  48.4176921
  40.0272838  34.7416967   6.2269258  39.1449777  35.0816530   6.3759231
  39.9298660  33.7909788   6.2805652   8.1393516  15.4991817  39.3820548
   8.0407953  16.3529348  38.9605975   7.2815144  15.3221858  39.7680855
  23.0005336  43.4581089  58.8700962  22.1496344  43.3951950  59.3039703
  22.8191543  43.9232874  58.0534315  14.3785243  79.7483162  31.2082862
  13.6513763  80.2433685  30.8309173  14.1995959  78.8392142  30.9679794
  59.9280821  68.4266452   6.3772058  59.6727311  67.5786547   6.7404413
  59.6402274  68.3929185   5.4649400  58.2650661  49.4496489  59.3885756
  59.1739941  49.2477036  59.1665506  57.8322506  49.5666599  58.5428762
  36.2701631  76.9219971  63.3227634  36.0116553  76.8267250  62.4060726
  36.5579057  76.0468483  63.5826731  40.0794744  60.9310007  63.6414909
  40.7624388  60.4545450  63.1694937  39.3957400  60.2791548  63.7958813
  66.2643957  44.2485237  68.0054998  65.6005096  44.2526484  68.6950445
  65.9182167  43.6502934  67.3432970  49.9488393  27.0891327   1.3557147
  49.1182224  27.2138304   1.8147897  50.2661792  26.2393469   1.6613244
  57.7163172  47.7980995  67.5704479  57.7195215  47.2381830  68.3467960
  58.2032967  48.5782719  67.8358126  14.5692340  14.7830480  50.5697059
  14.6558563  14.7046036  51.5197467  13.7773887  15.3058714  50.4437637
  27.4526418  58.7674205  22.1762466  27.4025336  58.0633895  21.5296649
  27.4717301  58.3164791  23.0203533  82.3893642  52.1192741  64.2101717
  82.3465347  51.4204788  64.8629236  81.6927242  52.7254295  64.4621563
   8.9752054  76.4682007  63.8930178   8.6905462  75.6712818  63.4456682
   9.1299945  76.1932945  64.7967339   6.9964782  14.6362013  28.5203933
   7.5315849  13.8673061  28.3236884   7.4316017  15.0459141  29.2680740
  61.5525185  77.7751950   4.3524646  62.1503221  78.5136227   4.4690418
  60.6968748  78.1163339   4.6127080  34.8265934  76.2369537  55.5379915
  34.3511415  76.4606094  54.7378922  35.7099414  76.0209274  55.2392197
  14.3119279  20.0261968  24.5505046  13.6160461  20.4784626  25.0274085
  14.6556942  20.6847423  23.9468669  16.5638248  21.2103552  18.3599948
  16.0643999  20.8868831  19.1097736  16.0281126  21.9187349  18.0029964
  44.0474264  23.9385265   6.8776368  43.8877336  23.2786220   7.5523662
  43.2808868  24.5105261   6.9158696  62.9075943  68.6064128  35.8130168
  62.1780907  69.2254094  35.8430576  63.0306159  68.3368568  36.7232036
  58.3078948  20.7064051   8.0879735  57.8062145  21.4344543   7.7212381
  57.8219310  19.9245447   7.8257322  34.9532978  12.0534605  33.4684753
  35.7280771  11.6515249  33.0755424  34.4524566  11.3165230  33.8182067
  41.3594333  14.3871301  15.8028888  42.1104709  14.9801296  15.7799053
  41.6196195  13.6945337  16.4102172  44.6731281  37.4739051  66.1125565
  44.6261120  38.3227277  66.5524673  43.7645435  37.2668219  65.8938694
  58.3509027  59.4228236  53.7487029  57.5465690  59.9416737  53.7572955
  58.6631214  59.4799368  52.8456592  29.0037370  40.7010984  57.5827742
  29.7999597  41.0287809  57.1645784  29.1238713  40.8957434  58.5122395
   3.4572855   6.3370413   0.1697540   3.3974496   5.9004682   1.0194921
   3.4223763   5.6245893  -0.4685450  46.1699200  68.2498217  54.6759892
  47.0088673  67.9822159  55.0512075  45.9616518  69.0730381  55.1177692
  27.6338283   7.6158279  34.6986484  27.5800697   7.3230928  35.6083965
  26.8770496   8.1912178  34.5870685  57.3984424  26.8167871   7.4126720
  58.1832878  26.9414896   6.8791007  57.4659721  27.4824041   8.0972385
  66.5253305  73.0498600  57.8355646  66.2642336  72.8835630  58.7413311
  66.7331505  72.1843767  57.4834585  84.0073477  74.5167045  21.9784545
  84.7313200  75.1259331  21.8337535  83.2952296  74.8581676  21.4376067
  78.4475790  68.6905913  23.9161681  79.1161381  69.1851334  23.4421539
  78.9417588  68.0539731  24.4326400  59.9535905  75.3667096   8.5029411
  60.7498108  74.9491481   8.8314342  59.6720730  74.8086433   7.7780008
  67.9410172  54.5475674  65.4315996  67.9540014  53.5915089  65.4765272
  68.3399868  54.8314333  66.2540817  22.2917962  50.8672714  65.5341578
  21.5829897  51.0411549  66.1535072  22.4579310  49.9283123  65.6177425
   4.1762630   1.2665171  30.4428672   4.9879281   1.7738766  30.4472923
   4.3757740   0.4908985  30.9671211  51.5076577  52.1843700  14.6132945
  51.8563591  51.9835703  13.7447833  51.1854636  53.0827467  14.5402049
  10.1119057  28.0326599   6.1195802  10.1004330  28.8385576   6.6359424
   9.1925017  27.8704161   5.9083843  28.3779287  24.2838407  53.4891462
  27.7972245  23.7991619  52.9025459  29.0454745  24.6551752  52.9123259
  65.2993523  77.2851233  35.3768920  65.5904209  77.9050783  36.0455894
  65.1317750  77.8262452  34.6053123  30.1161949  14.6934694  14.0633964
  30.5166379  15.5604643  14.1281890  30.7494537  14.1057533  14.4754695
   0.9807292  17.5830120  40.1999091   1.2966410  17.7196783  39.3067359
   0.7719819  18.4616417  40.5171966  15.5304853  26.3624233   5.4765462
  15.4030506  27.3106378   5.4468679  15.6860343  26.1130327   4.5655917
  79.2789160  54.0181915  22.5620078  78.7051474  53.8095705  21.8247890
  78.9703213  53.4556750  23.2723426  44.6376705  44.7891140  66.3718748
  44.5235252  43.9566422  65.9134054  44.1137505  45.4130554  65.8694458
  30.0279991  44.1675323  23.3391189  30.7431690  44.8031372  23.3113670
  29.3468086  44.5959228  23.8574695   0.7938091  36.3775104  17.8711604
   0.8078019  36.2511009  18.8198757   0.1058523  35.7885641  17.5611781
  77.8316545  23.2003021  65.7667589  77.9166794  23.8950133  65.1137829
  78.4771109  22.5441790  65.5038500  17.5528614  13.1318706  16.1877059
  17.6025383  14.0224165  15.8403015  18.2941619  12.6770967  15.7878494
  49.5773593   2.2956985   3.3500718  50.0330678   2.7802748   2.6617765
  48.9918987   1.7032331   2.8784227  17.6861989  68.2234097  64.4254446
  18.2023442  68.5263586  63.6784172  16.9176221  67.8090286  64.0332556
  11.7648880  17.0308918   9.6103143  12.1024744  16.9131082   8.7224006
  12.4134914  17.5875038  10.0412797  38.0978481  43.6692566  37.7594470
  38.9010660  43.3783764  37.3276424  37.8057949  42.9075760  38.2602214
  60.3454716  25.0692314  27.7041911  59.7029723  25.4597515  27.1118068
  60.3406889  25.6399483  28.4726238  38.3647624  29.9517864  27.6643371
  39.1502468  29.8695177  28.2051467  37.6692001  29.5576233  28.1906986
  53.2757807  49.8225641  64.0818977  53.0257463  49.3436956  64.8720837
  54.1977787  49.6018982  63.9497805  51.4610616   3.4290260   8.3653354
  52.0871536   3.5176271   9.0839338  50.6401578   3.7711185   8.7193488
  77.2670746  58.0830288  65.2443981  76.4561653  58.5703945  65.0990343
  77.0624924  57.4871731  65.9650469   9.7293750   3.9385122   5.5645084
   9.0387908   4.4774956   5.1787328  10.0411979   3.3948511   4.8410177
  42.1972095  80.1431898  16.9597434  42.5770794  79.6167926  16.2563037
  41.5346753  80.6806568  16.5256881   0.5414764  30.0357336  45.1167392
   0.2111546  30.8933967  45.3841972   1.2062375  29.8204416  45.7709312
   7.3929755   4.9027342   4.5937919   7.3643152   5.7300228   4.1131591
   6.9751016   4.2710728   4.0084552  41.0968768  63.6340026  40.3212547
  40.3458570  63.3339814  39.8092079  41.1779426  62.9917816  41.0263824
  16.0369627  25.4482406   2.8955697  16.7376510  26.0948175   2.8106880
  16.0478298  24.9728292   2.0648479  80.3209340  77.0174507  30.3343105
  80.2476727  77.7167014  30.9838485  79.4666468  76.5859417  30.3495311
  19.4958107  11.2892813  20.8064365  18.7223999  10.8026165  21.0914325
  19.1433517  12.0505089  20.3454208  24.4768087  17.5045818  16.4272785
  25.3779117  17.1836037  16.3923835  24.0562860  16.9654507  17.0971488
  46.4316217  28.8061327   0.8387565  45.7762090  29.4038719   0.4790735
  46.9065372  28.4826654   0.0732135  24.6332590  26.7685312  10.5231857
  23.9489595  27.1605629   9.9807166  24.7396842  25.8842605  10.1725196
   7.7516214   4.9332899  14.5154476   8.4791819   5.2878565  15.0264930
   6.9805376   5.3957743  14.8437309  82.5169277  30.4540038  67.2371864
  82.0550156  31.2847996  67.1247482  83.4192371  30.6450772  66.9811583
  43.8914204  76.4306927  61.6676903  44.5291376  76.0545444  62.2743750
  44.4026613  77.0301533  61.1240768  69.0405022  52.7774374  17.9422378
  68.3095156  52.5045077  18.4966754  68.6698328  53.4503941  17.3713111
  26.7455249   4.4417371  60.5848885  27.0012050   4.7814264  59.7272921
  26.5862517   5.2231683  61.1142492  52.0498077   8.0093521   8.0754375
  52.3453037   7.1145815   7.9072236  52.3235408   8.1867975   8.9753341
  12.7754108  28.0416817  10.3950404  11.9884626  27.6633543  10.7872295
  13.3708230  27.2996849  10.2894258  58.5622120  69.5947504  48.9055109
  57.7179813  69.8606396  48.5410881  58.7544441  70.2551937  49.5711613
  48.5095882  37.5091028  57.8086615  49.4566488  37.5487781  57.6755047
  48.3992195  37.5529027  58.7584686  40.3180400  29.5113987  29.3702411
  40.0101749  29.3819612  30.2672958  40.8405868  30.3124136  29.4095897
  46.6237502  75.3076605  28.5828208  45.7422595  75.3591184  28.2133006
  46.5082317  75.5216650  29.5086192  50.6250516  20.4603762   4.5332193
  50.4820339  19.7978777   3.8572931  49.8229257  20.4468530   5.0553750
  79.0305281  17.5525236  47.4079752  79.9772835  17.6584625  47.5010633
  78.7094593  17.4688590  48.3058310  30.0190282  76.0312176  57.7323151
  29.2828250  75.4363441  57.5896168  30.6756210  75.7576799  57.0917749
  36.1534977  53.2140398  64.8248148  35.2902937  52.8662062  65.0486994
  35.9709883  54.0503597  64.3964624  81.5333650  31.7695326   5.4791259
  81.2213967  32.5229210   4.9778175  82.3904369  31.5696472   5.1026868
  56.5477554  22.5348991  33.5258102  56.5071956  21.5785831  33.5325145
  56.5405265  22.7684349  32.5975704  40.8752958  47.5133365  15.1171493
  40.6819097  46.9088692  14.4006061  41.5772096  48.0692333  14.7787189
  53.9418268  60.6768370  64.0131235  53.9311314  60.5190229  64.9571657
  53.7428331  61.6088533  63.9238214  59.5576469   5.4457945   1.2312173
  59.3111221   5.2077288   2.1249627  59.0213577   4.8797840   0.6760072
  68.7226105  59.2132664  57.9253054  69.3961191  58.5434341  58.0433893
  68.4609032  59.4492769  58.8152695  32.5694418  22.6122308  53.9407158
  31.9807410  21.8768358  54.1105890  32.8007078  22.5252366  53.0159569
  52.2893715  37.5063109  66.8367243  53.0093622  38.1009722  66.6264296
  52.4322701  36.7476439  66.2708330  44.9756622  74.7164440  49.6287346
  44.6182919  74.3165541  50.4215860  45.5069447  75.4462337  49.9471331
  23.7981677  76.6482687  59.2298126  22.8466964  76.5438032  59.2344809
  23.9419889  77.5161076  58.8524532  55.9563533  32.9024166  11.0091018
  55.4083053  32.2746128  11.4799880  55.5393211  32.9886717  10.1518535
   9.4142394  16.2818517  44.3302393   8.8055806  15.6373205  43.9692020
   9.2955642  16.2187471  45.2779579  60.4380703  15.6930673  60.7741308
  60.5107927  14.7588885  60.9697199  61.1127758  16.1041439  61.3145161
   3.8944154  74.8381666  29.9977302   4.6653895  75.4051212  29.9777507
   3.8757806  74.4286589  29.1327476  42.4201719  35.1090425   0.5021190
  42.9130928  35.7695860   0.9888839  41.5714685  35.5187506   0.3345775
  13.6834634  69.1635034  64.0630293  13.6600698  69.5736740  64.9275780
  12.8393949  69.3852315  63.6698151  49.1013919  30.7441525  13.7612724
  49.9821936  31.0771755  13.9330673  48.7112342  31.3909392  13.1733322
  66.3958036  42.1615055  17.4313163  65.4683243  41.9496662  17.5368499
  66.8563067  41.3806372  17.7385902  20.8632339  78.2045480  56.0653400
  20.7962955  79.1576924  56.0081863  20.5170311  77.8896351  55.2303505
  54.6799909  42.3814076  19.7312259  54.1326224  42.9956798  19.2420482
  54.6767961  42.7186997  20.6270217  30.2550806  74.4236217  63.0340910
  29.9615396  75.3308932  62.9508686  29.4763197  73.9013306  62.8417921
  65.5683910  14.4373922  24.2365646  65.9570300  14.1210775  23.4210109
  64.8551260  15.0105266  23.9554881  76.1312480  52.3862181  36.0348678
  76.9971962  52.1375189  35.7115817  76.0834761  52.0031391  36.9107676
  76.7979943  33.4231953  13.6501121  76.6697489  32.7329729  14.3007945
  75.9358775  33.5389499  13.2506370  25.1204027  36.6057215  65.1109219
  24.6084274  36.2095318  65.8160114  24.9314941  36.0643969  64.3444300
  69.1018064  44.1664062  39.9248791  69.7860343  44.8355708  39.9416661
  69.1187425  43.7844668  40.8024168  55.2528811   0.4894767  43.6627197
  55.9351778   0.2196218  44.2774391  54.4443941   0.1326646  44.0304995
  49.6288668  47.7349536   7.0668268  49.4755637  48.4210781   7.7164125
  50.5062734  47.4082826   7.2660016  75.1683743  74.4495098  55.5402184
  75.5402751  75.0495193  56.1866760  74.2219312  74.5196650  55.6649446
  10.9427727  60.1000104  68.6521244  11.6286672  60.3803645  69.2580795
  10.8231104  60.8458124  68.0641699  42.5185691  53.9677529   1.8626022
  42.5374137  54.8215501   1.4302730  42.4669682  53.3368186   1.1446285
  70.0780077  74.1371105  65.2657795  69.6756942  73.3284853  64.9487591
  70.8501203  73.8462410  65.7510281  72.1208925  56.7719875  64.1489697
  72.5440402  56.0837779  63.6355972  72.0467098  56.4029942  65.0290632
  65.8009039  30.4443465   3.6757087  66.3001453  30.8698974   4.3727731
  65.6924545  29.5417921   3.9754867  12.8757442  47.6441894  64.3143129
  13.5416044  48.3318339  64.3120384  12.0893205  48.0711780  63.9745378
  20.0191331  43.5921383  63.9412403  20.1250267  42.6614523  63.7441730
  19.6904159  43.6107588  64.8400307   6.4092268  68.6791406  40.6498337
   5.5856289  68.2502125  40.4175901   6.3223208  69.5675764  40.3043461
  54.0854179  36.2488256   7.6769733  55.0145661  36.3288758   7.4613189
  54.0566837  36.2931458   8.6327171  16.8979025  34.6942711  30.9506726
  16.0317421  34.5608497  31.3356352  17.4577427  34.9208355  31.6932893
  42.4076080  34.8450732  57.2163820  42.8581524  34.9471521  56.3780403
  41.8009233  35.5845070  57.2538424  65.0975620  35.4479540  14.3552207
  64.3815004  35.4211537  14.9898624  65.7628785  35.9986628  14.7679042
  63.5065538  24.9385595  44.7967720  64.0027744  25.7020450  44.5016670
  63.0015785  24.6698332  44.0292978  46.9963408  23.9189029  62.1860313
  46.9176817  23.7387800  63.1228352  46.7339468  24.8349643  62.0954084
  16.0973358  10.0411069  39.2557335  15.3156722  10.4222047  38.8557386
  16.7628813  10.7248497  39.1797352  21.6838304   0.1890606  27.8283405
  21.9642917   0.9213060  28.3773326  22.4068824   0.0590795  27.2147178
   0.3544291  16.1781538  45.9365559   1.0779664  16.6984522  45.5872488
  -0.2236861  16.0379994  45.1866436  31.0650264  45.9493140   1.7615795
  31.1586132  46.0775379   0.8176326  31.7420672  45.3105537   1.9848108
  25.1391459  38.8326764  66.7804050  25.4165983  38.0179429  66.3615227
  25.9158230  39.1373014  67.2496653  57.6187462  78.0672644  48.0852365
  56.6919878  78.2821981  47.9796219  57.8644977  77.6536358  47.2577381
  40.1021909  54.6967141  21.8495654  40.4555999  54.6515958  22.7379894
  39.1671001  54.8607079  21.9718170  40.2077246  15.3076863  61.0673571
  40.7866764  14.8024821  60.4965544  39.8419023  15.9850144  60.4984713
  50.6380879  69.1627912  29.0156841  50.0359498  68.5944919  29.4959926
  50.5974542  69.9999694  29.4779777   5.5928123  46.1569118  62.8666401
   6.3029003  46.3256788  63.4859324   5.9774196  46.3319254  62.0077562
  40.5989504  22.7833652  37.8251338  40.0357294  23.5562015  37.7834344
  39.9933410  22.0431948  37.7849007  47.5058090  14.1004566  20.4983997
  46.9524311  13.5480265  19.9462890  46.9713425  14.8747496  20.6745910
  16.3316679  27.1176839  67.5468588  16.0778642  26.5609431  68.2829666
  15.8822143  26.7368555  66.7924118  79.0324575  19.0816402  51.5026331
  79.0065962  19.5541537  50.6705952  79.9465150  19.1371512  51.7812920
  78.1805754  32.2660732  67.5060415  78.0706930  32.2939205  68.4565067
  77.4302292  31.7609572  67.1928835  79.3126427  37.2429539   0.3373193
  78.5979592  37.8739191   0.2516364  79.7927557  37.3113544  -0.4879332
  45.6622278  65.1067213  37.1631240  46.4604412  65.3486542  37.6327609
  45.0934278  64.7311715  37.8351783  21.8267584  11.4823508  59.9730158
  21.6652250  11.8230748  60.8528137  22.0697665  10.5669367  60.1115656
  27.5178432  15.5775499  50.7688570  28.4142041  15.2615440  50.6552410
  26.9953752  15.0326335  50.1803637  60.6389856   9.6460485  45.3283453
  60.2057552   8.8818192  44.9482203  60.9842873  10.1250207  44.5749664
  32.9886436   2.7176458  59.0140295  33.4501624   3.1786269  59.7145510
  33.3311367   1.8244961  59.0488577  12.3867095  15.3684115  68.5485840
  12.1106839  16.0306096  69.1822529  11.8545890  15.5431843  67.7723551
  82.9468666  65.8293156  32.2613906  83.0379616  66.2950663  33.0926608
  83.2339894  64.9367837  32.4542045   8.7529057  33.6142564  68.5810375
   7.8254348  33.5686779  68.3487606   8.8684779  34.4966936  68.9334297
  36.2525033  58.2695202  36.5860748  35.3980236  58.4592919  36.1986732
  36.6291283  59.1303269  36.7688274  65.2414023  34.0377138  17.5755882
  64.5910202  34.4635592  17.0171165  65.9186517  34.7018806  17.7038383
  16.8446935  78.7018212  68.0731487  16.9893373  78.2478615  67.2429466
  16.1458791  79.3283034  67.8849792   4.3973975  62.4737720  15.5106544
   4.1304307  62.6485590  14.6082115   4.3850713  63.3319072  15.9345531
  39.1487837  24.2275572  61.7623997  39.0764332  25.1786160  61.8429375
  40.0888348  24.0645504  61.6852093  62.5566374  65.8745913  18.6196517
  63.3879982  65.9020261  18.1460380  62.1364533  66.7098192  18.4145355
  39.1309953  20.2201891  38.4905219  39.5414257  19.5126259  37.9933929
  39.3971276  20.0621819  39.3963027  27.0185065  20.6564832  63.8339186
  27.3423648  20.6529880  64.7346592  27.7976370  20.5058169  63.2986784
  62.0074781  60.0384587  63.3995271  62.1216973  60.9884506  63.3730716
  62.4275406  59.7693747  64.2164565  78.9217411  63.4998182  11.5502071
  78.5865342  63.2390575  10.6923770  79.8026167  63.8297705  11.3729476
  20.0339508  22.1199012  65.5477667  20.4367471  21.5853906  64.8634529
  19.7856021  21.4924932  66.2266731  36.5418839  26.8819022  40.7815695
  36.8115139  26.0769510  40.3393173  35.8285356  27.2238564  40.2426529
  30.3831148  29.7921681  58.6854124  30.9845471  30.3964543  59.1205502
  30.3891397  30.0670099  57.7685356   0.7427138   4.1846511  45.6318235
   1.1650103   4.9391651  46.0424519  -0.1313955   4.1582236  46.0210085
   8.8623799  75.7040508  60.3977442   8.5077156  75.4022453  61.2340212
   9.5562042  75.0776182  60.1917744  84.0086066  57.0390586  12.6961612
  84.5391213  57.0022527  11.9002818  84.2371546  57.8773228  13.0978011
  32.1220374  15.1389587  67.3044300  31.3303852  14.8808026  67.7765226
  32.8205752  15.0761640  67.9558420  37.2028661   6.7154640  41.3103580
  38.0528498   7.1295780  41.1611319  36.5704560   7.4287963  41.2240696
  80.7164478  17.8324795  38.6543965  80.8203697  18.5484362  39.2811656
  81.5823555  17.7329087  38.2587838  24.3405628   0.5002316  57.8902674
  25.0635767   0.3005896  57.2956038  24.6320891   0.1714164  58.7406349
   1.8037240  15.5928081   0.5418348   1.4343230  15.4963201   1.4195966
   1.2497202  16.2493843   0.1196718  11.0026264  56.4363527  40.8968592
  11.3935232  57.3099518  40.8808804  10.3706729  56.4698219  41.6150141
  39.4687366  13.5235822  34.8450661  38.5889363  13.8938153  34.7735691
  39.5223951  13.2059181  35.7464218  44.4507121  26.6820804  16.5381812
  44.2526852  27.6097612  16.6663360  44.7329544  26.3761131  17.4001216
  22.1257413  71.8136607  59.0012598  21.2245954  71.5047775  59.0948200
  22.2174371  72.4912570  59.6711016  32.1650900  72.8774844  46.8542433
  32.0209945  72.3116962  46.0957241  32.8535808  72.4381248  47.3534250
  83.0790992  61.4583490  17.5955939  83.6313338  61.1316631  16.8852794
  83.5389705  61.2004505  18.3944917  48.3946215  53.8847939  55.1109123
  48.9620792  54.0861241  55.8550166  48.9975892  53.6368791  54.4100570
  77.6004429  79.1315792  30.0784993  78.0502100  79.4178916  29.2835331
  77.3420901  78.2282759  29.8953915  25.6840385  72.4590073  66.0714245
  25.8169378  72.9822485  66.8618584  25.2730430  71.6530279  66.3840151
  41.1770916  10.2618599  15.7392347  41.4701843  10.2927697  16.6499329
  41.9855022  10.2750921  15.2268648  51.3015901  25.9974436  18.9754390
  52.1459805  26.2363915  18.5931587  51.1543070  25.0967471  18.6868572
   7.1414221  65.7953928  39.6159172   6.4030827  66.4040277  39.6414590
   7.5918330  65.9995041  38.7963438  81.1332690  48.8040606   1.1170148
  81.2631976  49.1663478   1.9934272  81.6570937  48.0029521   1.1089277
  53.4723245  57.8091304   0.9883880  54.1964756  58.4126512   1.1545181
  52.7457844  58.3736710   0.7244491  66.7561197  30.9551120  38.1370354
  67.3668909  30.9185910  37.4009252  65.8898783  30.9156537  37.7316952
  47.6441002  19.3765187  51.1228657  47.0304632  20.1111460  51.1216307
  47.6242208  19.0493476  52.0221949  50.5592680  10.1038706  59.8924255
  51.3006687  10.1249075  60.4975033  50.9524727   9.9266624  59.0378952
  37.2206092  27.3922920  26.9401169  36.3392949  27.7332854  26.7876673
  37.7199054  27.6665115  26.1708713  47.8792953  24.9556303  41.2635469
  48.4294462  24.2910671  40.8489180  48.3049726  25.1291680  42.1031427
  33.5889118  41.9211168   0.1587486  33.8749557  42.4484448  -0.5871297
  34.3832265  41.7866621   0.6756782  54.5333871  76.7269678  58.6940050
  55.4452864  76.8747134  58.4433222  54.4668798  77.0866073  59.5785761
  43.8045216   9.4285029  37.0450282  44.1111708   9.9026877  36.2721443
  44.5810604   8.9731246  37.3703694  84.7289557  62.8218816  53.6605549
  84.2631740  62.1678231  54.1815996  85.6285758  62.4977074  53.6178255
  77.5854765  70.4189042  21.3166904  78.4551989  70.2405028  21.6744422
  77.0921646  70.7780055  22.0542049  45.5134916  11.9151580  44.0100574
  45.9212017  11.1012375  44.3059254  45.5253935  12.4828982  44.7806168
  45.3421688  16.1701775  47.3926163  44.9622107  15.7283807  48.1520128
  44.7552729  16.9078040  47.2262049  56.4641953   8.6336017  48.2874393
  57.0635891   9.0935469  47.6997232  57.0363522   8.1361753  48.8717651
   2.3372226  76.6663341  11.8792438   3.0898004  76.9025163  12.4215412
   2.6440196  75.9286980  11.3519859  61.6235100  26.0723499   0.1498412
  61.0307680  26.8200306   0.0732803  61.0675990  25.3565339   0.4577398
  67.9958998  44.2277188  19.2311191  67.6421176  43.4876902  18.7377261
  67.3786460  44.3519277  19.9520873  37.8588991  49.6853677  12.8932380
  38.1654649  48.9026407  13.3510494  37.5802778  50.2776460  13.5916709
  31.3122344  18.6049831  39.6536851  31.6235900  19.1974545  38.9693832
  31.3932753  17.7319336  39.2696953  53.3153915  27.3360991  55.2452612
  52.9411268  26.4562130  55.2895594  53.4750748  27.5747037  56.1583900
  50.2171469  31.4155030  66.3412762  50.0906134  32.3543787  66.2044001
  49.6468258  31.0001469  65.6944084  50.9227525  71.5921621  13.9260768
  51.8438231  71.4689449  13.6965560  50.8433973  71.2219886  14.8052215
  38.9070498  56.9699554   3.1011152  39.3020450  57.3468475   2.3148822
  39.0300118  56.0258822   3.0019283  57.6433849  18.5119188  43.8790798
  56.9730186  18.1372702  44.4504595  58.4072256  18.6210132  44.4455385
  57.3445450  28.7412266  14.7357749  56.7019640  29.0557901  15.3716850
  57.5635969  29.5135931  14.2145347  28.7067580  23.5688376  61.3961792
  28.7835145  23.2995868  62.3115158  29.5654082  23.9329362  61.1808109
  67.7656399  57.9545192  25.8524989  67.9551064  57.0488159  25.6074809
  68.6063944  58.3034519  26.1484908  85.1189966  59.2515359  65.2858591
  84.4136853  58.9099107  64.7362566  85.6420488  58.4818993  65.5101538
  48.9805698  15.8398056  68.7844515  48.2372618  15.3596330  68.4195471
  49.6765375  15.1864195  68.8548279  26.1737228  59.1879443  15.4808807
  26.4368399  59.9966268  15.0415229  26.9829713  58.6823897  15.5567931
  23.3139014  13.8557994  55.8469200  22.5151157  14.3498564  55.6623030
  23.2082057  13.5585797  56.7506456  37.8910403  71.2442187  11.3768577
  37.1561389  71.4564256  11.9522952  37.5481467  70.5714254  10.7886409
   9.2479169   6.2634969  44.5784616   9.4025552   7.1702200  44.3135595
   9.4919336   5.7450330  43.8117218  45.7339250  70.7787518  17.5688171
  46.4145373  70.4013972  17.0114993  45.5710827  71.6447453  17.1949577
  70.8516855  52.1300755  57.1936512  71.2859936  52.2053061  58.0433273
  70.3436680  51.3211451  57.2551250  54.7274791  58.2327906   6.6270828
  54.8044883  57.4307803   6.1102819  53.9299547  58.6510877   6.3027143
  32.5702585  80.2898379  53.7975168  32.4604906  80.7091161  54.6509743
  31.8877948  79.6192041  53.7705803  18.6585176  42.8282356  66.4534760
  17.8514528  42.8776646  65.9411907  18.7758887  41.8940496  66.6259575
  25.8664656  16.2932205  52.6723576  26.3652539  16.0998523  51.8786001
  25.7332087  15.4400182  53.0852985  41.4820242  18.5225856  66.2164116
  42.0726252  17.9519737  66.7081738  41.7566347  19.4094396  66.4494658
   9.1841501  15.2861750  34.9369001   8.6689067  14.5146298  35.1724267
  10.0831771  15.0539029  35.1693487  24.8432398  23.3203673  56.6047955
  24.8027062  23.5306644  57.5377274  25.5556536  23.8634920  56.2675762
  31.5285444  36.0728598  64.3060493  31.3910556  35.5386066  65.0882912
  32.0256424  36.8294287  64.6170616  32.5789523   9.5985836  41.3149023
  32.4251390  10.2390587  40.6203747  32.5019503   8.7497437  40.8792686
  33.1825508  59.5400248  26.0689974  33.7029565  58.7965141  26.3733006
  33.6832822  60.3096114  26.3396215  10.2642207  69.3323187  32.8590392
  10.4595618  70.2356033  33.1083392  10.1617103  69.3631987  31.9078445
  63.6862623  71.7774824  22.0497798  63.2296573  70.9483961  22.1924495
  63.9235817  72.0744757  22.9282474  55.8030068  56.0565201   0.2101802
  56.2506591  55.8618907   1.0335636  55.0161492  56.5343134   0.4724788
  14.7734237  53.7144852  64.4152975  14.4317102  53.3866453  65.2471495
  14.3306875  53.1874609  63.7501192  73.3111365  76.3823290  54.3443680
  73.5062904  75.9461741  53.5149622  72.9866142  75.6832764  54.9120331
  10.1272297  17.2652352  62.7385473  10.1190054  18.1829882  63.0103779
   9.2028219  17.0340705  62.6476383   4.8169522  48.5464791  15.9285926
   4.0095763  48.9293782  15.5854225   4.5900445  47.6351730  16.1137008
   6.5569341  30.6503868  43.4019518   5.8705348  31.2390590  43.0880165
   7.3085195  31.2216449  43.5601234  65.8736597  52.7712778   6.3500881
  66.5527665  52.1032755   6.2561702  65.0977241  52.3823981   5.9464454
  48.5276413  43.1497097  67.8759241  48.9350414  43.1376886  68.7420177
  48.1450081  44.0240955  67.8033400  11.2502956   9.0989709  58.0067110
  11.5017200  10.0198841  58.0769777  10.8807254   9.0180093  57.1274519
  83.7786232  69.2274360  28.8009071  84.0504776  68.5110788  29.3746280
  83.2622038  68.8028530  28.1158733  13.6942160  44.6156120  50.2061605
  12.7700305  44.3831015  50.1164293  13.7271953  45.5498934  50.0005722
  16.9806056  58.1189565  31.9711017  16.9025426  59.0722851  32.0071697
  16.9109445  57.9079918  31.0400390  29.2023468   0.1973841  68.3775902
  29.5087647   0.6555487  69.1601658  29.5084143  -0.7023741  68.4915590
  69.9520432  55.6805281  26.9891357  70.6663596  55.0863771  27.2192859
  70.2475153  56.1108331  26.1867904  14.5153153  50.1612186  56.8712139
  14.2822015  49.3343735  57.2933769  14.4748139  50.8090782  57.5746870
  22.2678161   6.3721150  60.8734894  22.4222088   5.9134758  60.0476265
  22.7493930   5.8617729  61.5245342  18.8927102  17.2537971  58.0413532
  18.1087267  16.7123652  57.9494190  18.5751927  18.0721855  58.4229994
  57.8935146  33.4939122  57.6419926  58.4757185  34.1935325  57.3456812
  57.3482847  33.9042401  58.3132458  56.1503540  70.1005201   7.8756475
  56.1259328  70.9355692   8.3429050  56.4262759  69.4646577   8.5357808
  44.3258155  79.0928710  51.3162231  44.9143280  78.3591383  51.4937687
  44.7720493  79.8533759  51.6886997  71.3231360  58.8020603   0.8049201
  70.5171143  59.1667966   0.4395103  71.0250031  58.1686441   1.4577102
   7.6072407  35.1610637  51.2769175   7.3295236  36.0392618  51.0163927
   6.9434190  34.8764205  51.9050503  17.9587030  11.7575073  34.8235846
  18.0137050  11.0660863  34.1639304  18.7357259  11.6313493  35.3681517
   1.0410648  79.5248727   2.0407485   0.9967857  79.7157172   1.1038112
   1.7972045  78.9450196   2.1315955  46.2434338  18.9405994  24.4406604
  46.3141261  18.0084161  24.6462631  46.7920386  19.0570549  23.6649608
  56.3349056  19.3159413  16.1693275  56.2855005  19.8300934  15.3634501
  57.1848679  18.8782203  16.1224365  20.8770622  62.0343039  39.8982334
  20.9632839  61.3445280  40.5562687  20.0696005  61.8200086  39.4309950
  68.9914357  63.8923315   9.1379451  68.6386715  63.1478051   8.6506366
  68.4631478  64.6376256   8.8521480  50.0292540  17.7609313  50.9116554
  49.7417545  16.8934894  51.1964655  49.2172670  18.2450116  50.7613945
  23.5692620   5.7436866  30.9783721  23.8896108   5.0972307  30.3493214
  24.3391871   6.2698835  31.1941600  28.9151669  32.0319915  61.9547653
  29.1960335  32.9463744  61.9901085  28.1359863  32.0420861  61.3988829
  29.1089630  14.9193573  56.3019133  28.7608790  15.5999064  55.7257891
  29.9799204  15.2335250  56.5447426  23.2894874  35.1233935  66.5308046
  23.8098383  34.6522975  67.1816015  22.7528787  34.4468307  66.1178350
  39.9787402  32.7239323  62.4556684  39.5615458  32.3881006  63.2490158
  40.8145094  33.0801916  62.7570009  44.0647887  79.8050121  46.2994670
  44.6090256  80.1563505  47.0041560  44.6525358  79.2337827  45.8050060
  27.4992466  12.9075325  55.1200676  28.0599523  13.5757756  55.5141354
  27.7823329  12.0878959  55.5253935  77.3829495  59.5096592  11.9655608
  76.8753516  60.2139239  12.3687839  77.7903258  59.0554671  12.7031135
  76.5150105  61.4279823  13.8697051  76.1418425  62.0172910  14.5252132
  77.1509730  61.9660620  13.3982658  25.1179401   1.5199751  28.3854484
  25.0559465   0.8325332  27.7222633  25.4202692   1.0668796  29.1725540
  33.8003969  32.6478672  51.6848326  33.3476543  31.9411922  52.1451235
  34.1189003  33.2219458  52.3814154  37.1455908  31.7355871  51.1501360
  37.2177982  31.8659043  50.2046013  36.6371965  30.9298611  51.2427330
  66.2729751  55.7374756   5.8888864  66.2683689  55.2417795   5.0700473
  65.7632600  55.2013210   6.4963054  49.3112646  61.9275741   2.2730398
  48.8430582  62.5352697   1.7005681  49.3010770  61.0960011   1.7991065
  25.2845955  28.4762621  42.7355194  26.0496759  28.2196569  43.2503366
  25.5807638  29.2305279  42.2260094  72.6531111  12.5618843   7.9995632
  73.3187281  13.1142453   7.5895881  71.8978869  13.1393913   8.1107044
  77.9713713  32.6531468   2.5297641  77.5685488  31.8332956   2.8157949
  78.1450259  33.1305049   3.3410644  70.2598638  69.9399290  34.2403579
  70.9639211  70.5195341  34.5312071  70.7111485  69.1711603  33.8916898
  27.3038114  52.8753839  63.0227232  26.8268741  52.2339378  62.4961281
  28.0867256  53.0727492  62.5085926  18.7897706  41.8295288  44.4915676
  17.9210293  41.4366722  44.4067955  18.7704802  42.2727299  45.3397655
  80.2220917  12.5554228  54.3029928  81.1396122  12.3618817  54.4951773
  79.8512650  12.8184533  55.1453352  61.6655051  59.6084253   6.7533779
  62.0505535  60.0148277   7.5297880  61.4070951  60.3457097   6.2003278
  16.0618293  48.4246731  66.4566755  16.3889766  47.6572895  65.9872770
  15.8619583  48.1009483  67.3350191  72.4248444  50.2652470  42.0977878
  73.0569254  50.8624164  41.6976642  72.1130883  50.7311634  42.8736495
  43.5046148  25.6491137  36.0282850  43.7304974  25.0299549  35.3341317
  42.7269650  26.1017513  35.7017732  35.0880827  79.5131547  63.6725998
  35.4728140  78.7607175  63.2230949  35.8277334  80.0982805  63.8362360
  59.6268463  29.1782475  54.4254875  59.4609690  29.5124555  55.3069782
  58.7864494  28.8163066  54.1444826  35.9709716  11.6292143  60.3603840
  35.6550169  12.5255561  60.4742956  36.8674564  11.6468728  60.6954002
  22.7608042  22.3599724  26.1614131  23.6449360  22.7200035  26.2315463
  22.2663950  23.0294351  25.6885337  33.2778883  45.8731794  26.6297817
  32.6574755  46.3144827  27.2099304  33.3520460  44.9882507  26.9870496
  79.9838292  47.4627749  32.9278564  79.6456181  47.7344296  33.7811183
  80.3597437  46.5964357  33.0839919  51.9729291  52.5098101  37.4934100
  52.1026145  52.3119060  38.4208965  52.6913082  52.0590429  37.0495986
  62.5369978  14.5218182  48.9471960  63.2933617  14.8944974  48.4941435
  62.0179558  14.1159678  48.2528496  44.3596792  29.6166396  54.7216702
  43.7178707  29.2018747  55.2981091  43.8629103  30.2878976  54.2538404
   7.7467828  69.1185455   6.2701129   6.8693023  68.7821964   6.4521312
   7.9531293  68.7885861   5.3955936  60.8717842  67.6744233  39.5123672
  61.2285821  67.0606301  40.1543856  61.6408182  68.0248175  39.0628767
  54.0752363   7.6253563  48.0995131  54.8431444   8.1896728  48.0095673
  53.6435127   7.9335642  48.8962889  70.9904976  57.0569501  24.8304963
  71.3546104  56.8825612  23.9626026  71.5816266  57.7058301  25.2122712
  80.8375544  46.3419400  20.8546329  80.9840507  47.1871147  20.4298377
  79.8862452  46.2781177  20.9392786  69.8381580  66.4475952  38.8185239
  70.7545627  66.6605959  38.9947438  69.6302093  66.9285963  38.0175042
   3.8976115  35.0691104  54.8306656   3.5310191  35.9402418  54.6790886
   3.1994742  34.5897722  55.2768278  43.9021503  75.7257108   4.9314594
  43.6146354  75.6312064   5.8395528  43.0916428  75.8318881   4.4334268
  81.9743758  17.0647144  21.5683341  82.8575248  16.8153918  21.8405795
  81.8837413  17.9740882  21.8530393  60.7553959   0.6944805  65.9118223
  61.4702940   1.1364956  65.4538107  60.7528925  -0.1926458  65.5523300
  66.5647112   3.5264830  10.2833080  66.3385497   3.4491448  11.2101840
  66.8075906   4.4456319  10.1719188  54.7076702   5.0887090  47.6151562
  55.5145073   5.0981772  48.1300879  54.3683863   5.9810203  47.6851416
  67.9990660  50.8613042   6.8238878  68.8136517  51.3563172   6.9113349
  68.1413280  50.0718121   7.3460912  49.0942526   5.2017182  31.9990039
  49.4762039   4.7543615  32.7541304  48.1637383   5.2767849  32.2105360
  24.6779780  57.3261515  13.8687419  25.4933601  57.5922016  13.4437847
  24.4982867  58.0230955  14.4997882  68.6376177  53.5235242   3.6359071
  69.1988312  53.9141897   4.3057250  68.5201298  54.2175714   2.9872751
  34.7978044  17.6166856  54.1668892  34.5073223  17.1723044  54.9633694
  35.7535028  17.5838912  54.2093039  82.3249740  57.0896755  66.0321951
  81.4715285  57.4974809  65.8853579  82.3667855  56.3830099  65.3879070
  52.6163483   2.8047693  67.6395607  51.7124987   3.0397087  67.8495455
  53.1015253   3.6262494  67.7170467  67.1673595  48.2571379  20.0914192
  67.9016577  48.1383793  20.6938552  66.4080678  47.9260204  20.5710792
  85.2208335  11.0743487  38.3979225  85.1645929  10.4708529  39.1387749
  84.9418999  11.9177854  38.7543535  12.8229276   9.1631788   4.1899108
  12.4690477   8.2804149   4.2982292  12.0610038   9.7376102   4.2656040
  11.0813642  14.2050552  48.7773228  11.4258564  13.8481426  47.9586840
  10.8805203  13.4346676  49.3087292  81.8714558  39.5052841   1.7565584
  81.2577616  38.7720869   1.8016719  82.5331913  39.2251786   1.1242008
  29.3846583  17.8351545  67.9088974  29.4104505  18.0248213  68.8467646
  29.3471456  16.8800116  67.8586388  58.7301074  77.8661017   7.6720809
  58.8378941  76.9393257   7.8858518  59.6082174  78.1595544   7.4290943
  35.1515666  20.3777880  28.6029147  34.5837585  21.1479467  28.6289501
  35.2811185  20.1445383  29.5221710  30.5240785  62.4096851   2.2921323
  30.9448655  62.1920637   3.1238841  30.6997984  61.6550163   1.7301463
  15.2151847  46.0670233  56.5775776  14.8275328  45.2574253  56.9100094
  14.8217595  46.7576122  57.1109962  56.3277005  12.3504299  34.8647308
  56.2229198  11.8139643  35.6505107  56.9405322  11.8581051  34.3185710
   9.5986180  72.8040127  19.5819473   9.9792056  73.5105828  19.0602779
  10.2842431  72.1370606  19.6182823  46.5888643  43.6461020  58.6923742
  46.3678789  42.7222729  58.8104248  46.7375946  43.9721107  59.5799685
  50.4555858  77.1846874  60.0300884  51.1117710  76.9933621  60.7002020
  50.3611482  76.3642270  59.5461893  73.3224045  64.2029862  42.6464080
  73.3877407  63.2618026  42.8080749  73.6009489  64.6070699  43.4682082
  63.1763887  48.6104155  57.3674822  63.7474108  47.8992701  57.6580572
  63.1540489  48.5254049  56.4143276  40.5158472  18.4415901  54.1964483
  40.7716227  19.1930246  54.7313833  41.3448858  18.0483794  53.9238310
  32.2728197   3.2838577   4.1789483  31.6982452   2.5392956   4.3570613
  32.9309789   3.2499355   4.8731469  59.1151905  33.5544372  61.1074018
  59.8613214  33.6172390  60.5110979  58.3549643  33.7561703  60.5618763
  47.9877472  35.2070403  62.5864315  47.4930954  35.5457783  63.3326292
  47.3351431  34.7546148  62.0519638  28.4506392  59.7131920  65.4039288
  27.6010609  59.6800137  64.9642181  28.4000397  60.4872990  65.9646749
   0.3353540  14.3714279  15.3067016   1.2246815  14.0630478  15.4805660
  -0.0292357  13.7235159  14.7037792  59.9092245  17.3709726  51.6964722
  60.6381035  17.1656072  51.1109924  59.1266346  17.2249866  51.1649895
  32.3985534  52.9664592  32.9772186  32.0260005  52.4642531  33.7019443
  33.0908065  52.4052540  32.6278495  73.1047392  47.3732710  16.3296449
  73.5498476  46.7374611  16.8898749  72.2989178  47.5849581  16.8008935
  75.3011439  20.4926771   0.3005266  74.7901116  21.3018936   0.2849674
  75.7589576  20.5146402   1.1408567  34.8072386  36.6977596  38.8493419
  33.9815593  36.5701509  38.3822227  34.5474124  36.8489099  39.7581172
  40.4107129  54.4777826  17.3893165  40.4154145  53.9940314  16.5633678
  39.6415244  54.1493730  17.8548526  76.0581385  71.3821797  12.7075672
  76.8711983  71.6307000  12.2677898  76.3422047  70.8694772  13.4643173
  40.1866817  20.6012702  21.2132192  39.3008947  20.3481078  20.9533739
  40.2087545  21.5508962  21.0950732  35.1855540  10.0045967  68.9680243
  34.9942589   9.8715389  69.8964262  35.9382463  10.5958974  68.9609194
  43.9430283  29.6819786  20.3954028  43.1668817  30.1131264  20.0377178
  44.5477234  30.3985618  20.5879783  60.5820513  36.0755563  64.2481518
  60.1812077  36.9184661  64.0358782  59.8885965  35.5849028  64.6893072
  82.3866784  61.3610081   6.6639041  82.2069203  61.4164881   5.7253742
  83.1061636  61.9759659   6.8067264  61.3034760  79.2541556   7.0758056
  61.4229666  79.1290025   8.0172347  62.1758520  79.4774155   6.7512369
  28.4197418  36.0686821  17.9954910  28.5306255  35.1390308  18.1947040
  27.8819505  36.4047855  18.7124633  29.5088553   2.6894721  55.4141951
  29.8658705   3.5406122  55.1605558  28.6956978   2.6124728  54.9151182
  51.2148248  70.4433183  10.1156806  51.3087713  71.2746958   9.6506881
  50.2762352  70.2576617  10.0871467  27.5706744  12.0705223  52.4336576
  28.1469059  12.7906752  52.1775913  27.3683476  12.2411478  53.3535385
  65.0637913  23.2980633  61.9488525  64.6407318  22.4753904  62.1947479
  65.8260965  23.0311823  61.4351511  35.2002096  14.7430551  58.3039474
  36.1434126  14.8183227  58.4486341  34.8217225  14.7500610  59.1831112
  43.2524578   3.7401337  47.1035861  43.4856836   4.6531814  47.2714805
  42.8895084   3.7446207  46.2178802  34.6156788   1.1853958  64.9839926
  33.6985970   0.9868731  65.1731443  34.5939755   2.0502907  64.5744562
  74.2771006  31.0252643  30.2539897  74.7597551  31.7727160  29.9010158
  74.2631769  31.1740160  31.1994600  66.6900360  19.2580084  15.9965515
  66.9709431  18.3950643  15.6921672  67.4629890  19.8126082  15.8907699
  31.0838056  43.9707613  65.2234459  30.4381871  43.5629654  65.8006001
  30.8286667  43.6921358  64.3439531  11.9503108   2.5212187  19.9996471
  12.8799716   2.5502247  19.7735404  11.8627969   1.7460483  20.5543422
  31.1388159  21.3795853  60.6089067  31.7118168  21.1079860  59.8918724
  31.3226795  22.3120832  60.7223606  39.1202569   5.5676144  55.3177738
  39.6032095   6.0675722  55.9758282  39.3741155   5.9620601  54.4833899
  76.5614424   3.7830252  21.4411163  76.4170287   2.9667038  20.9625720
  77.5011680   3.7910026  21.6230010  71.4954792  68.7854246  18.5490321
  72.2314869  69.3148903  18.2421111  70.7212626  69.3092207  18.3429813
  21.6961622  24.8755646  64.9168777  21.2648010  24.0457988  65.1209593
  20.9822702  25.5114937  64.8701715  47.5971079  57.8881121  68.3838940
  48.0809021  58.2383347  67.6358843  46.8026590  57.5150681  68.0018997
  46.6933155  25.1713943  56.5540886  45.8166313  25.5304289  56.4171410
  46.5539837  24.2292738  56.6501474  18.9784217   1.6321608  59.3156147
  19.1679108   2.5566265  59.1553354  19.1384614   1.2054297  58.4738779
  77.3629128  52.9441182  12.3913669  78.3105313  52.8659813  12.5015830
  77.0911061  53.5519234  13.0790614  69.7653853  67.7229051   8.4757518
  70.4405152  67.4306540   9.0881442  69.0017449  67.1857909   8.6869287
  71.3729286  17.6192689  59.5532322  70.5881119  17.8191769  59.0430021
  71.7853975  16.8940747  59.0839863  23.4311538  54.3326418  28.1906032
  23.1518464  53.4735040  28.5069942  24.3289619  54.4250194  28.5093974
  57.0481777  25.8187127  66.4476776  56.1330795  25.8938146  66.1771345
  57.0415545  26.0400105  67.3789215   7.8068677  27.1167129  10.0716686
   7.2324554  27.8824037  10.0732564   7.5343434  26.6144413   9.3037605
  68.9408337  68.4745864   4.4357395  68.4100782  68.9761500   5.0545787
  68.8488041  68.9434508   3.6063241   5.8869082  20.1489592  53.4821844
   6.7346835  20.4020739  53.8474798   5.9908599  19.2253590  53.2532978
  35.6039195  57.7919404   1.0536861  34.8377757  57.6368515   0.5012321
  35.2893596  57.6460163   1.9458675   0.9649520  56.9744746  35.7229614
   1.0499053  57.3449032  34.8444461   0.8208375  57.7323858  36.2895583
  45.5852556  13.0426908  55.0024271  46.0627747  13.0012047  54.1738844
  46.2644339  12.9778790  55.6738091  67.5878488  73.3304004   3.6318635
  68.4111701  73.1547145   3.1763315  67.8529750  73.7306217   4.4599723
  25.3527538   1.2334246   3.7073898  24.4877855   0.9658426   4.0179681
  25.5218259   2.0626968   4.1545486  31.1411786  67.3748302  31.9833398
  30.7197142  66.7110825  31.4374113  30.8607268  68.2086325  31.6060495
  61.0193300  76.4153004  61.1788082  61.5943480  76.4046526  60.4136467
  60.2352762  76.8777514  60.8827782  38.5177469  11.3463140  61.7422724
  38.2174134  12.2196209  61.9939995  38.1352782  10.7632482  62.3980045
  68.1141329  34.5594716  57.9069901  67.3490286  33.9929986  58.0067635
  68.2569122  34.9251151  58.7800026  66.3762032  24.4586233   5.9636258
  65.7912861  25.0235073   6.4686107  67.2313391  24.5659045   6.3801145
  65.4062473  70.2169232   1.1911249  65.6888973  71.0989551   0.9495496
  64.9063884  70.3382734   1.9983720  61.2475668  74.2500452  12.8276538
  61.4871251  74.1572026  13.7497329  60.6865608  73.4953884  12.6487827
  64.5521641  68.4264565  47.1474314  65.5042076  68.3792543  47.0601654
  64.3078470  67.5969601  47.5578833  27.4366236  43.6510277  33.0505919
  28.1157017  43.2653952  33.6040998  26.7267680  43.0089617  33.0599546
  80.1123733  69.0620587  69.1966820  79.6380062  69.8538075  68.9430237
  79.6521993  68.7458835  69.9741793  43.3259057  56.5314762  13.9052581
  42.4396263  56.2185232  13.7241458  43.3177077  56.7476491  14.8376941
  56.4726496  23.4464073  62.5097847  56.0920811  22.9701519  61.7718267
  57.2955608  22.9917121  62.6895189  57.6487541  23.2096696  55.6678009
  57.4321413  22.3495770  56.0277367  57.3679209  23.8288975  56.3415384
  33.5662556  19.6360719  52.6338243  33.2781982  19.4262397  51.7454386
  34.0698195  18.8701427  52.9095173  66.0226833  60.5625180  36.6744804
  65.7149254  59.8270766  36.1447238  65.2693592  60.8000306  37.2151470
  13.2159060   1.3663338  50.9277296  12.3865241   1.7244700  51.2441063
  13.6139888   2.0836940  50.4346228  83.3231468  65.8680950  65.5626869
  83.2417078  66.8119667  65.4259205  82.5025577  65.6157325  65.9859800
  49.3088685  56.8171601   2.5247239  48.9783584  56.9685713   1.6392469
  49.8546707  57.5812248   2.7105617  73.6285387  57.1189908   7.9902934
  73.6425482  56.3917796   8.6125469  72.6997601  57.2578053   7.8049993
  55.5070506  52.2302596  12.7357482  56.2605702  52.0483689  12.1741771
  55.6403862  51.6738598  13.5031223  50.9331036  24.1425538  68.5281515
  51.3601255  23.5230231  67.9364872  50.8849621  23.6802793  69.3649387
  36.1338607   4.7096771  12.9766845  35.2628557   5.1049846  12.9404830
  36.4774982   4.8055309  12.0884513  69.0603209   6.5092564  47.6775551
  69.4404650   6.6753173  48.5401964  69.8154593   6.4209759  47.0960093
  21.3711333  36.2653518  53.7780762  20.7078171  36.8558097  54.1352940
  21.2139654  35.4319811  54.2219496  38.5901761  45.0439978  56.6670322
  38.4260201  44.7427416  55.7734251  39.4632530  45.4347706  56.6314650
  26.1166088  23.0697721   3.0908059  25.2197067  23.2448763   2.8059530
  26.6563121  23.2895845   2.3314428  27.0214012   6.3499526   0.9490489
  27.7879479   5.8067368   0.7658671  26.6012552   5.9266488   1.6977309
  43.8887882  30.0627375  50.6392002  43.7136745  29.1704726  50.3401470
  43.1898022  30.2465177  51.2667942  46.9738150  44.4160652  61.4936066
  47.6953888  44.1787434  62.0760489  46.6081810  45.2129650  61.8776608
  22.3856870   2.0732778  12.1064662  22.2435848   1.2245029  12.5255298
  22.9971115   2.5273174  12.6863288  15.1682681   5.2896053  69.2329454
  15.5957240   4.4906339  69.5414162  15.6488913   5.5275857  68.4401035
   5.2192311  51.9930224   1.4129161   5.7743697  51.5967015   0.7413625
   4.6635108  51.2759082   1.7181253  24.5244400  10.9229034  13.1439018
  24.9178497  11.5437692  12.5307273  24.7528306  11.2632173  14.0089225
  77.4458647  35.9367466  68.2289886  76.7051220  36.5365744  68.1410360
  77.2260427  35.3941107  68.9862585  65.0599705  58.9629487  12.6225375
  64.4491016  59.1972498  13.3212280  65.2398859  58.0334250  12.7634143
   5.2880817  61.1980561   9.6376514   4.7321658  61.8501333  10.0642490
   4.6936326  60.4783992   9.4256210   6.6460265  79.0788121  40.7739067
   6.5081609  78.5114620  41.5324211   5.9719838  79.7537133  40.8539581
  15.6031600   4.2723459  12.7538776  16.2525884   3.5751861  12.6619911
  14.7796194   3.8125461  12.9169463  46.8144797  72.8746967   9.7608995
  47.2477197  73.6413840  10.1360368  46.0200094  72.7685837  10.2841472
  58.3635675  65.9857825   7.2917985  57.8499638  65.3985719   7.8464412
  59.1132866  65.4589848   7.0149659  34.9697590  20.8222866  67.4147844
  34.7278190  21.3253021  66.6371775  34.5736575  19.9619591  67.2763300
  50.2691733  74.2153124   1.5346097  49.7737061  74.8860196   1.0646152
  50.2574073  74.5042233   2.4470949  84.2526471  79.5095710   9.0999269
  84.6159064  79.8504404   9.9172925  85.0182139  79.2486481   8.5880136
  22.5735521  30.2094007  49.3420601  21.7489910  29.8249078  49.0445757
  22.3527026  31.1167789  49.5521069  42.0966578  39.3334317  58.3530283
  42.7462053  39.4605565  57.6615429  42.2615480  40.0460339  58.9704752
  55.0266062  78.1301073   6.8502378  55.5852043  78.1812600   6.0746192
  55.3728281  78.8003949   7.4393749  18.4585611  14.4711584  29.3162822
  17.8441755  14.2457002  30.0148105  17.9027168  14.7587770  28.5920238
  60.3010416  31.2249017  48.9645386  60.6176710  31.1369634  49.8635626
  59.5411348  31.8028212  49.0336943  56.8049013  36.7034314   6.3940095
  56.9728099  35.8128584   6.0859203  56.4579808  37.1604950   5.6278705
  38.4535551  28.4555721  45.1517534  37.5525451  28.5051608  44.8324585
  38.9819860  28.3446121  44.3613863  56.5899097  69.3609361  14.8635768
  56.6825854  68.4149722  14.9766921  56.2368738  69.6685318  15.6984329
  20.6990711  18.6833900   9.0339755  21.3974802  18.0381054   8.9241456
  20.0172750  18.4048122   8.4225988  75.2904222  18.9631695  19.6391296
  74.5599423  18.3503097  19.5552539  76.0132776  18.5389370  19.1768073
  63.2588530  58.3470678  57.9526472  63.7069321  58.7555265  57.2119617
  63.6498213  57.4758196  58.0182314   3.4053950  50.3996448  12.2525024
   3.9599185  50.8620695  12.8809070   3.2282834  49.5546226  12.6657771
  46.6846848   9.5153755  59.8795033  46.6783571   9.7252834  60.8133841
  47.5802326   9.2258477  59.7051573  67.4289619  66.1756972   9.0340423
  67.1181523  66.5779595   9.8450994  66.6346489  66.0255508   8.5214471
  26.8350458  42.6087761  56.8564701  26.0409451  42.9182625  56.4207506
  27.0757222  41.8143892  56.3797569  39.2916489  13.5648727  67.7544069
  40.1395178  13.9937377  67.6385355  38.7400126  14.2314839  68.1637478
  44.5065928  11.0085618  51.5463638  44.1976786  11.1143947  50.6465816
  43.7246323  10.7628119  52.0407152  76.0388314  51.9433002   7.0873355
  76.1139237  51.4514093   6.2696313  76.8717848  52.4085979   7.1642970
  39.8894238   7.2447288  57.8427839  39.6156526   7.7840614  58.5846758
  40.7210445   7.6270741  57.5626898  29.7279072  61.5572977  63.8098621
  30.6160951  61.2626076  63.6085796  29.2875099  60.7773447  64.1474342
  22.7401304  38.9083791  50.3071070  23.6379504  39.1039896  50.0389957
  22.8203058  38.6102009  51.2131405  37.5136614  32.1941018  43.9440823
  36.6456413  32.5261116  44.1733027  37.4043536  31.8219829  43.0689764
  61.9706297  38.2151580  59.9626160  62.7759171  37.7057624  59.8717022
  62.2593975  39.1272378  59.9316740  46.7642927  36.4573336  59.9246550
  46.2396526  37.2569704  59.8850203  47.5195408  36.6928506  60.4635048
   9.6108238  15.7901663   8.6631011   9.4679848  15.6643480   7.7250146
  10.5422608  15.9977001   8.7378311  21.4698792  38.5946870  26.5051651
  21.9943380  38.8822055  25.7578325  20.7857490  38.0464625  26.1209130
  24.4186891  67.8748689  53.2440090  23.5715879  67.7930317  53.6821318
  24.9979223  68.2454536  53.9098787  50.1941776  59.3608427  43.7735176
  50.8822536  59.7679329  43.2471514  49.8453712  58.6657286  43.2154989
   2.7184952  78.6076055  68.3838606   2.7041281  78.2811655  69.2835617
   3.6293019  78.8621179  68.2359314  73.4212386  50.2072291  38.5869979
  72.6903950  50.8185975  38.4957313  74.2016589  50.7606212  38.5565376
  64.8434973   1.8685490  22.4849057  65.4206896   1.2523641  22.0339108
  65.4260826   2.3667954  23.0581164  27.9413085  51.6082708  17.7972030
  28.2777362  51.1122266  18.5435199  27.0298152  51.3279311  17.7145767
  19.6098701   0.9381241   1.6865110  19.0825883   0.1873726   1.9596147
  20.5097095   0.6117433   1.6871642  40.9925996  44.8433800  10.5117988
  41.2609600  44.3402968   9.7429513  40.2974557  45.4180870  10.1912975
  69.0279709  52.4338154  11.9278335  69.0390383  53.3854000  11.8248939
  68.5640704  52.1145539  11.1538219  73.5462414  79.4670324  11.8795680
  73.4769856  80.4216484  11.8673515  74.3407809  79.2781285  11.3803100
  49.7158051  15.1694989  51.6294575  49.4570589  14.6780455  52.4090433
  50.5231857  14.7467268  51.3368273  55.7452618  63.4533004  61.6352939
  55.5371248  64.2107968  61.0883808  54.8933708  63.1203345  61.9175147
  53.1089770  78.6606125   1.6671323  53.3914434  77.8049235   1.3442659
  52.7056776  78.4754042   2.5152349  66.2426090  47.5381422  57.8839254
  65.9188700  46.8260670  57.3322248  66.2926149  48.2923698  57.2966671
  63.5008574  31.5796399  63.5680294  62.5665569  31.6662359  63.3787823
  63.7710190  32.4547911  63.8461542  69.6356175   9.6545786   9.9123287
  69.4145963  10.3186506  10.5653095  68.8752375   9.6273559   9.3315410
  61.5411817  50.6387130  13.2425117  60.9892832  51.0608439  12.5841426
  61.0212981  49.8963885  13.5505771  41.9899035  41.4630270  65.9294367
  41.2210655  41.2257862  65.4109430  42.2266150  40.6575155  66.3891697
  73.7324749  59.5252423   6.4047145  73.8816153  58.6751763   6.8186902
  73.3147704  60.0530783   7.0852565  84.8066985  64.5377163   3.1025409
  84.7190653  64.5509175   4.0556287  85.6766878  64.1700343   2.9470825
  38.0979530   0.9734052  17.3355674  37.7690784   1.8050045  17.6769065
  37.3686735   0.6177563  16.8277358  75.3945433  57.3079662   2.3600292
  75.2011334  56.4361779   2.7047204  74.9853264  57.9081778   2.9833459
  56.2132788   8.5639423  28.4871006  56.8770075   9.0652752  28.0134368
  56.4471674   8.6683756  29.4093919  10.9531514  10.6457037  24.9958228
  11.2254325  10.1003403  24.2578029  10.7121793  10.0205940  25.6794929
  35.0796561  64.8727373  27.1748256  35.0485187  65.3028611  26.3202762
  34.1678767  64.8509053  27.4653434  21.1524503  57.7551846   9.2986869
  20.3683900  57.3026935   8.9876651  21.5910028  57.1159748   9.8602151
   6.1718620  79.2785503  62.9304314   5.5028380  79.4761119  62.2749853
   6.1793412  80.0451136  63.5036278  22.5319589  73.8779221  60.5402994
  22.4528564  74.8253212  60.4288912  23.2160963  73.7707583  61.2011290
  45.1746988  59.4685650  58.3300877  45.7411242  59.6273708  59.0851879
  45.6613731  58.8434458  57.7928686  74.0346527  11.4232409  54.8024416
  73.2601500  11.4284563  55.3648949  74.1182327  10.5129969  54.5183563
  23.8326086  69.3615375  58.8818741  23.7031950  70.2902351  58.6895132
  24.7232736  69.1770301  58.5837030  76.3030815  31.5300441  61.3771343
  76.3802767  30.5786562  61.4487696  77.0797157  31.7970061  60.8853912
  69.8972737  73.5265640  32.5351619  70.0091397  72.7725462  31.9562148
  69.9950682  73.1678776  33.4172057  16.1750078  40.2779675  33.5445809
  15.5032051  39.6225619  33.3565593  16.4825404  40.5597067  32.6830244
   4.5444112  78.9017538   4.3701219   4.6863370  78.2812623   5.0850200
   3.7030416  79.3111901   4.5718383  10.2136850  54.2372847  48.1085348
  10.4456782  55.1249218  48.3815050   9.8463917  54.3448067  47.2311735
  31.8715625  73.5044793  21.3766002  32.4996238  73.6970524  20.6804084
  32.0824390  74.1305117  22.0693111  76.8132626  65.8977417  26.0675334
  77.2514235  65.0917367  25.7944011  76.2088715  66.0960130  25.3522395
  12.0797340   0.1629156   2.0629596  12.6543466   0.7185453   2.5895738
  11.3514487  -0.0496918   2.6465988  67.5660896   5.9477705  66.8578386
  68.3748341   6.0898685  67.3497438  67.8478098   5.5081969  66.0555696
  72.4229193  20.2254844  44.5730448  71.9218969  20.9191680  45.0020170
  73.3367109  20.4910564  44.6764183  57.4241209  14.0865266  51.8181324
  58.3536386  13.8999999  51.6860580  57.2633219  13.8648856  52.7353334
  11.6233688  73.2579116  24.4947433  11.7484050  73.9939026  23.8956546
  10.6833987  73.2532362  24.6755027  81.3346672  25.1155663  65.3650665
  80.8464813  24.5095134  65.9223890  81.5539932  25.8474398  65.9416866
  80.9665775  32.8185582  67.5734806  80.0255775  32.7138090  67.7141428
  81.0680008  33.7306333  67.3013306  54.8760891  30.2887392  62.2335911
  54.0039444  30.6825447  62.2109842  55.0957203  30.2463961  63.1642914
  67.3023129   4.3764684  58.3171320  67.0435572   4.6670344  59.1916895
  67.8395557   3.5995507  58.4720707   9.6450061  11.9745839  58.5820055
   9.7047251  12.7891266  59.0811920   9.0667838  11.4166927  59.1022444
   2.5343749  19.2816055  38.0063725   3.4450376  19.5489001  38.1307840
   2.0508522  20.1045895  37.9347205   9.2917625   8.0708021  20.7434463
  10.0177042   7.4809164  20.5402850   8.5301582   7.6647323  20.3295612
  21.7152762  36.7328477  39.0102577  22.5699520  37.0815396  38.7569284
  21.2938905  37.4511123  39.4822311  16.6332698   4.3527138  46.8000078
  15.9739006   4.1094720  47.4498510  16.5152657   3.7206721  46.0908985
  32.3784304  54.7054720  63.5659266  32.1352911  54.7986317  62.6448202
  32.3590255  55.5983877  63.9102507   1.3221282  20.6222749  41.4091539
   2.2336215  20.3344250  41.3587379   1.2580222  21.0677981  42.2539234
  61.6625105  80.2689890   9.7288703  61.5722047  79.5317892  10.3326988
  61.7416250  81.0354475  10.2967738  35.7137966  14.9514604  64.3143797
  35.8148623  14.0311515  64.5573807  36.0295177  14.9969494  63.4118938
  11.4540542  62.3441432  67.0465469  12.0745720  63.0091045  67.3449039
  10.6666220  62.8373728  66.8165398  76.5428625  58.5056225  53.2046413
  76.4686047  59.0803806  52.4428176  77.4838053  58.3615855  53.3051872
  62.2603976  66.4940337   9.4073343  63.1112443  66.7115716   9.7880840
  62.1044575  67.1821789   8.7605142  31.2935495  21.8802929  67.1106243
  31.7041731  21.1020851  66.7337799  31.7714334  22.0322275  67.9259634
   1.8904739  77.0869950  20.6587505   2.2125917  76.9868759  21.5545368
   1.8603664  76.1945800  20.3139018  50.3832674   2.2229341  45.4012442
  49.9282932   2.3549946  44.5695066  49.7288275   2.4313168  46.0679674
  21.9723714  66.4090965  51.8808699  21.8139566  67.1569429  52.4569416
  22.9117168  66.2420462  51.9580746  76.1748968  63.1409578   1.2003040
  77.1009480  62.9511885   1.3507890  75.9283577  62.5693683   0.4731607
  14.7470869  74.0784774  51.5638876  14.5159258  73.4818075  50.8519983
  14.7323764  74.9473224  51.1624813  53.2340527  49.9250078  60.4891396
  53.6377430  49.1777134  60.0477600  52.3254299  49.9187374  60.1881361
  45.8750907   0.8187145  28.7308883  45.9332983  -0.1365095  28.7505054
  45.0613681   0.9994787  28.2603454  60.9778177  65.6502227   1.8841123
  60.5921399  66.2022523   2.5643682  60.2745258  65.0506190   1.6349363
   1.2172370  74.3944196  19.2547225   1.2512641  73.4451441  19.3728351
   0.2849727  74.5910839  19.1628551  75.7112646  25.1270914  42.3806810
  76.5139484  25.3207183  41.8964958  75.4023933  25.9809518  42.6835918
  33.5783352  76.0334835  63.9734983  34.4126094  76.4856044  63.8477612
  32.9898895  76.7070598  64.3144608  83.1557547  70.3655414  16.9568633
  83.8009154  70.6052570  16.2916278  83.1829869  71.0853151  17.5872707
  14.9759436  23.3457303  55.7876873  15.4575193  22.7496290  55.2141190
  14.1272235  22.9219055  55.9152794  14.0387718   0.7831329  29.8969364
  14.9167911   0.6147093  30.2389144  13.6524383  -0.0861269  29.7903251
  50.8150721  26.9254184  63.5816908  50.8769035  27.8269029  63.8974953
  50.4024744  27.0008206  62.7212763  57.0933830  33.8648496   5.7498073
  57.5169240  33.9866434   4.9000930  57.8166353  33.7149964   6.3586425
  54.9154711  24.7072291  34.9564648  55.3385353  24.2984200  34.2013979
  55.3226566  24.2886186  35.7148814  38.5754395  20.5842590  57.6429510
  38.5074639  20.3686929  58.5730791  37.6708984  20.7239938  57.3627472
  27.0124284   4.6274036  19.3943691  27.8818361   5.0119394  19.2825984
  27.1419517   3.6923260  19.2359924  34.1649108  78.5386900  35.7358646
  34.0125709  79.3292860  36.2535285  34.1082149  77.8231386  36.3691139
  49.3643045  33.8898182  65.9208965  49.6567488  34.3875217  65.1573563
  48.4251499  34.0662789  65.9764719  53.8287687  58.2591581  55.1648664
  53.7367773  58.0010033  54.2477369  53.7520456  59.2132187  55.1539898
  63.9448158  25.9014934  13.6122512  63.2293788  26.3747972  13.1875610
  63.9592258  25.0488275  13.1775188  65.7343960  45.5449581  61.6043663
  65.7770681  45.4393101  62.5547600  65.2835321  46.3795328  61.4761543
  74.9413252  68.7478399  22.3780417  74.0690660  68.9947891  22.0707774
  75.2013111  68.0258608  21.8058634  46.4905642  60.7519297   1.3529825
  46.5023052  61.6874627   1.1508130  45.7262038  60.4153971   0.8852910
   1.9518012  27.0720100  33.7832880   2.3916548  26.2616014  33.5263729
   1.0204810  26.8885159  33.6600065  20.1161866  80.0190620  38.9068508
  19.9251800  79.1164188  38.6519336  19.2625241  80.3911356  39.1283416
  62.5214100  47.8705788  60.6432056  62.3799992  46.9317198  60.5216408
  63.2779932  47.9252243  61.2270069  31.0774366  11.9377321  20.2769565
  30.7361166  12.1224922  21.1519431  30.9183780  12.7420896  19.7830486
   3.8302726  16.1509621  62.0433950   4.2592925  15.3877449  62.4302769
   3.6606806  15.8962655  61.1364222  26.9412665  55.3921692  21.9916438
  27.4137836  55.0173072  21.2483882  27.5348621  55.2798680  22.7341079
  48.1769228  65.6784868  46.2021637  47.6426506  66.3464928  45.7725668
  48.3695889  66.0445118  47.0653772  47.3648445   0.7487768   1.5569591
  48.1457178   0.2156395   1.4078378  47.0724193   0.9958738   0.6796550
  17.5168710  73.6046294  42.0122623  17.8913646  74.4334654  41.7139053
  18.2367950  73.1659083  42.4655437  72.4927521   2.0087874  41.5863228
  72.9294586   1.6138235  42.3409939  73.0619717   1.8021861  40.8450174
  69.9382067  58.5144711  66.1942720  70.4661846  59.2727375  65.9442711
  70.2863407  58.2505178  67.0459557  76.1494624  50.8586065   2.3503398
  76.0273348  50.8379285   1.4011859  75.4440247  51.4208786   2.6704025
  82.3020458  22.8264141  62.3552990  82.0998955  22.0420218  62.8652954
  82.5991154  22.4919319  61.5090704  80.8996201  49.5889950  49.6111155
  80.8427906  49.5112419  50.5634594  80.9116173  48.6847878  49.2972755
  84.3569790  59.1437284   2.2977352  85.2269350  58.8701085   2.0069789
  84.2259108  59.9992661   1.8889474  20.2571289  12.8307813   7.6314592
  20.4364816  12.1412748   6.9922065  20.7414333  13.5900205   7.3070525
  51.0154764  16.4129919  13.9582061  51.2588731  16.1774916  14.8534870
  51.7629520  16.1388964  13.4268092  68.4118080  59.1119480  32.4213529
  68.9897251  58.3686638  32.5938940  67.5427198  58.7224197  32.3255491
  66.4245319  43.0379915  48.2695436  66.3940954  43.8095713  48.8352013
  65.8596897  42.3994637  48.7048292  57.8892456  73.1096844  18.3498096
  57.1988546  73.1253342  19.0126418  57.7246105  73.8856844  17.8141307
  80.8547974  60.4233122  36.2339973  80.1660633  60.0626802  35.6755853
  80.9873962  61.3129139  35.9064913  13.4191327  52.8787295   6.0571718
  14.3327527  52.8437523   5.7737874  13.0405669  53.6013989   5.5565023
  19.1618864  16.1070532  22.0561981  18.9386550  15.2419180  22.3996257
  18.4447996  16.3200134  21.4589786  60.2577201  11.7874760   1.1958312
  59.4954292  12.3301500   0.9942006  60.8049385  12.3407644   1.7531919
  83.6516762  25.2854943  58.3272648  84.3761730  25.1799226  57.7106714
  84.0557766  25.1919460  59.1899204  19.3537431  58.4246949  12.1673679
  18.8258271  58.1893543  11.4043807  19.4639449  57.6026229  12.6451587
  67.9211330  35.4829454  55.0871658  68.1462288  35.2123785  55.9773111
  68.6296272  35.1360607  54.5450068  46.1590385  55.3341150  58.4558439
  46.0432196  56.0371017  59.0950871  47.0147514  55.5062342  58.0629587
  83.6682788   9.9516434  11.6380882  83.6731426   9.8274225  12.5871753
  82.8096000  10.3307766  11.4505481   8.4049720  31.4771938  25.3555274
   8.7122744  31.0355115  24.5638752   8.8369006  31.0123134  26.0721588
  23.0488062  28.1004000  58.6772728  22.6036310  27.6216102  57.9781246
  23.9593792  28.1558466  58.3874226   1.9157735   1.9658321  13.0187702
   2.3254720   2.1425957  13.8656043   1.4639298   1.1308807  13.1409263
  41.7104678  74.4946055  41.6581153  41.0376506  74.6156291  42.3281097
  41.7152267  75.3190450  41.1717891  56.6411209  15.2941263  63.0548286
  56.6138744  15.9930956  62.4014282  57.5043774  14.8958111  62.9436111
  30.8001892  45.2534813  37.0758342  30.3848402  44.4950050  37.4862289
  30.1257459  45.6134075  36.4998054  42.7221571   1.9715585  61.2264299
  42.0504199   2.5522318  60.8689213  42.4053096   1.0897627  61.0307980
  78.9572144  29.8050117  51.4966249  78.7858009  29.9653125  52.4246073
  79.6618509  30.4136324  51.2745953  36.3820100  42.2318554  46.9931698
  36.4525342  42.1257162  47.9418516  36.8649316  41.4882994  46.6324186
   8.2530848  21.4336056  28.7101077   8.7138049  20.5959457  28.7580203
   7.4906985  21.2564653  28.1590938  24.9237919  14.9774396  67.5213814
  24.9538517  15.9025764  67.2775602  24.1056681  14.8848772  68.0095816
   3.8539428  30.8453441  56.8140841   2.9993361  30.6598496  56.4248896
   4.3149871  31.3550520  56.1478472  20.9085994  72.6033405   9.8029422
  20.9750896  72.8616504   8.8836574  21.4141851  71.7926411   9.8611020
  30.1344339  10.5693287  24.7927856  30.3191320  11.4681238  24.5202255
  30.5193416  10.5000919  25.6664466  37.8969717  37.1561861  47.2544861
  37.0258069  37.1457529  47.6509666  37.9547548  36.3260961  46.7813635
  62.7667093  62.7150917  18.5681248  63.6024189  63.0529547  18.8901043
  62.5343180  62.0222187  19.1863132  60.5393878   6.5892357   4.4529008
  61.3553897   6.4478678   3.9729118  60.4284660   7.5399441   4.4619703
  17.3983184  16.4306635   6.3117647  16.5639440  16.8811745   6.4424896
  17.7343265  16.7831940   5.4877185  18.9837448  19.0522617  34.5090103
  18.9292852  19.7887606  35.1179790  18.7870351  19.4338268  33.6534786
  14.4999448  10.8456463  11.8159484  14.6121303  11.6813368  12.2690200
  15.0169126  10.2240747  12.3284244  66.4988319  10.7328123   2.3809718
  67.1411411  11.1749166   2.9361438  66.8138496  10.8770841   1.4886808
  21.2323432  49.8733411   8.8914537  21.2956863  48.9554761   8.6273670
  20.9316592  50.3286461   8.1049918  74.4662333  32.0991516  53.2613182
  74.7154236  31.2565136  53.6409187  75.2372503  32.6534724  53.3817148
  63.4291697  11.8331540  64.7352648  63.4866714  12.3164296  65.5595064
  63.4852171  12.5072265  64.0579796  82.0498562  60.1178312  44.0483093
  81.9508934  60.7960463  44.7164917  82.9208565  59.7529173  44.2045879
  35.5184499  31.9839662   8.8746929  34.6822540  32.4057001   8.6768293
  36.1777774  32.5846094   8.5272073  20.0343137  55.7610325  13.2087039
  19.6275001  55.5055968  12.3807620  20.3735690  54.9427370  13.5713767
  21.4839260  11.7666382   5.2149629  21.6221324  10.9771389   4.6916818
  20.8090726  12.2528595   4.7412633  78.4647118  72.3419265   7.3367595
  78.0594527  72.9205183   6.6908264  77.8478657  71.6157250   7.4282073
   2.9072539  13.7032598  18.2372951   3.0512372  14.2461342  17.4621868
   2.8763930  12.8078979  17.9002380  62.5989151  21.2976336  56.9485760
  62.6872110  21.5934181  57.8546381  61.9987059  21.9269204  56.5486050
  73.6046696  37.3593926  46.7489672  73.6061287  38.1338596  46.1864471
  73.3036804  36.6507983  46.1801720  22.4694753  17.3363829  37.6877022
  22.9899859  17.1834302  36.8990922  21.8907690  18.0626440  37.4555874
  54.6737146  58.4468412  68.5347033  55.2925634  57.7173328  68.5675240
  55.1090574  59.1519642  69.0137672  55.2934408  54.5020437  44.4052076
  55.1911879  55.4144621  44.6758795  56.1019039  54.2153692  44.8299885
  77.4506664  23.5167003  57.4456263  76.7146635  23.4799576  58.0565119
  77.3275280  24.3390226  56.9714355  54.6025991  39.0098047  66.4178514
  55.2410889  38.3247280  66.2197876  55.0211239  39.8192453  66.1248112
  14.9022120  16.5096271  37.5005078  15.6343192  15.8986330  37.5838137
  15.3106421  17.3752820  37.5081515  57.3147249  63.2617140  59.3019104
  57.3456430  62.3686409  58.9588451  56.7624426  63.1999207  60.0812721
  71.2126207  57.1062851  34.7388959  72.1373177  57.3378277  34.8258042
  71.2006855  56.1498785  34.7759724  17.7751832  77.6529364  21.4227390
  17.5643211  78.3971695  20.8589267  17.8688626  78.0331282  22.2961807
  58.9718342  30.5659008  69.6127796  58.1340313  30.3316164  69.2134905
  58.9333725  31.5174389  69.7093391  36.7661548  27.9683995  54.7198582
  37.4075747  28.2310390  55.3800344  37.1585274  27.2057962  54.2947531
  75.6742716  66.8222475  32.7733517  74.9736881  66.1707306  32.8039551
  75.5615997  67.3329544  33.5750461  52.0956993  33.3721280  59.0335274
  52.5017452  32.5756097  59.3754625  51.1983252  33.3450198  59.3655252
   8.3275132  60.6118182   3.3676242   8.7105422  59.9359361   2.8084277
   8.9644580  60.7287983   4.0724992  68.3152246  65.2337170  55.2928972
  68.5959911  65.1241016  56.2014055  68.0992079  64.3482447  55.0004768
  41.5291063   9.9456114   8.6953639  41.0921804   9.1310209   8.4468364
  41.2047235  10.1322550   9.5763730  62.8752510   6.6733402  52.1980953
  63.3085910   6.0550731  52.7864742  63.5642044   7.2889608  51.9479179
   9.3611913  47.7436397   1.4280938   8.6518626  48.3627657   1.6006326
   8.9195447  46.9554750   1.1118984   3.4358697  64.8611597  16.4524650
   3.2405572  64.4858460  17.3110771   4.3796592  65.0199179  16.4695358
  21.0446350  11.9961780  39.2535686  21.8679945  11.5717357  39.0124225
  20.3664152  11.3901419  38.9552879  58.2753754  41.4396238  57.7479935
  58.9411831  40.7567930  57.8297091  57.4522591  40.9610224  57.6497459
  69.1208445  77.9163007   5.5236101  68.4677493  77.7193956   4.8520994
  69.7967564  78.4126643   5.0620984  12.5498061  74.7968964  10.4498481
  12.7895455  73.8791827  10.5785369  12.5514560  75.1707153  11.3310336
   6.9827358  29.4603342   8.3345556   6.3428060  28.9785045   7.8105687
   6.4536635  30.0005668   8.9214610  21.6645233  15.3476280   6.7523145
  22.3542968  15.6152815   7.3596048  21.7190830  15.9787124   6.0346889
  38.4662585  58.1876818  16.4550399  38.9263587  59.0251486  16.3985824
  39.0225749  57.5757937  15.9730243   7.3937564  54.3466727   5.9229373
   7.9377513  55.1241247   5.7969570   7.8160339  53.6704675   5.3931617
  19.6551757  49.4451580   0.8682870  20.3954415  48.8828276   1.0963678
  18.9268832  49.1048716   1.3879299  37.3706627  44.3810797  65.6952095
  38.0767751  43.9416218  65.2213812  37.7929163  45.1326180  66.1112881
  49.7951786  11.3539690   5.4785013  50.1853649  10.6339926   4.9829006
  50.0732938  12.1431249   5.0136184  10.7013003  -0.2091247  18.4567928
   9.7882978   0.0621504  18.5520267  11.1710326   0.5990356  18.2507228
  81.8795584  49.7124428   3.7033748  81.6359566  48.8417667   4.0177154
  81.5257285  50.3119415   4.3603610  73.7142515  29.1004181  50.2691841
  73.2942390  29.3890429  49.4589281  74.4632959  29.6872759  50.3729010
  19.9135057  40.0480026  19.3093108  20.1590148  39.4049686  19.9744891
  19.1208593  39.6891731  18.9103317  82.2570324  60.9457541  66.2771034
  82.0119953  60.4832792  65.4756594  82.5486660  60.2552748  66.8724346
   0.2083116  10.0234403  28.3476663   0.8518129  10.7218828  28.4673047
  -0.2396054   9.9633398  29.1914606  26.1812568  67.0916224  46.2323141
  25.8013201  66.5489197  46.9232225  25.4606056  67.2387028  45.6197309
   1.1153326  26.2650675  54.5000457   1.3183413  25.8326477  53.6705684
   1.8986807  26.7770428  54.7012519  54.3731796  20.1425056   2.8172492
  55.2076208  20.1505689   2.3483466  54.0574919  19.2431883   2.7289342
   7.9702395  13.9498234  65.8355188   8.4256095  13.1397688  65.6060028
   7.1001357  13.6646640  66.1145067   7.6540534   6.4718002   7.0553588
   7.8528229   6.0201544   6.2351512   6.9909111   7.1197504   6.8173742
  68.8713538  73.7898735  23.1149768  68.7239920  73.1443981  23.8062572
  68.0357372  74.2497901  23.0346393  52.7641249  27.7443099  52.7216005
  53.5171366  27.4127841  52.2324181  53.0189848  27.6591206  53.6403036
   3.1722312  79.9893264  29.7682475   2.7346377  80.3324656  30.5473518
   3.2842879  79.0558676  29.9480438  73.0023766  68.1031752  49.7130489
  73.2693958  68.2756519  48.8101721  73.0611134  67.1519899  49.8026371
  35.3056059  36.6088146   0.8698415  35.2115259  37.3136705   1.5105914
  35.4942522  35.8311981   1.3951587  36.1705737  68.3793406  15.0892448
  36.4461093  67.4822048  15.2775478  36.1016708  68.7942080  15.9491062
  67.5386810  33.3710647  51.8806887  67.9699755  34.0026140  52.4563265
  67.9726076  32.5391436  52.0700216  83.4237862  52.5468016  67.4910212
  82.9834557  52.8962851  68.2657433  82.8652096  51.8246698  67.2033691
  34.9258285  80.4478649  43.0535316  34.7605567  80.0226359  43.8950157
  35.8729510  80.3799490  42.9327964  78.7158047  38.5995437  17.2554683
  79.3015038  38.1140732  17.8364181  79.1378962  39.4518446  17.1475124
   9.3550305  51.8936876   9.8306941   8.7811093  52.2960285   9.1787958
   9.3873124  52.5289158  10.5460071  51.1018753  64.1296482  42.9177809
  50.9645939  63.2642794  43.3031654  51.4157677  63.9500904  42.0315170
  14.1203135  30.2348208  62.2876215  13.3686560  30.5697322  61.7986679
  14.6148890  31.0170650  62.5320053  18.4299188  65.6372909   2.2830104
  18.7820201  66.0943059   3.0468082  17.5053268  65.8840565   2.2614240
  56.7625629  71.5843229  48.4985256  57.0969759  71.9833140  47.6952838
  55.8185231  71.5148644  48.3564185  77.3622105  45.0939983  22.1315383
  77.7540205  45.4949421  21.3556766  78.0465315  45.1448387  22.7988815
  46.7191744  54.5468378  61.3793707  47.5953388  54.9310017  61.3479233
  46.5192842  54.3313885  60.4684067  26.4246217  20.2489752   7.5922107
  25.5722896  20.4329103   7.9870891  26.2339965  20.1111358   6.6643667
  52.4379026  62.7746205   5.4396486  52.2010123  63.4480242   6.0773324
  52.2325527  63.1659583   4.5905780  29.9770729  33.1028646  31.9463252
  29.3792430  33.3223051  32.6609420  29.5646802  33.4742969  31.1664581
   0.1771360  56.6608898  10.4797935   0.2125745  55.7044748  10.4640388
  -0.1106925  56.9044189   9.5999717  66.9048119  44.6315527  51.3252735
  67.1112013  43.7060976  51.1942387  67.6996851  45.0022602  51.7086554
  67.0561647  62.9610205  54.8618221  67.0995331  62.0346498  55.0988674
  66.1635542  63.2240915  55.0860405   2.9747872  68.2454781  18.6646461
   2.1196990  67.8177075  18.6191749   3.2621245  68.3038954  17.7534580
  18.8710551  16.0782137  61.7895889  19.4033580  15.4039087  61.3674450
  18.3935123  15.6117525  62.4755907  34.1928696  71.2459926  16.9979095
  34.8736249  71.2407688  17.6708030  34.0675419  70.3231458  16.7768287
  51.5640163  57.0627642  66.0984182  50.8044624  56.7759323  66.6054058
  51.6987371  57.9727793  66.3628960  77.7534294  44.5539427  67.7113581
  78.6071491  44.7453451  68.0996418  77.8341866  43.6576653  67.3851728
  44.8270933   2.2661680   5.3104114  44.5211450   2.7445930   6.0809564
  45.7196466   2.5825495   5.1708364  25.3285305   3.4401697   5.2331447
  24.4146005   3.6969322   5.3557681  25.6062690   3.1250948   6.0932731
  83.0132170  76.5137462  57.3452616  83.8695235  76.8279449  57.0550013
  83.1971593  76.0223697  58.1458569  52.8971720  33.4207344  56.5009785
  52.7705860  32.4734855  56.5550995  52.8000736  33.7272501  57.4025631
  57.4112940  62.0655680  46.8079376  57.4159861  62.9718781  47.1158600
  58.2950258  61.9232464  46.4688253  51.4572239  44.3082142  47.7184105
  50.7111740  44.8458338  47.4527025  51.8109751  43.9667654  46.8971300
  49.9631874  31.1895698  17.3566818  50.9120742  31.0782093  17.4153995
  49.6242658  30.3013986  17.2448062  63.6945820  31.0449624  46.8467951
  64.4698000  30.9372425  47.3978567  63.7058353  31.9685054  46.5954590
   0.7006507  61.3721661   9.1093253   0.1798730  60.6474761   8.7631416
   1.0133367  61.8351177   8.3320665  69.4107580  24.6502113  43.8564825
  69.4607592  25.4834270  44.3249750  69.2117739  24.0053320  44.5352840
  55.9347820  39.9026632  57.2655773  55.1841545  39.6755290  57.8143930
  56.0100985  39.1741037  56.6493273  75.3203106   8.9528149  57.2282505
  74.7533989   8.4756380  57.8341770  75.2570486   8.4654158  56.4068651
  61.5291929   6.4139193  55.3633642  61.8326521   5.5299622  55.1565647
  60.6480837   6.2883776  55.7156658   8.2131486  74.5602659  24.5368575
   7.2869783  74.6822218  24.3281268   8.6446147  74.4984821  23.6846542
  35.4508209  33.6637926  60.2088833  36.2708569  33.3666325  60.6031752
  35.4010367  33.1936026  59.3766117  43.8431263   8.1746185  59.5039177
  44.5572758   8.7249601  59.8253870  43.1772137   8.7951630  59.2077446
  41.8038455  10.1468653   3.0386257  41.0221044   9.8497051   2.5729989
  41.9604150  11.0300726   2.7044677  39.6141044  24.4611734   8.7777709
  38.9732543  24.4906563   8.0673694  39.3789283  25.1968664   9.3431758
  13.9813892  31.7037720  12.2883510  14.6457378  31.0912174  11.9726657
  13.9614288  31.5681785  13.2356929  68.3578740  75.7767443  42.6837825
  68.9489447  75.1145367  42.3255252  68.0786835  76.2855534  41.9225978
  29.4277358  53.9215612  61.1735773  29.2402887  53.2815266  60.4869509
  30.3135777  54.2281389  60.9798622  60.2968311  28.7173939  67.7494907
  59.6640682  29.3398666  68.1077719  59.8925018  28.4036613  66.9405890
  38.7477151   3.3598226  38.4242820  39.3163578   3.1129259  37.6949500
  39.3146888   3.8598770  39.0114021  73.9611660  79.8243956  15.3501891
  73.6186634  79.3251352  14.6087932  74.4686257  80.5302815  14.9496364
  75.9420967  53.8673306  32.7448010  76.2181234  54.7808123  32.6700544
  76.7601871  53.3741522  32.8058958  81.2325189  21.6104835  27.8784561
  80.8049081  20.9014314  27.3982238  81.3295553  21.2723583  28.7686729
  24.3920665  73.5497955  22.0988464  24.5959907  72.6250390  22.2383880
  23.5572486  73.5429625  21.6306018  80.5600929  44.0439701  65.8680630
  80.6719780  44.9013233  65.4573870  80.4360008  43.4414721  65.1346922
  31.8594305  21.3268179  10.7165717  30.9878055  21.7090982  10.6147670
  31.8389598  20.5366558  10.1767015   5.5708808  25.6797743  62.8425264
   6.2690085  26.1404848  62.3771238   5.8046550  25.7618952  63.7670994
  81.3067995  57.9401294  12.9179286  80.9509694  58.5798148  12.3011493
  82.1854054  57.7521900  12.5878333  -0.0286050  61.4759950   0.3802204
   0.7935910  61.7118696   0.8098554   0.1696496  61.5170173  -0.5553198
  46.8224525  36.3022590  56.1638117  47.4935150  36.7171550  56.7058134
  47.1377897  36.4116096  55.2666855  69.0627527  62.4972868  31.9291687
  69.9702406  62.7713346  31.7965078  68.5594368  63.3107471  31.8947768
   9.1079346  18.6641926   8.6249065   8.5564319  18.7376493   9.4038057
   9.6666829  17.9064363   8.7976550  67.8080273  60.1016521  55.4907608
  68.0469799  59.2679453  55.0857115  67.9438019  59.9603558  56.4276886
  63.9143658  35.3150153  51.4056301  63.8331175  35.2212977  52.3547602
  63.9163542  34.4165373  51.0755348  44.6974555  10.6832022   0.7866573
  44.6523515  11.6360563   0.7075023  45.2345792  10.5326361   1.5645122
   6.8990998  53.6428062   8.6829042   6.8934350  54.3601886   9.3165969
   7.1858745  54.0482978   7.8646373  55.5320541  15.6091684   3.3184814
  55.0283042  15.2311653   4.0393066  56.4200012  15.2751440   3.4457969
  23.5207836  36.7447847   5.0882911  23.5023920  36.9667953   4.1573762
  23.3104841  35.8113855   5.1161193  58.3801937  65.1339149  69.0563154
  58.8156986  65.3883505  68.2427835  58.2622433  65.9560680  69.5321131
  81.0397993  71.7991618   6.8220186  80.1410519  71.9606284   7.1090984
  80.9564721  71.5537671   5.9005689  48.9100695  45.5376530  51.7215538
  49.2360449  44.8022985  51.2026834  49.5012379  46.2603235  51.5106058
  38.5180704  13.4392303   9.7860669  38.3769695  13.3728784   8.8416480
  38.1792633  12.6157707  10.1372909  17.6069087  62.3015833  64.5694923
  16.8665808  62.7285004  65.0006247  18.3563155  62.4955511  65.1325226
  31.5137916  75.2441386   2.0937442  31.4013152  76.1188964   2.4657392
  31.6692786  75.3983072   1.1619281  83.4661518   6.9007291  41.4896488
  84.0950381   6.4042177  42.0133066  82.6402460   6.8193998  41.9666100
  45.9241438  37.1136904  51.1030722  46.8439341  37.3314309  51.2540960
  45.9218168  36.6522622  50.2644396  33.8418285  14.0977949  13.2038688
  33.4122173  13.9756292  14.0504741  34.7758428  14.1269058  13.4112357
  73.1717097  77.7294592  20.5474662  73.3924042  76.7994694  20.5988979
  73.3519541  77.9684691  19.6382808  22.9852144  10.1610655  27.1654987
  23.1774084  11.0144800  27.5540542  23.8303367   9.8496479  26.8414211
  67.4267231  55.0183002  17.4414062  67.1271573  55.3861527  18.2727718
  66.6270195  54.9045233  16.9278240  15.6028193  32.9647088  48.9232397
  15.9160346  32.1972466  49.4019175  15.9306258  32.8415847  48.0323887
   1.4515678  29.4013399  12.9133701   0.5308715  29.6626037  12.8962802
   1.6161434  29.0466589  12.0396709  85.1027094  53.7465767  10.3724574
  84.5081746  53.0297462  10.1513051  85.7276856  53.7715952   9.6478795
  36.4379636  14.4130606  14.1860771  37.0438949  15.1359314  14.3489742
  36.7044822  13.7330765  14.8048114  83.6247537  30.2758831  37.0589256
  84.1842983  29.5843309  36.7055129  83.0010650  29.8157162  37.6206111
  58.0535698  37.4836564  56.3698626  57.9243946  37.9173851  55.5264044
  58.4526539  36.6423941  56.1479568  38.4650318  44.1676754  32.6600360
  39.3684665  43.9106983  32.8444194  37.9530994  43.7621731  33.3598422
  36.5956044  39.2997622  61.1572790  36.1780000  38.4873152  61.4432335
  37.3489213  39.0130305  60.6410170  61.5117216  55.8712578  61.2580967
  60.8323669  55.2600813  60.9731960  62.2590923  55.3141928  61.4757013
  75.4301834  29.8996544  54.5071411  75.6609344  29.2430449  53.8499880
  74.8023367  29.4568014  55.0780344  48.7417833  17.9325575  14.3267440
  48.7399522  17.7938598  15.2738380  49.4212095  17.3429626  13.9996433
  48.7135172  44.5162201  56.5837765  48.3042765  44.9355793  55.8268833
  47.9844904  44.1210890  57.0619202  84.7513008  50.2803755  52.9177284
  85.0931644  51.0209942  53.4185743  85.4669476  50.0378418  52.3301458
  34.6630692  37.0052147  48.0398035  34.1967416  37.1201777  48.8677835
  34.5965576  37.8565121  47.6072550  27.4988608  61.5662316  22.4437713
  27.4563460  60.6515626  22.7227020  27.3868518  61.5323714  21.4937496
  44.4159929   2.7913278   1.4043521  43.6027614   2.8095001   1.9088840
  44.3583957   1.9886774   0.8860206  70.7411038  78.9904885  14.3093585
  70.1319872  78.8354925  13.5874175  71.2913977  78.2075767  14.3307018
  77.0009028  44.8920036  16.1732101  77.9173933  44.6165306  16.1534309
  76.7548643  44.9718405  15.2516174  57.1107721  34.1536951  63.1170273
  57.3264074  33.2642889  62.8365135  57.7783489  34.7029376  62.7060461
  19.2457008  47.7560234  68.4396791  19.4918180  46.8538189  68.2354927
  19.3223524  47.8155231  69.3919468  58.0259371  32.5119948  49.6073675
  57.5986958  32.7208805  48.7766695  57.3903799  31.9689941  50.0736856
  18.0090086   9.6537441   6.5512752  18.3380643   8.7557834   6.5109729
  17.9792348   9.8561806   7.4863481   9.8842101  79.6921925  12.0827674
   9.3601279  80.4437451  12.3597812   9.7517781  79.0408973  12.7716159
  83.0810062  13.2035393   8.0666589  83.3091060  12.2755188   8.0120849
  82.6063816  13.2852787   8.8938712  81.0861466  10.7103390   7.8384065
  81.1538456  10.9527582   6.9148921  80.5778048   9.8992771   7.8364896
  21.7704511  60.9223080  64.9769545  21.2473798  61.0018826  65.7746363
  22.5800514  61.3936710  65.1734066  83.8408039  15.6724161   2.1472167
  83.7947700  14.7339004   2.3297119  84.6325848  15.9655517   2.5981998
  54.4020367  65.7511425  60.7289076  54.1551447  66.5683365  60.2959299
  54.6625566  66.0166073  61.6108894  14.6687430  77.0677090  64.5723391
  13.8287753  77.2885847  64.9747086  14.6117800  76.1279631  64.3995190
  60.7408524  46.1568975  48.3261108  61.3337421  46.1646652  47.5746775
  60.3932381  45.2653122  48.3477259  58.8104153  28.8007021  51.7856026
  59.6370411  29.2607379  51.6396999  58.4669209  28.6407781  50.9065914
  82.9841042  40.5961132  38.1915998  83.5809231  41.2560797  38.5444260
  83.5563755  39.9628735  37.7582955  36.5391485  52.2928757  16.6547012
  37.2335140  51.7851108  16.2348556  36.8184988  52.3722595  17.5667762
  12.8029399  48.7464801  25.3712940  13.0334716  47.8374545  25.5630206
  12.3146396  48.7014691  24.5492458  29.3672601   7.7426571  46.2932300
  29.0705530   8.4018368  46.9206714  30.3213541   7.7514690  46.3697624
  65.2954435  39.7791576  56.7593431  65.3436327  38.9544106  56.2759113
  64.3584442  39.9279428  56.8863440  56.6177360   7.3593086  21.2674808
  56.4356033   6.4242500  21.3609218  57.2128192   7.5607389  21.9896602
  42.8197622  53.2523203  64.3755674  43.5449171  53.2376146  63.7509346
  43.1640005  53.7288094  65.1310158  12.3181920  66.1914734   2.5120305
  12.9366021  65.5737356   2.1219062  12.7339797  67.0468930   2.4042796
  21.7618553  21.7366499   4.3224525  21.4094106  22.1690601   3.5446166
  22.3657838  21.0788101   3.9778470  57.3918872   9.6248998  43.6858130
  57.8505092   9.5837774  42.8466415  58.0609088   9.4084062  44.3352509
  19.1256922  75.9134150  68.7860155  19.2674845  76.8600321  68.7924671
  19.7811145  75.5689096  69.3926144  75.7525492  78.5591269  68.5465670
  76.1630917  78.5576296  69.4112539  76.2477064  79.2086983  68.0474567
  63.6683941  52.3333597  29.2293191  63.2708979  51.7346430  28.5970497
  63.8267708  53.1359577  28.7323451  59.0834037   9.4742674   3.9089536
  58.5481445   8.9225763   4.4793701  58.6816875  10.3410524   3.9684152
  75.3694868  46.4917755  57.0338202  74.6262169  45.9208822  56.8392467
  75.3085709  47.1935511  56.3857222  49.6674871  42.5535154  65.4545307
  49.3195295  41.6783810  65.2833652  49.3394995  42.7754593  66.3259602
  21.1083786  24.2677063  22.1142196  20.8263580  23.3594602  22.2227763
  20.9930603  24.4443315  21.1805438  70.0065899  58.3440924  44.6256351
  69.8066950  59.2728281  44.5085001  70.1041174  58.2375717  45.5718803
  54.1878025  30.7672876  11.8115424  54.4941131  29.9230236  11.4804458
  53.2391922  30.7439989  11.6857814  47.8908323   0.6571855  47.6749945
  48.1737183   0.0954332  46.9534397  48.1846165   1.5334215  47.4257231
  66.5085411  36.8276501  63.5058117  66.6148376  37.3044562  62.6826525
  67.2860527  37.0543337  64.0160322  77.7577626  54.5971338  29.9066924
  77.4711071  54.1206352  30.6858062  78.5527502  55.0527267  30.1835727
  30.1091433  25.6746387  69.0238428  30.4398298  25.8116102  68.1360817
  29.9530959  26.5571356  69.3601179  74.1521788  56.9927597  54.9220133
  74.7146654  57.5687647  54.4042683  74.7596407  56.4856052  55.4605436
  33.8188783  26.6927999   6.3736820  33.8085834  26.1443371   5.5892610
  32.9377309  26.6068691   6.7375945  17.9589992  74.7342757   9.2897224
  17.3554711  75.1835994   9.8814105  18.5786824  75.4119925   9.0196800
  16.3793235  67.5142912  18.4008884  17.1519857  66.9579868  18.3021545
  15.6829410  67.0397596  17.9469108  83.9645659  71.6019181  26.2082767
  83.4744870  72.2219876  26.7482471  84.7848450  72.0534877  26.0096263
  10.1726556  79.9574137  56.3778639   9.5479417  79.4887829  56.9313526
  10.3776848  80.7531357  56.8688011  12.1553153  61.7278004  51.5967846
  12.3571128  61.0705376  50.9308147  11.3126773  61.4522123  51.9576836
  70.6897211  46.4723825  38.4603405  71.0092068  47.2240067  38.9595556
  71.1109638  46.5564489  37.6049376  32.5885253  25.2665701  31.8700576
  33.5341125  25.2372350  32.0157313  32.3009162  24.3603220  31.9806695
  12.7306262  24.7922987   6.4092874  12.2748987  25.1275724   5.6371927
  13.5502187  25.2859968   6.4368438  52.4292911  75.1731203  44.6409845
  53.1799472  75.7626692  44.7129726  52.3071827  74.8315654  45.5267954
  41.1677694  49.3559551  52.6318264  41.0439253  50.2339983  52.2713661
  41.7877436  48.9371824  52.0347548  19.4390779  72.9613618  18.9368438
  19.5815616  73.7666921  18.4394740  19.5262771  72.2615413  18.2896327
  18.6924116   3.4353775   1.9727897  19.1747562   2.6186699   1.8440866
  19.3575851   4.1200632   1.9021987  82.5450611  63.9898729  56.2810516
  82.3793793  63.8916349  55.3434324  83.4038639  64.4097805  56.3298082
  44.4838039   0.5830664   8.0393695  43.7852708   0.0323051   7.6858901
  44.7369949   1.1471599   7.3086690  41.5818969  30.0563997   5.0362443
  41.3376085  30.2721256   5.9362506  42.5228063  29.8855299   5.0778579
   4.0074592  63.8992242  34.1270446   4.2301517  63.5775737  35.0006484
   4.8053651  64.3294076  33.8196086  47.0321560  36.6004467  65.0522184
  46.9775772  36.0389948  65.8255386  46.4022636  37.3013473  65.2201700
  28.1453935   7.6209873  13.1414508  27.8063432   7.7741903  14.0233802
  28.6493484   8.4090275  12.9383373  44.0341139  53.5573721  54.1574764
  44.9314833  53.2244968  54.1700315  43.9742088  54.1138792  54.9339676
  16.1149329  61.3950396  62.4689770  16.6135043  61.7536449  63.2031870
  16.0152358  62.1309185  61.8650055  82.3936653  66.6130733  46.7767143
  82.7900505  67.4604559  46.9793272  82.5138474  66.0958719  47.5731421
  41.9456045  22.4164289   2.7376460  42.0309822  22.9953379   3.4951495
  42.5146142  22.8055090   2.0735120  18.5912328   2.5835123  55.2718115
  17.7530151   2.9461565  55.5583572  18.6347585   1.7228021  55.6883478
  43.1482267  12.3557949  54.2062902  44.0224171  12.7096450  54.3700171
  42.5928164  13.1283545  54.1018677  19.1065711  30.5434251  63.5128260
  19.7908324  30.0592017  63.9749432  19.0903300  31.4004612  63.9388037
  31.5646783  40.0617164   9.2898750  31.5470115  39.1069263   9.2243671
  32.2276536  40.2438778   9.9558400  81.4861202  56.3007689  52.8355265
  82.1975613  55.8019018  52.4339914  81.8312740  57.1902084  52.9129839
  82.7476345  76.9418410  12.8492164  82.4857460  77.7166847  12.3519515
  82.7379118  76.2311939  12.2080325  75.3462688  32.2620958  27.7387809
  74.5088569  32.1359247  27.2926235  75.5292026  33.1969494  27.6449012
  56.9634390  63.2189465  64.1371870  56.5835094  63.1968307  63.2588959
  57.1936226  62.3083162  64.3215799  70.8021975  61.7233419  58.8728571
  70.3887987  61.2264633  59.5788622  71.0364008  61.0630941  58.2205868
  80.0923634  50.5503464  44.4905329  80.4640388  50.5353928  45.3725004
  79.9247932  51.4766359  44.3169117  31.5079347  37.2737593   9.2289352
  31.8899671  36.6531795   9.8495530  30.7313816  36.8274635   8.8912773
  15.7301955   4.0419283  36.8761563  15.0009208   4.6137418  37.1157932
  15.4446035   3.6153307  36.0682654  61.4510814  71.7333740   4.9148940
  61.9227020  72.4328083   4.4625806  61.1967269  71.1271805   4.2191505
  18.2146758   5.8642745  56.8301725  17.3046702   6.1374915  56.7141008
  18.6855525   6.2888741  56.1130810  39.4069187  45.2540535  13.4729099
  40.2013389  44.7649425  13.2586574  38.7651197  44.9643844  12.8245067
  42.6048604   5.6733841   1.8096971  43.0068532   6.4734501   2.1481180
  43.0423204   4.9663824   2.2840404  18.4589950   5.2351421  38.1578826
  18.6138860   4.3986410  37.7191257  17.5702325   5.1621813  38.5057544
   0.3147238  75.3593159  62.3945284   0.2538317  76.2451553  62.7520370
   0.6825846  75.4791451  61.5190029  59.7593784  52.1425056  63.0432081
  60.6955862  52.1363878  62.8439617  59.6988678  52.5723934  63.8963032
  52.9428569   3.0162090  10.7460880  53.7842838   2.6780933  11.0525703
  52.3324005   2.8190416  11.4565086  71.9737426  33.3830780  17.6029491
  71.8559352  34.2044824  17.1258258  71.3680259  32.7727932  17.1823406
  82.0274925  47.9731512  39.9854922  81.7198181  48.7219286  40.4962778
  82.9548359  47.8952122  40.2095032  54.3211412  77.4013901  42.1683168
  54.0236187  76.5816498  41.7736769  54.8048306  77.8418970  41.4695835
   3.7016527  26.3326496   6.9103002   3.6573473  27.2691387   6.7172908
   3.3878891  25.9083980   6.1116790  72.1363115  52.2511148  53.4246874
  71.1894846  52.3832369  53.3767939  72.5079823  53.1153345  53.2480145
  22.2560302   7.5452894  19.5558071  22.9576818   7.1694321  19.0241622
  21.7024032   6.7986006  19.7842597  61.0091392  15.8499426  18.2254981
  60.1853649  15.6320089  17.7894592  60.8771888  15.5814689  19.1347503
  81.0948086  29.6708274  59.5139313  80.8752346  29.2364764  58.6896992
  81.0250950  28.9811993  60.1740694  38.5135452  28.2893843   7.2287940
  38.4371225  27.4881595   6.7106914  37.6624385  28.7172550   7.1351528
  20.7734815  55.7855839   3.6882495  20.9973709  55.4253429   4.5463466
  21.0240547  56.7077869   3.7428521  35.2899509  76.3479404  14.6935653
  35.9611182  76.7837958  15.2187442  34.9655871  75.6442575  15.2555656
  74.2871748  50.1631979   7.8221130  75.0157486  50.7754568   7.7194023
  73.6700188  50.6191436   8.3943557  16.8814009  36.1932969  53.1789017
  17.7179259  36.5647745  52.8988075  16.9543570  35.2602887  52.9778957
  46.2862913   6.9134039   4.3277597  45.9313432   6.2468094   3.7396335
  46.9817344   7.3335117   3.8216972   7.2287088  70.9645251  30.6261920
   7.0747237  70.2147273  31.2009239   6.5449815  70.8996371  29.9594497
  45.6322233  54.3867248  11.4186763  46.3713161  53.8465637  11.1390113
  45.0119678  54.3391270  10.6911754  51.1413518  21.0853952  25.1693439
  50.5152980  21.2452310  24.4631290  50.6252138  21.1710066  25.9709071
  41.7011213  69.4504166  51.4656210  41.5010881  68.6735010  50.9434891
  42.0538187  69.1038752  52.2852230  42.4906198   5.2322429  31.1324119
  41.6550294   5.4369205  31.5520858  43.0948345   5.0863069  31.8603229
  45.7067060  61.1001301  36.9843149  45.9864664  61.2515402  37.8871107
  44.8051262  61.4204121  36.9560361   9.6636014  68.4037880  38.5798549
  10.5010896  67.9700307  38.4164333   9.5167928  68.2948784  39.5194339
  72.7532244  55.7336664  60.8225155  73.1150293  55.1839161  61.5175676
  73.3960724  55.6797123  60.1153564   8.6945647  54.0126276  42.6688862
   8.4939975  53.2021141  43.1369352   9.4025534  53.7746048  42.0702744
  40.0974933  22.1637243  30.2809429  40.0365917  22.7510399  29.5275592
  40.4648916  21.3547272  29.9248885  62.9609767   6.4636272   3.0285262
  63.4645359   7.2369713   2.7743530  62.6881687   6.0720962   2.1987581
  49.7658531  68.1323379   1.2081479  49.7736112  69.0337318   0.8862018
  50.5974475  67.7641910   0.9095620  69.6232311  16.8382305  18.6630248
  69.1756622  17.3510736  19.3360137  69.8857204  16.0335869  19.1101074
  57.4311315  76.9484405   5.2894115  57.9997813  77.2307686   6.0057639
  57.7533590  76.0776452   5.0567769  43.7677280  27.5094503   0.3096532
  44.6125547  27.7188915   0.7079362  43.6405174  28.1882662  -0.3531075
   4.4441241  56.5962458  45.8943605   3.5954398  57.0387840  45.9057665
   4.8287410  56.7937899  46.7483377  45.4179811  59.0777779  48.4814358
  46.1902905  58.8044786  48.9764977  44.9973440  59.7341156  49.0368795
   9.4489579  30.7472601  65.7258272  10.2954106  31.1441888  65.5204058
   9.4371657  29.9338045  65.2214670  64.0052878  77.2277574   9.9813270
  63.1461059  77.5541691  10.2487039  64.4811522  77.1050910  10.8027458
  27.8717094  72.7378825  10.3079748  28.3178191  72.9350762   9.4843673
  27.5183539  73.5794119  10.5964183  46.5646736  38.6394209   7.9555892
  46.3064043  38.8437504   7.0568227  46.0783617  39.2649692   8.4926366
  63.3882570  43.7838364  67.9602814  63.3875990  43.3132982  68.7938452
  63.0576515  43.1477976  67.3259449  57.9745960  60.6856775  58.4513998
  58.7742138  60.3152704  58.0777168  57.4512196  60.9411430  57.6917648
  74.4435398  33.0259031  12.2982215  74.2409603  33.4427780  11.4607238
  73.6416332  33.1193918  12.8124713  12.4877280  60.8535719  29.5836949
  13.2450026  61.0681915  30.1284075  12.8586310  60.4043531  28.8241768
  60.3415823  78.1362677  54.2898703  60.8542395  78.1296825  55.0981903
  60.9578037  77.8560114  53.6131430  47.2450876  64.6628761  49.7631407
  46.6077185  64.4039345  49.0976048  47.5229788  63.8384247  50.1622581
  64.7417688  56.0719299  58.2596350  65.2800369  56.1986685  59.0409422
  64.6322536  55.1231766  58.1955528  47.5781775  61.7497253  67.3133659
  47.6332188  61.6177702  66.3669062  48.3127785  62.3284006  67.5176382
  14.0479426   7.5156774  36.6648221  14.9150186   7.8600683  36.8788481
  14.0368228   6.6391172  37.0491910  56.8427849  44.1203356  58.5653782
  57.7357817  44.0590811  58.9045477  56.8983364  44.7644377  57.8594971
  70.0219727  50.5376863  47.2569656  69.9237347  50.1887751  46.3710546
  70.9600067  50.4742956  47.4366999  72.2396898  62.9198980  51.4683723
  71.5328360  63.1605482  52.0672703  72.4641132  63.7365294  51.0223007
  32.4419427  49.4522667  63.5151625  32.0158601  49.8582935  62.7602959
  32.2740197  50.0562382  64.2385244  19.5456046  55.5729389  40.2685785
  19.4171351  54.6847725  40.6015730  20.4943198  55.6992817  40.2831125
  68.1884909   8.2243484  60.5542135  68.8204050   8.8494503  60.9094000
  68.5425711   7.9865605  59.6972895  53.3544246  25.2196401  12.8951549
  53.0545799  24.9539656  12.0258140  52.7948562  25.9613890  13.1251907
  77.9965067  77.9317236  37.1318865  77.1761227  77.4817038  37.3335767
  78.6705828  77.2607756  37.2399759  83.9931488  32.6418018  54.7807217
  83.6616993  33.5222721  54.6042252  84.0111732  32.2163606  53.9234591
  76.0266201  14.5133585  10.1795577  76.0127250  13.7168068   9.6489477
  75.3258506  14.3872637  10.8192825  62.1038620   5.6700844  31.6129207
  61.9928447   6.1178917  30.7742500  62.2051708   6.3769764  32.2503185
  17.2190897  10.7827514  29.2456436  17.6071159  10.0096792  28.8357257
  17.3948709  11.4941019  28.6297511  82.4893951  62.0695543  45.9514523
  82.8451157  62.2696352  45.0856209  83.2453442  62.1135235  46.5369749
  13.3105426   1.5063562  54.4588089  13.7986713   1.0563078  53.7693024
  13.6162286   1.1027612  55.2711487  82.1053886  79.9685955  68.5360193
  82.3492432  79.4362831  69.2932606  81.5492344  79.3948317  68.0090284
  63.1394659   1.6149320  51.9053841  63.1891881   0.6768217  52.0889950
  62.2060548   1.8202486  51.9585133  26.1514465  35.8378929  15.5771827
  26.1427680  36.6909641  15.1430988  26.1257688  36.0443157  16.5115070
  29.5948640  51.2274498  20.2393913  28.9345638  51.3376945  20.9235572
  29.7957031  50.2916092  20.2489280   8.5618059   8.7107319   5.2173471
   9.0341560   9.5042366   5.4692745   8.7941519   8.5751528   4.2987251
  18.8813405  75.6913523  40.2126502  18.7064223  76.1016778  41.0595702
  18.4269433  76.2466292  39.5790672   7.0267123  64.9443293  50.9467030
   7.6210421  64.4414568  50.3898239   7.4141234  64.8906422  51.8203497
  13.1842189  76.6272310  17.2331333  13.9489560  76.3253049  16.7429828
  12.6883988  77.1515922  16.6042899  45.5556393   5.6624866  48.2614231
  45.8691406   6.1282021  49.0366983  45.6398582   4.7363138  48.4880114
  38.7256241   2.9057986  69.1097307  38.5470557   3.8401696  69.2160130
  38.4628749   2.7125841  68.2098055  52.4011413  32.4294323   5.7556009
  53.0934516  31.7724842   5.6823301  52.8422824  33.2620663   5.5872344
  27.7417127   6.2391943  24.4472312  28.3910266   6.7741674  23.9906978
  27.9784433   5.3376192  24.2296314  26.1960975  19.4148582  17.9165553
  26.4414779  19.4648022  16.9926833  26.3854829  18.5103744  18.1661128
  62.9561758  44.6595144  45.7078171  63.7977362  44.2161083  45.6010294
  62.4878597  44.4842863  44.8916054  63.9642898  16.8483633  24.1053390
  63.0451385  16.5870518  24.0495967  64.1349784  17.3014253  23.2796096
  37.7894012   4.1983503   6.7306995  38.5928146   4.1897768   6.2104225
  37.7245418   3.3118242   7.0858001  33.1052534  44.2395729  11.3931274
  33.5019104  43.6329407  10.7679080  33.8351289  44.5322651  11.9388770
  35.8632140   4.5352068  67.7184057  35.9241538   5.2467336  68.3557796
  34.9231296   4.4066610  67.5920916  69.8949671  28.5430098  59.4447088
  70.7045174  29.0418172  59.5544863  70.1613379  27.6290727  59.5447111
  32.2522788  66.7305879  11.0696887  32.6565604  66.8660406  10.2126932
  32.8209739  66.0955981  11.5051174  37.0728342  37.2566885  22.7080154
  36.5300695  36.9861168  23.4485816  36.5180913  37.8585333  22.2117614
  53.3391563   8.4248346  10.7964324  53.1379501   7.4894852  10.7669830
  53.3133117   8.6461872  11.7273330  70.0759506  37.9731512  51.7196321
  69.4335604  37.8505802  51.0206747  70.9190464  38.0036378  51.2674284
  59.7510719  27.0993805  56.6915369  59.0437365  27.5618839  57.1409798
  60.1857281  26.5980196  57.3814249  65.0230026  58.9952612  43.1096220
  65.3735924  59.5499897  43.8064671  65.7952309  58.6996984  42.6273966
  47.4865333  26.7282194  15.5334281  46.5810434  26.9994539  15.6842708
  47.4656908  25.7738870  15.6044483   9.7716063  10.1517916  41.4062691
  10.4205531   9.4564408  41.5139246  10.2717131  10.8965385  41.0723925
  77.4109642   3.6487717  13.8202857  77.3520938   4.4909090  13.3690929
  78.1878749   3.7274355  14.3738746  27.2985832  22.5609773  11.0061359
  27.6901142  23.1026739  10.3209400  27.9362337  21.8623060  11.1527442
  50.8980505  45.5598015  19.4368839  51.6207496  45.4489464  18.8190936
  50.9752838  46.4658588  19.7357559  46.2445346  34.2993301   4.2901086
  46.7241661  34.6696037   5.0311136  45.4939882  33.8575548   4.6872806
  65.2430916  30.0750160  57.3426390  65.6248140  29.4791269  57.9871845
  64.9041986  29.5002794  56.6562986  71.9946472   6.9159263   5.6192540
  72.6944343   6.3010162   5.8392953  71.7061893   7.2626156   6.4635467
  54.7067825  22.7950853  15.5794238  53.9777938  23.1109709  15.0455570
  55.2455608  22.2873014  14.9727153  15.9491019   1.7355814  63.6243391
  15.5250507   1.2145795  64.3062162  15.3119521   1.7598428  62.9104185
  25.6330794  30.8922410  41.2187958  25.6340712  31.6855073  41.7544794
  26.5237731  30.8357668  40.8728075  69.8140287  61.5009546  54.6500492
  70.4560852  60.8107901  54.8163891  68.9839697  61.1343813  54.9547768
  51.8074274  46.7210770  54.1803455  51.6973305  45.7825518  54.3329239
  51.7006826  47.1183872  55.0446272  62.5850248  24.8064590  61.6142225
  62.6603985  25.4544854  62.3146582  63.4056568  24.3152499  61.6530609
   0.3136843  32.0909715  62.2260857   0.9257811  31.3551068  62.2346973
   0.8727664  32.8677630  62.2418308  62.8126526  55.5340576  46.3004971
  63.4507751  55.6186867  45.5920744  63.3436823  55.4517698  47.0926237
  61.6674852  45.8871508  65.0019693  61.6102791  46.5786123  64.3425369
  60.7689857  45.7784700  65.3136158  34.2510176  47.6251888  64.3491077
  34.9627948  47.7066040  63.7143087  33.5476589  48.1667900  63.9910746
  68.5053722  24.9585718  12.3357295  67.6757137  25.2903456  12.6789760
  68.2590286  24.4525999  11.5614318  48.4163705  41.4895290   6.1831188
  48.4269802  42.2127479   6.8100738  47.4942485  41.2405819   6.1202239
  84.5354843  13.1378317  50.2812624  85.1427460  13.5606718  49.6740770
  83.9304066  12.6555181  49.7178125  46.7633811  40.6351417  13.6679077
  47.4462453  39.9897140  13.4852886  45.9841434  40.1124042  13.8570117
  46.9065229  18.1032032   0.3521299  47.4172107  18.7442249   0.8466195
  47.3843614  17.2809690   0.4608917  32.7357952  42.7448124   8.8069152
  33.0465547  41.9943279   8.3005237  31.7964784  42.5919956   8.9096927
  44.9905626  15.1675171   9.7402143  44.2775241  15.6158584  10.1949691
  44.7362701  15.1875299   8.8176298   5.1677618   9.0133566   9.5082616
   6.0682307   9.1284460   9.2047023   4.9542914   9.8388618   9.9432372
  20.2119165  24.8452558  54.3031645  21.0010104  24.4276323  54.6483469
  20.4740434  25.1809969  53.4459591  85.0191962  67.5098876  31.1742019
  85.6215893  67.6639942  31.9019412  85.0541340  66.5641789  31.0305118
  62.9906607  49.2614889  46.9225788  63.3608294  48.3885145  47.0534039
  62.3781681  49.1553116  46.1946964  68.8893461  51.8474197  65.2150583
  69.8006105  51.6367388  65.0114775  68.6728859  51.2825394  65.9568739
  62.6790515  10.3520197  21.1135291  62.8975193   9.4314092  20.9686946
  63.4654037  10.8293098  20.8488178  84.5506573  45.0368881  63.2515049
  84.9152088  44.1959667  63.5275316  84.5588970  44.9991560  62.2950840
  22.8757911   1.3606729  68.5996246  23.6477046   0.8611288  68.8657713
  22.8229623   2.0758047  69.2336845  72.5803939  18.1490463  19.7291564
  72.6988117  17.4031204  19.1411113  71.9604389  17.8379577  20.3887939
  23.1645780   1.8995371  62.4537230  23.0207639   1.6241064  61.5483570
  23.6095672   1.1569776  62.8621626  83.7119007  77.9080725  61.3686371
  84.3707752  78.0827475  60.6966209  84.2007256  77.9177332  62.1915579
  23.2533351  28.8232368  25.3590392  22.3576299  29.1391128  25.2399921
  23.6493627  28.8930792  24.4904041  49.5795766  16.3636202  22.4394130
  49.9363796  15.8605427  21.7074012  48.8222019  15.8565945  22.7318858
   5.3850465  16.3661852  38.1356621   5.0804429  16.7796030  38.9434600
   4.5876031  16.2162103  37.6279068  54.5744983  33.8571924  17.0507430
  54.9822799  33.0001062  17.1746444  54.8526660  34.3670172  17.8116130
  28.0568331  77.3444366  51.3661098  27.7410144  78.2255411  51.5664673
  27.7699012  76.8125916  52.1084356  16.7420596  50.8706665  62.7444410
  17.4452990  50.3951502  63.1866789  16.5323275  50.3326511  61.9810390
  66.7019749  72.0046282  42.2785139  66.9983053  71.1696243  42.6407099
  66.6541386  72.5900555  43.0343056   7.8307933  58.4195805  66.9292688
   7.5928611  58.7830734  67.7822018   7.2202796  58.8285637  66.3158798
  72.1385670  67.8348684  65.2462959  71.5677500  67.5703764  64.5248747
  72.9606628  67.3725224  65.0831223  78.9040271  34.0527767  31.9667625
  78.8849632  34.5150656  32.8047084  78.8489048  34.7462791  31.3093089
  50.6133834  25.2843040  15.0727653  49.7345392  25.0870127  15.3967094
  50.8552639  26.0972780  15.5163860  82.0025921  70.6447077  36.4732575
  82.9428005  70.4924154  36.5683270  81.8410969  70.5661488  35.5330563
   8.6961071  13.0290359   0.6514501   8.7585417  12.5843042  -0.1938582
   7.7749673  13.2792610   0.7229852  57.0789711  45.4792637  16.2147426
  56.8786422  44.9088615  16.9568633  57.8730575  45.1053947  15.8328056
  70.1940910  38.9333195   3.6145973  69.6132747  39.6365160   3.3240938
  70.0348274  38.2202715   2.9961871  62.0864479  32.9946703  21.4681815
  62.9421417  32.8594154  21.0610866  61.4917366  32.4370664  20.9665584
  57.4493972  41.7282146  10.9703540  57.0944873  42.5837845  11.2117767
  57.6022617  41.7897362  10.0274467  -0.0186521  64.9325180  50.1450157
   0.8417529  64.8328495  50.5524445   0.1137465  65.5920839  49.4640732
  47.4383918  45.4980701   8.0986022  46.6934768  46.0871166   8.2184362
  48.0545894  45.7480472   8.7871074  59.4294445  42.9944271  18.6699008
  59.7356884  43.9012283  18.6820602  59.9527542  42.5558704  19.3407535
  48.2421988  80.0482655  49.2273569  48.7253302  80.3082561  48.4429979
  48.7367171  79.3079042  49.5788479   2.7722872  59.1566024  45.4480314
   3.4198941  59.5837388  46.0087395   2.5391949  59.8224817  44.8011160
   2.2963585  66.1494170  35.4873943   2.0486988  65.6548379  36.2686038
   2.4801315  65.4799817  34.8283672  29.2831135  19.9125242  62.0158577
  28.8866043  19.7502625  61.1598873  30.1038814  20.3635454  61.8179941
  79.2846913  70.7141749  59.0906191  78.9034672  71.1077277  59.8754835
  79.9459500  70.1076053  59.4238520  32.1171201  64.5800279  54.5739317
  31.7926420  63.7718854  54.9712372  31.6300501  65.2760933  55.0149393
  30.9886312  20.8781838  30.3601289  30.6357670  21.5671682  29.7970843
  31.0380578  20.1080108  29.7938919  28.4375538  64.7187076  68.7481403
  27.6177133  65.1848970  68.9117241  28.5986246  64.8386011  67.8122377
  65.3110361  19.8216963  68.0810785  65.6442213  19.0311050  67.6565981
  64.8916292  20.3138638  67.3753166  38.7608385  28.7658548  52.2309542
  39.2822981  28.0435205  52.5810146  39.1358352  28.9351082  51.3666821
  64.9802042  64.0822552  25.8504844  65.5991543  64.0777407  25.1203394
  64.3934656  63.3474193  25.6716371  66.7657859  69.5915792  23.8402629
  66.2202616  69.6256969  23.0544686  66.1443509  69.4706140  24.5581889
  24.7334218  67.0124783  20.3274536  23.9085364  66.6859545  20.6868648
  25.2056503  66.2247672  20.0577545  17.5035919  73.6300013  37.9178810
  16.6968645  73.2016478  38.2041216  17.2341646  74.1821412  37.1838641
  29.4056916  13.2042968  47.2449398  29.8943615  12.7070081  47.9007864
  29.9821877  13.2244086  46.4810801  10.5371870  73.7687383  28.1475091
  10.1012124  72.9293434  28.2943892   9.8741091  74.3116508  27.7211213
  54.7806985  67.6864753  40.6687784  55.5908252  67.2180317  40.8699942
  55.0678373  68.5639499  40.4161501  20.7903504  19.3493807  55.3399515
  20.0438023  19.1339874  54.7809267  21.4700723  19.6382225  54.7310305
  19.0551090  17.7611411  47.9033041  18.4064424  17.0593166  47.8493929
  19.3361676  17.8975344  46.9985199  80.4500281  15.7085756   7.2489833
  80.6797682  14.9601893   7.7997732  80.2488505  16.4094977   7.8690385
  70.3255041  71.9238619  59.9881220  70.1545818  70.9985934  59.8123503
  69.8134513  72.1170441  60.7734346  48.9548718  38.9158332   0.9581327
  49.5062124  38.1791101   1.2217521  49.2356240  39.6381641   1.5199613
  58.5602808   2.1148892  64.6530056  58.9034939   3.0005124  64.5342350
  59.1929674   1.6883306  65.2309179  16.3871063  69.6823619  40.0210524
  15.8315004  69.2122243  39.3993616  17.1850170  69.8770914  39.5294738
  38.8093448  17.2933650  44.1388798  39.2669439  17.8944743  44.7266722
  37.9161859  17.6347983  44.0950012  80.0781722  71.7240433  17.4020326
  80.8433075  71.2332867  17.1020985  80.3581805  72.1248106  18.2249618
  60.3049469  28.2867217  44.5886946  60.2566433  28.8375807  43.8073826
  60.6656218  28.8606882  45.2644968   2.2597588  66.1157499  57.7331734
   1.6608585  66.3847003  58.4297466   2.0626653  65.1897416  57.5921249
  55.5942309  75.0191919  40.9240818  56.1690063  75.6759630  40.5309963
  55.9101134  74.1853479  40.5760098  74.1626215  15.7658303  37.0362687
  73.5685205  15.0221038  37.1369791  73.5888863  16.5051758  36.8352032
  16.0444248   9.8869795  45.8560181  16.3193917   9.6197104  44.9789810
  16.0264385   9.0732521  46.3597631  20.9160018  12.8820419  42.0672274
  20.9396100  12.6029408  41.1519289  21.4479184  12.2339523  42.5290442
  76.6833753  61.3797233  59.8837090  77.0245404  62.1174107  59.3780851
  76.6537220  61.7004714  60.7850838   7.9445470  67.6111839  42.6277781
   8.4400905  66.9835506  42.1017075   7.6492132  68.2700262  41.9993353
   7.2091592  65.8649276  27.3067760   6.8663992  65.2889333  27.9901338
   6.4435948  66.0926781  26.7792583  25.2321243   9.7576874  41.8609524
  24.9582338  10.6356323  41.5955687  24.8781037   9.6530694  42.7441025
  73.8942181  46.6571412  13.7916183  73.8251673  46.8185953  14.7325706
  73.0089890  46.4083741  13.5256957  67.4948369  31.5961651   8.6088800
  67.0919024  31.0320971   9.2689561  66.9326555  32.3703412   8.5799503
  10.0328654   1.3812859  25.7086992   9.8469561   1.6936532  26.5941906
   9.2324084   0.9298028  25.4409981  68.5081387  22.3275805  45.4679775
  68.1203032  22.0025420  46.2804842  68.2936001  21.6600490  44.8163652
  53.9371777  36.3956022  45.8902645  53.2661963  36.9369841  46.3060951
  53.4471560  35.8012080  45.3220987  42.0626068  34.4789481  62.7393818
  42.7980852  34.8566532  63.2217169  41.9720268  35.0358057  61.9661188
   6.9591146  64.5993976   8.8488387   6.8719392  64.0168027   9.6033048
   6.1602502  65.1265816   8.8597488  54.8962021  20.2357721  63.8975954
  55.6885719  20.3204083  63.3673000  55.0836992  19.5113158  64.4944572
  42.6146936   0.8407031  44.1312551  42.8114033   0.8236793  45.0678682
  42.5500584  -0.0815593  43.8832903  25.7090248  78.4800618  64.7892523
  25.1380218  79.2316373  64.6301079  25.5991281  77.9276491  64.0153027
   9.2670787  43.2926522  43.7216187   9.5616568  43.5334239  42.8432798
   8.6338056  42.5894962  43.5774994  13.1469930  77.3638136  48.1368971
  12.5499214  78.0626173  47.8696728  13.8643325  77.4068553  47.5045967
  66.5341468  76.9566945  22.5763226  65.8587010  77.2301603  21.9556594
  67.3363490  77.3672266  22.2535729  25.8504462  21.0901451  54.8650694
  25.3449893  20.4230618  55.3295517  25.7112288  21.8911195  55.3703308
   1.4002694  60.2104912  43.4172630   1.5643419  59.9110780  42.5230265
   0.5030001  59.9329362  43.6019421  13.3965458  66.1769364  62.2580242
  12.7823032  66.9008706  62.1361494  13.0764688  65.7195685  63.0355835
  81.8145180  20.5290818  63.4108686  82.7254391  20.2375746  63.3723688
  81.3461113  19.9283957  62.8312111  37.7793145  19.4248319  60.0678444
  37.4399781  18.9048767  60.7963562  37.9554057  20.2849936  60.4490852
  20.4212832  11.2441468  45.5997419  20.7766914  11.7465973  46.3328600
  21.1279631  11.2297821  44.9542713  62.1538459  46.9488571  14.3716144
  62.1761977  47.5508008  15.1155185  61.4602767  47.2908847  13.8075065
  52.6374722  21.3162470  39.4478083  52.7241039  20.8026218  40.2508736
  53.5192919  21.6484451  39.2796636  62.0314026  24.1148877  65.8016586
  61.1401987  24.0495515  65.4585552  61.9610977  24.7243404  66.5364075
  84.8640334  27.0829848   1.9493102  85.7978712  27.2675900   1.8488502
  84.5436512  27.7759675   2.5266837   6.1947827  79.6311073  53.9440536
   5.9857278  79.3228535  53.0622863   6.1925750  78.8390211  54.4814777
  41.9520521  37.6207519  47.1633577  42.4846792  36.9573689  47.6020670
  42.0204687  37.4060512  46.2330580  16.4578785  68.1274793  22.5158668
  17.3196329  68.0275653  22.1113658  16.5045751  67.5990889  23.3126426
  75.3263985  50.4552857  24.0294265  75.4309975  49.7234509  23.4213924
  76.0890757  50.3992585  24.6051120  29.8417306  17.5460160  63.9147234
  29.0151930  17.1526027  64.1945362  29.5833635  18.2410192  63.3093739
   7.6898206  69.6889732  60.2429628   7.7833904  68.9914594  60.8917713
   7.8730310  70.4935143  60.7281208  30.7238770  12.6882064  42.9462814
  31.4894652  12.7538407  42.3754930  30.3571534  11.8245959  42.7567482
  81.2870299  61.9936113   4.1377258  80.8904826  62.7776436   3.7578964
  80.5480992  61.4994148   4.4926643  29.4329084  76.4468787  66.2297010
  29.5110668  76.6608150  65.2999973  30.3225721  76.2175928  66.4983273
  49.3064247  49.8557005   8.9473962  49.3006169  49.4212077   9.8002815
  49.7387039  50.6943444   9.1087722  39.9371243  18.7860346  51.1223650
  39.6460629  18.9707768  50.2294016  40.2957249  17.8996146  51.0788298
  30.6242776  20.7818079  54.4958353  30.1377559  21.0979939  53.7345505
  30.0102949  20.2044010  54.9495506  67.6042027  73.1462614  29.2839003
  67.3420067  73.9674930  28.8678908  68.5586853  73.1975077  29.3345809
  85.2187907  41.3753723  18.2650947  84.8702322  40.6707111  17.7190208
  84.4495808  41.8869619  18.5157489  65.4754318  77.0870436  68.1291723
  65.8424343  76.2171854  68.2869244  64.8261417  77.2024802  68.8229513
  13.3054842  68.6549244  33.0094814  14.1753067  69.0121529  33.1884336
  12.8941263  69.3018756  32.4363589  32.0228494  60.0635801  37.8079271
  32.7931322  60.2737532  38.3358693  31.5212215  60.8783732  37.7811933
  62.2684943  33.9478491   2.9598474  62.6008068  34.6691016   2.4254369
  63.0479251  33.5782901   3.3747529  38.6702180  16.1434960  63.1650209
  39.3890333  15.6588197  62.7592802  38.5611057  15.7355702  64.0240479
  19.9236168  60.3672777  67.0853043  19.5241178  60.6012164  67.9231024
  20.7085765  59.8740754  67.3236799  52.9692030   4.4111210  58.0092382
  52.4849367   3.6752987  58.3837891  53.6096144   4.6434799  58.6816311
  60.5621086  55.1936416   2.1352386  61.3990437  54.8263041   2.4195480
  60.2920710  54.6371333   1.4047527  12.8041996  61.7800770  39.4404912
  12.8356136  61.5827296  38.5043836  12.7067674  62.7314196  39.4815707
   9.1023688  41.3262216   3.3705949   9.4167094  40.7227887   2.6973247
   9.4680505  42.1749262   3.1211757  61.0302734  17.1215403  34.4561911
  60.5146694  16.3245296  34.5793223  61.1977625  17.1553349  33.5143638
  15.8208579   5.9101313  42.8684902  16.1841792   6.4306086  42.1520185
  15.7658404   5.0221074  42.5154781   6.5261758  74.8239414  65.3719234
   7.3654760  75.1355157  65.7106447   6.3888825  73.9832721  65.8085632
  38.4695816  28.3780289  56.7074776  38.6400509  27.7453947  57.4052906
  38.4674025  29.2271638  57.1492863  36.3707280  20.7500601  37.6876760
  37.1251202  20.1609039  37.6830316  35.8801651  20.5048656  38.4721875
   2.8133381  67.9508922  37.5843263   3.6868538  68.2715533  37.3598695
   2.6080550  67.3152385  36.8987346  46.8836034  72.9336617  51.7854500
  46.9341625  73.8725392  51.9648504  47.7541317  72.7048204  51.4598083
  25.0502790  52.6253615  39.4509649  24.9903167  51.6778932  39.5731926
  24.2730201  52.9729448  39.8883247  30.6425405  31.5888262  35.8054495
  30.4149818  30.7181072  35.4794168  31.1628771  31.4218712  36.5913320
  54.4525433  40.4448223  62.0239544  54.0125561  41.0230494  62.6470900
  55.3711176  40.7119989  62.0567083  57.5653614  73.3587752   8.0965281
  57.0281185  74.0450040   7.7006906  57.7551235  72.7577160   7.3761469
  33.7546325  30.4734707  27.7418303  34.7033286  30.4233837  27.6247883
  33.5668921  31.4114022  27.7774978  56.4400053  67.2097874  65.8427715
  57.3859596  67.2007084  65.9887838  56.0870600  67.6938820  66.5893030
  57.0617008  22.0201564  67.2500038  56.2191820  22.1155524  66.8058252
  57.6597357  22.5768876  66.7513704  61.2081432   5.2303058  66.8322134
  60.5344486   4.8535320  66.2661648  61.3347387   6.1175311  66.4960051
  49.0818249   7.5571851   5.6126403  48.7510620   8.2757215   6.1516523
  48.7187444   6.7685799   6.0157632  10.9638322  72.5615613  37.8099561
  10.1290096  72.5645045  37.3416662  11.4708341  71.8659149  37.3913193
  26.6766787  14.2311537  48.3526325  26.4008975  15.1234949  48.1431007
  27.4858165  14.1077662  47.8563452  45.8039761  30.0600457  63.8519335
  45.1882410  29.7224522  64.5024204  45.2614784  30.5707955  63.2510471
  37.0350851  67.6421879  63.7115145  36.4198459  67.6300691  64.4446993
  37.6010383  68.3941398  63.8861609   2.9755610  10.2519464  27.0698929
   2.4276465  10.8567417  27.5701356   3.5013789   9.8021740  27.7312946
  72.6589823  31.1383533  42.9852390  73.3672953  31.6612291  42.6095676
  71.8598747  31.6004395  42.7319813  58.5873996  20.9016303  12.7080821
  59.1557847  21.4767913  13.2202911  58.9373385  20.0234417  12.8582858
  24.8731565   1.8387724  46.1121750  24.8806190   1.5814486  47.0341063
  25.3290272   2.6802635  46.0946798  71.4385067  54.4551412   0.8386564
  71.4315783  55.0531475   1.5860319  71.3733279  55.0269369   0.0737810
  83.9068508   3.3303413  54.0354633  83.5742855   4.0769026  53.5371876
  84.2664242   2.7409381  53.3724785  11.5904535  71.1994664  56.4967823
  11.7869724  72.0224128  56.9444084  10.9137429  70.7894651  57.0354795
  54.8802911  35.8357171   1.2963008  53.9513980  35.9717844   1.1095523
  55.3364240  36.3260038   0.6123447  61.7815911  35.4604841  20.3862285
  61.2944924  35.8029158  21.1357021  61.9581162  34.5472703  20.6123065
  85.2961540  21.5408754  49.7571421  85.3834629  20.5886054  49.7994804
  84.3598557  21.7010283  49.8751402  63.7561809  29.9928645  12.9595279
  64.1814934  30.7165460  13.4195613  63.2218419  29.5648519  13.6285018
   1.6881765  67.0474849  69.4243670   1.1254300  67.1321867  70.1940250
   1.2261976  66.4306901  68.8565874   7.8343587  48.1446318   9.1733074
   7.7412801  49.0813224   9.3470287   7.3665910  48.0061338   8.3497476
  53.8760948  22.9470325  31.2666631  53.6114407  22.0915174  31.6047263
  54.1233778  22.7791810  30.3573203  40.3666639  30.9064841  42.4965906
  40.1960468  30.9101987  43.4384537  39.8219252  30.1962924  42.1572971
  50.2764164  26.9035582  23.2974338  50.8064233  27.1354965  24.0600108
  49.8219072  27.7136389  23.0663013  28.6444152  67.3109982  43.0882502
  28.5899175  66.5589033  42.4986601  27.7580417  67.6722107  43.0982542
  71.7603003  41.5129826  16.8315124  71.4257561  41.0409943  17.5940990
  71.5895497  42.4344664  17.0263004   6.5787797  50.8825473   8.3532380
   6.3442903  50.9397225   7.4269676   6.3282495  51.7319194   8.7166023
  30.9526428  18.9878158   9.5911502  31.1099251  18.3207540  10.2593755
  30.0144038  18.9295606   9.4107437  10.7257003  40.1242924  69.0651083
  10.4146975  40.8239889  68.4907103  10.3662699  39.3234777  68.6833525
  52.8014218   2.9103474  31.4768981  53.1220399   3.3674173  32.2544097
  51.9108378   2.6443414  31.7056560  46.3575029   3.7059584  53.4445143
  45.7064581   4.4075823  53.4543896  47.1725321   4.1390491  53.1907654
  14.0987891  31.3362837  46.1444855  13.5211772  31.5282130  46.8832397
  13.6098117  30.7058597  45.6156206  50.0445778  68.4644661  44.9675465
  49.8495121  69.3589125  44.6879959  50.0443603  68.5069702  45.9238005
  63.8877201  14.6718001  60.8962107  63.3331108  14.1395223  61.4665794
  64.7495508  14.2583346  60.9464216  13.3107715  26.9689624   2.0405387
  13.1554227  26.2516216   1.4261102  13.8343339  27.5991372   1.5455722
  15.4498963  58.3721320   4.7499275  15.1174216  57.7651684   5.4112052
  16.2404542  58.7434630   5.1415347  35.9370375   7.2262365  66.2520838
  36.0032606   7.2492242  65.2974510  35.3481531   6.4938128  66.4337492
  56.9706869  17.9382265  57.5550890  56.4845085  17.4130607  58.1907463
  56.7108250  17.5853240  56.7041111  19.0794862  69.2997990  61.0015297
  18.7932361  69.9720261  60.3831434  18.4715236  68.5733674  60.8640146
  78.8985239   3.0446724  10.8405303  79.2413794   2.5996379  11.6155338
  78.1841170   2.4836830  10.5386257  53.9945173   2.4813367  46.8332815
  53.6697626   2.4882525  45.9328842  54.2724657   3.3829802  46.9945812
  69.6768319  40.3541230  15.2984428  69.9256741  40.2858859  16.2202072
  70.4208743  40.7881356  14.8809909  49.0045921  10.7021993  19.8439979
  48.1166069  10.4670185  20.1130962  48.9637224  10.7378763  18.8883399
   8.7835849  76.6554962  55.4462814   9.6153678  76.9710965  55.7994986
   8.6064972  75.8507128  55.9333086  13.0034846  11.0223901  62.4991226
  13.9311904  10.8762717  62.3140669  12.7427214  11.7107725  61.8872690
  39.4154501   4.3775845  65.0686741  38.5225081   4.2778856  64.7386074
  39.3051052   4.6675959  65.9741831  29.5235133  12.5897026  31.1296892
  29.0873551  13.1634116  31.7596531  30.4365802  12.8769195  31.1363578
  71.7391586  14.0956509  16.1822021  72.3128700  13.4061384  16.5163612
  72.1354723  14.3547392  15.3503120   0.0327862  69.9668393  55.1659584
  -0.3922140  70.6910632  54.7064972   0.8587397  70.3344725  55.4804134
  31.5118098  15.0102317  59.3215799  30.8305693  15.2766144  59.9389791
  31.2921071  15.4681683  58.5102463  50.3101063  17.7064109  31.7017627
  50.9690952  18.1643820  32.2235203  50.0503349  16.9616985  32.2441220
  17.2311128  44.6794544  68.1169701  16.8456663  44.7914348  68.9859533
  17.3911632  43.7384472  68.0454016   5.7101302  20.5430583   6.6669797
   5.5545430  19.7007446   7.0942115   5.2496915  21.1783771   7.2152519
  72.5967299  29.6790556   1.8375873  72.4433266  29.9152378   0.9227514
  73.2095515  30.3416179   2.1564817  36.3407636  33.5445786  34.0510964
  35.6161976  33.0862546  33.6254501  35.9388375  34.3241048  34.4345331
  24.7608627  65.6926058  48.0343676  24.6090425  64.7783385  48.2737350
  23.8863195  66.0804711  48.0033588  67.9422079  70.3166036   2.9862832
  67.1647607  70.8020429   3.2622480  68.3136140  70.8420185   2.2776031
  66.1097574  29.9225068  65.9929323  65.2114248  29.5923448  66.0078430
  66.5786362  29.3152690  65.4205275  38.6876644  77.6330269  23.8255692
  39.3596138  76.9534014  23.8786888  38.0971683  77.3325382  23.1347322
   2.6984840  68.5308794  14.9514484   1.9200950  68.6495713  14.4071578
   2.7335839  69.3185262  15.4942321  58.2634163  21.4617729  39.4170594
  57.8819275  20.7554412  39.9383998  57.6005125  22.1521926  39.4276381
  60.8482313  13.9337790  31.3661528  59.9498081  14.0409303  31.0537529
  61.2170219  13.2513356  30.8053541  78.1525074  42.5211189  29.4887733
  78.0920826  42.2825704  30.4137992  78.7359272  43.2798357  29.4746970
  41.6738224  10.9244430  30.8545542  41.1347294  10.3120935  31.3551903
  42.1035242  10.3807259  30.1942801  81.3405609  37.3615170  23.4304857
  81.9344711  36.6121531  23.3862853  81.8952751  38.0907655  23.7074637
  73.7039995   6.7567116  55.7515717  73.9551306   6.2072349  56.4940262
  74.0339470   6.2884980  54.9846697  60.7968677  78.3491861  68.2125425
  61.0931362  77.9157587  69.0129137  60.4439987  77.6413418  67.6733971
  18.9239173  56.4613561   8.5004758  18.1390767  56.8115262   8.9219426
  18.5898070  55.8950202   7.8048753  23.8618387  70.6552003  63.0887175
  22.9224790  70.6940118  63.2685375  24.2598356  70.4553489  63.9359999
  71.6131102  56.5430514  19.1036510  71.0750233  56.4749352  19.8923587
  72.1931206  57.2854881  19.2727947  38.8885474   8.4844458  51.4948273
  39.6368146   8.1090510  51.0307074  39.0781140   8.3290434  52.4201107
  56.8559074  10.1792371  56.7586279  56.1127663   9.6054083  56.5723658
  56.5101051  10.8274257  57.3722267  30.8170176  40.4535341  64.9567509
  30.6811976  41.0804749  65.6671953  31.3991737  39.7914767  65.3295803
  16.7228608  43.9651812   1.0707759  16.0144763  43.7867666   1.6893195
  17.4952989  43.5639955   1.4690446  57.3645973  16.5007985  46.3032198
  56.4335108  16.6175616  46.1143303  57.4161434  16.4945841  47.2590113
  64.7647476  12.8223813  26.2856936  64.0996027  12.3271203  25.8076429
  65.0504971  13.4965742  25.6692195  53.3817707  17.5528840   2.6333618
  53.9905797  16.9178490   2.2561168  53.1008159  17.1550445   3.4573888
  27.5526659  11.2885851  26.2674522  28.4080545  11.0174793  25.9342193
  27.5788204  12.2451490  26.2443542  34.6915030   0.1749620  58.5594177
  34.2909670   0.3295765  57.7039051  35.4783344  -0.3349875  58.3668566
  68.5071726  79.3386286  52.0003700  68.7159450  79.1760236  52.9202652
  68.5669083  80.2892530  51.9056225  52.2378063  12.4110055  47.2537422
  52.8081989  12.9686713  46.7246962  51.4750671  12.9580474  47.4413729
  63.9730978   5.2619809  54.1171885  63.6555910   4.7307038  54.8473692
  64.6583033   5.8099598  54.4998646  38.6389685  12.9021001  50.4348564
  38.5401535  13.4535384  49.6587229  38.2391477  13.4091830  51.1414289
   6.5422397  34.3909142   2.4498128   7.4797444  34.5486240   2.5613689
   6.4584117  33.4373955   2.4471807  -0.2002187  79.4541578  35.2128887
   0.5497127  80.0224523  35.3885936  -0.2810950  78.9143519  35.9992122
  26.5248418  21.8281436  47.4336290  26.4478779  22.6891899  47.0226526
  27.3703408  21.8513513  47.8817654  36.3790965  33.8853526  63.8191223
  36.5218520  33.6806011  62.8950405  35.4343128  33.7927604  63.9417791
  41.1245012  10.5551541  55.0510693  41.7894888  11.2136745  54.8501301
  40.3606653  10.8223403  54.5398045  29.7860718  18.0184984  52.3964119
  29.2188597  17.9554415  51.6279554  29.9844790  18.9518774  52.4717140
  65.5455923   3.9288282  63.8480806  65.7185078   4.8382938  63.6047602
  65.6136990   3.9192250  64.8028088  44.2021227  34.4900084  67.6595211
  43.3623266  34.9081349  67.4694061  44.2751980  34.5221829  68.6133862
  38.7777381  68.2589726  25.7320785  39.2895656  68.6171846  26.4573097
  38.1523757  67.6668028  26.1497974   4.2827789  10.7499403   4.6345949
   3.8629905  11.0964388   3.8472318   4.4461290  11.5208620   5.1779460
  55.4615164   1.2703097  40.7162476  55.6949091   0.7113247  41.4573908
  55.3591585   0.6645115  39.9822402  18.5213046  22.6567332   0.1877641
  18.2915549  22.2584693  -0.6517792  18.0504518  22.1346621   0.8373594
  20.6679500  53.4546194  46.8062925  20.4458059  54.3855558  46.7908096
  19.8890651  53.0284367  47.1639729  78.9314114  16.9151167   0.9602069
  79.7464358  16.8375591   1.4561414  78.2648598  17.0990543   1.6220998
  61.1501442  25.0567393   3.3837461  61.9538294  24.5765189   3.1844758
  60.5445539  24.8108284   2.6844453   8.7311082  39.4514675  11.1828231
   9.3049197  38.8399775  11.6444015   8.6400704  40.1928186  11.7814445
  62.0149433  32.7467148  18.2011985  62.0532261  31.8981103  18.6423778
  62.8992783  33.1023685  18.2889079  22.3449230  23.5524607  36.2756634
  22.9013872  24.3279600  36.3476372  22.4037695  23.1348538  37.1349502
  13.6119665  74.8503915  59.6024990  12.8621496  75.4294900  59.7390938
  13.5970605  74.2579083  60.3541470  83.1577956  34.5245526  10.7767867
  82.9606615  35.4411090  10.9699058  82.3029362  34.1237293  10.6193446
  78.2018553  53.1513647   6.1330890  78.2990633  53.1293217   5.1810932
  77.9688774  54.0588490   6.3291072  64.3502617  20.7275701  63.1726122
  64.7302055  19.8490107  63.1693602  63.7429810  20.7286358  62.4327183
  83.0484772   0.9773120  55.2728844  83.8708115   0.4927864  55.3452587
  83.3170223   1.8853350  55.1328516  41.5056705  13.8594317  59.0154886
  42.1389389  13.6446106  58.3306122  40.7533360  13.2971406  58.8309669
  61.7164326  27.4298215  41.7160463  60.7904863  27.4169517  41.4737892
  62.0051718  28.3192301  41.5115547  32.4402237  64.6253014  66.5755320
  32.3230028  63.6763048  66.5319920  31.9962859  64.9575186  65.7952881
  60.3809500  12.8635907  46.9310713  61.3125992  12.7004051  46.7840004
  60.2368069  13.7482643  46.5952063  45.1326227   2.8432268  40.6181383
  44.8755836   3.2166004  41.4612055  44.4489861   3.1279492  40.0116730
   0.1229590  13.6612439  43.4348869  -0.0225812  13.4782600  42.5066805
   0.6107825  14.4847715  43.4430408  45.4146290  42.8507233  69.3197393
  46.2273264  42.8233624  68.8147545  45.7007074  42.9270887  70.2299929
  11.0073173  27.6934052  33.6385155  10.7470405  28.6038876  33.7782049
  11.0035408  27.3062181  34.5139050  28.8822282  65.3257344  15.1968122
  28.6914600  66.2021051  15.5311990  29.7444929  65.1151178  15.5551040
  58.7096712  56.7944227  58.2955170  58.0301085  57.3555622  58.6690807
  58.9207172  56.1758743  58.9948702  44.9068356  15.0494051  39.5122814
  45.2125740  15.9521532  39.6006060  43.9716005  15.1304901  39.3252134
  39.0984548  69.7649620  13.7875140  39.9160493  70.2625857  13.7754333
  38.5222353  70.2650164  14.3655658  65.6346607   9.8489803  29.7256017
  65.9575033   8.9558047  29.6062613  66.3503933  10.3052425  30.1680779
  73.3848758  60.6880198  66.7403221  73.0589838  60.3003035  65.9281015
  72.6093860  61.0698710  67.1514606  59.6267080  36.0336113  48.6521626
  58.8925791  36.4102244  48.1669283  60.4026318  36.3066840  48.1626606
  73.5662413  36.5387964  51.9489956  73.9185190  36.1227870  51.1621857
  73.0851507  35.8410525  52.3938942  11.6403211  77.5304032  59.6932125
  11.6129745  77.5833652  60.6485558  12.4538673  77.9733119  59.4519711
  18.4508252  28.6655855  51.3808250  18.5866904  29.0527272  52.2456360
  17.5246644  28.4240794  51.3693476  67.5281143  40.4384041  39.0528107
  67.1685791  39.5828962  38.8181400  68.4575081  40.3762674  38.8323617
   1.2109107  28.1710124  51.5031719   2.0810527  27.7721906  51.5083742
   0.6342143  27.4833012  51.1704350  61.8123198   7.8579980  63.3252954
  62.6691723   8.2691813  63.4391785  61.8079758   7.1355766  63.9532471
  53.3861542  16.5345657  53.7570572  52.8405762  17.2321463  53.3937931
  54.1021395  16.4388359  53.1290150  58.9739943  22.6731730  63.1784582
  59.8167324  22.2459412  63.3317566  58.9480495  23.3871770  63.8154507
  41.1540127  17.3677397   3.8287047  41.4418077  18.2805681   3.8164294
  40.3233147  17.3848772   4.3039665  68.3365870  21.3670611  66.6211796
  68.1590843  21.5954590  67.5336266  67.6033354  20.8064604  66.3676071
   5.0826758  63.7214804  58.1732798   4.6477622  63.2460165  58.8811016
   5.1197261  64.6272516  58.4805870   9.2571979  49.8838810  25.6062412
   8.9059262  49.9791590  24.7209453   8.8171010  49.1093586  25.9564781
  63.1914568  17.5087523  49.5626640  62.3831224  17.6274490  49.0639305
  63.7815142  17.0578814  48.9586926  49.4746304  16.8320572  59.6834803
  49.9688721  17.6304948  59.8690939  49.8538017  16.1746109  60.2667665
  68.2400131  15.4958987  37.7780604  67.4209404  15.9907866  37.7990103
  68.9153528  16.1415696  37.9860449  43.9487373  74.3811516  12.0627975
  44.1484093  74.2575888  12.9907512  44.2687248  73.5838489  11.6407203
  15.7531171  70.1225833   7.9228734  16.3944011  70.8214716   7.7942609
  15.6717210  70.0441508   8.8733768  72.4138165  32.6924968  59.1728449
  72.2545004  33.3853078  59.8138332  73.3670139  32.6116133  59.1395187
  82.2924232  31.8205857  42.9393387  82.1098804  31.0057235  42.4714613
  82.1742821  32.5060010  42.2817087  31.4043355  10.6694293  62.2972012
  32.1641374  11.2325168  62.1493292  31.5044618   9.9603736  61.6620255
  62.2556639   1.5966114  64.0384769  62.5761557   0.7256310  63.8041496
  62.3288536   2.1042083  63.2302570   1.3741606  46.5117741   9.7574985
   1.2565249  46.1885929   8.8642204   1.3863295  47.4646854   9.6677911
  67.2691822  10.7853472  40.7318926  67.3437119   9.9642617  40.2455854
  67.7834320  11.4124119  40.2234030  52.6302671  26.0473847  46.8973637
  52.6006556  25.3586626  46.2332726  51.8958616  26.6214919  46.6799355
  60.2052771  40.5372332   8.0925941  60.1002013  39.5905017   7.9983043
  60.9728323  40.6381380   8.6555385  41.0361767  11.1241806  65.7295561
  41.1478615  10.4660046  66.4155340  41.9281960  11.3846874  65.5000639
  20.9514384  72.1564583  21.5987110  21.0116630  72.6831559  20.8017253
  20.0127463  72.0976047  21.7765426  75.2711760  59.5961193   3.9775419
  75.7014071  60.4427985   3.8581037  74.9316393  59.6240644   4.8720598
  59.4512796  12.7629292  42.9017591  60.2217340  12.3143363  42.5533342
  59.6073627  13.6883473  42.7134180  33.0847573  26.0071898  40.3056431
  33.8546395  25.6856823  39.8364472  33.2955742  26.9166493  40.5170012
  49.5982313  32.4485636  59.2563629  49.1641665  31.6860008  58.8738441
  49.3697357  33.1720304  58.6727428  44.6504641  37.8198528  57.0584583
  44.0718460  38.0605602  56.3349247  45.3128052  37.2565150  56.6582251
   5.4179084  15.6470835  64.6895552   6.1155725  15.1757383  64.2342234
   5.8415866  16.0085118  65.4680777  28.9111543  10.0043261  32.1978354
  28.0176544   9.9130398  31.8668413  29.2428613  10.7971621  31.7763901
  49.6807384   5.5932039  58.9530039  50.0842857   6.3848138  58.5970020
  48.7465763   5.7979906  58.9934349   0.5862511  69.4719980  48.7080526
   1.1213530  69.6953032  49.4696522   1.1617125  69.6234629  47.9582930
  63.1011581  27.6753020  66.2743998  62.4918079  27.9388714  66.9639301
  63.7279749  27.1016359  66.7151213  54.3069029   5.2223879  60.5816984
  54.7530317   6.0687000  60.6126356  54.9439526   4.6026820  60.9371710
  34.5825876  72.3069570  34.1677427  34.3202413  72.7348343  33.3526778
  35.3196491  71.7492060  33.9189839  53.0434752  28.2513213  66.9571209
  52.4167824  27.6276445  67.3238802  52.9883242  29.0133953  67.5336885
   5.8100705  77.1172909  26.1392307   6.6784530  77.4886564  26.2948799
   5.2846341  77.8567080  25.8335971  23.8305240  36.8050165   7.9381561
  23.4779315  35.9273926   8.0854225  23.6684661  36.9756625   7.0103359
   0.0201469  43.0209849  26.4767360   0.4713397  43.7532992  26.8967056
  -0.3498549  43.3945812  25.6768894  46.7261457  39.7822595  68.4404945
  46.8667507  40.2872229  69.2414141  46.3206434  38.9681053  68.7387419
   5.9373206  12.3279905  64.8929119   5.1274317  12.2837257  64.3846321
   5.6801814  12.0649171  65.7766008  61.3943768  15.8648264  27.9584050
  61.5988493  15.4386055  27.1260834  60.4492283  16.0127091  27.9259324
  56.1438370  14.6209788  32.6298165  55.7065344  14.0091252  33.2219601
  55.5414534  15.3618896  32.5633526  67.1149969  29.2602539  34.9455309
  66.7975092  28.4260225  35.2912045  66.5503168  29.4383311  34.1934323
  68.3134174  19.8159802  35.6674314  67.3975611  19.5987165  35.4935670
  68.2809401  20.6807590  36.0765004  44.3504477  15.1848483  49.7007704
  44.9644852  15.2952981  50.4267120  43.5559368  14.8411834  50.1092815
  71.0764027   4.5930761  37.4951911  71.4002752   3.7628055  37.1459174
  70.1728392   4.6476400  37.1840286  54.8883681  75.0841622   7.4267911
  54.8199706  74.4767741   6.6901540  54.8305087  75.9522347   7.0276260
  52.2727919  20.4323888  62.7249193  53.0852175  20.6965613  63.1566715
  51.8545103  21.2567711  62.4765921  42.3835039   1.2041367  38.0193973
  42.7417898   0.3209567  37.9307580  41.9685078   1.2088001  38.8819456
  68.7264299  18.5568357  61.8681908  68.7748766  19.4738066  61.5979099
  69.6137238  18.2218301  61.7389011  45.1778711  62.1259580  28.0710626
  45.6594099  61.9821606  27.2563982  45.1088632  61.2563942  28.4651804
  52.6886272  11.2598062  36.5824914  51.7623138  11.0316372  36.5043354
  52.9691362  11.4335728  35.6839633  46.5306997  10.3476453  53.2630062
  46.0173845  10.0720096  54.0224552  45.8780384  10.5394101  52.5895882
  68.5146761  27.6683736  62.1808052  68.1424618  26.8496132  61.8532085
  68.6126184  28.2156229  61.4016008  71.2345253  43.8863004   4.6435403
  71.0552203  44.2370729   3.7711620  72.1087061  44.2121531   4.8576879
  30.9559393  11.8741798  49.1172361  31.0709906  11.0496736  49.5896578
  31.8449807  12.2087765  48.9994001  60.5346632  23.1572652  60.6709576
  60.0564909  22.8698659  61.4487648  61.2048054  23.7519097  61.0079098
   3.0775088  23.7758708  12.3908508   3.7458724  24.2299604  11.8777025
   3.3438987  22.8566957  12.3712051  11.1633891  34.6427464  47.1316719
  11.3925570  34.7942400  48.0486059  10.5412883  35.3393602  46.9220304
  35.7197142  56.4501858  61.9021225  35.8044219  57.3438549  61.5698385
  34.9272037  56.1133575  61.4841461  43.2305492  68.3016525  53.3892727
  43.1309570  68.2032023  54.3361759  44.1617216  68.4846495  53.2641220
  46.3864708   6.1302578  56.9582462  46.3534164   5.1788497  56.8584394
  46.5527487   6.2676173  57.8908348  29.5604920  30.7528806  56.1547804
  29.9594045  31.2746048  55.4584265  29.2606330  29.9568629  55.7158375
  30.1456968   0.5701822  32.3307800  30.2471057   1.2596744  32.9869365
  29.3434946   0.8013052  31.8624973  47.3822832  27.9759669  63.2651711
  46.7192364  28.6530161  63.4000921  47.7708197  27.8454709  64.1301823
  49.8826027  16.1197317  62.3685837  49.2869186  16.8375373  62.5834131
  50.4239225  16.0153711  63.1510878  11.3501220  50.3800074  11.0139179
  11.5618138  49.7238676  10.3499173  10.5204682  50.7574968  10.7216739
  52.5432253  59.2704630  62.3083591  52.9175425  59.7594881  61.5755749
  52.9643869  59.6412802  63.0838251  44.6883869  34.7063112  59.2592621
  45.1795912  35.5098343  59.4304371  44.3347120  34.8249865  58.3777523
  29.5041203  18.3646297  36.7167258  28.8817692  18.7592018  37.3276448
  29.0371227  18.3401382  35.8815360  50.4723133  79.9047978  65.8816290
  50.6779636  80.0740369  64.9622250  49.5594419  79.6169860  65.8738184
  76.6296946  74.9778489   0.6202840  77.2239100  75.4635123   0.0482082
  76.0549294  74.5024208   0.0204133  54.8842049   8.6946219  63.0373907
  55.3178406   9.3284118  63.6087942  54.4765091   8.0705160  63.6378145
  53.4649051  80.0094006  43.2166529  53.9807666  80.4978527  42.5751448
  53.8492454  79.1327489  43.2155943  71.5425825   3.8698792  30.6324124
  70.9252977   4.1804308  31.2947965  72.3138189   3.6005434  31.1312962
  46.9591986  46.8503348  11.5287399  47.7543830  46.6272924  11.0448360
  47.1328555  47.7209852  11.8865775  79.7141158  54.9939684  18.2682704
  79.9230133  54.4887535  17.4825477  79.2632376  55.7718901  17.9399776
  50.5877256  12.8832901  62.0203257  51.0854864  12.4404347  62.7075958
  51.2500238  13.3386683  61.5004969  17.4501240   9.5128506  67.2592354
  18.1769478   9.7577423  66.6865349  17.7830565   9.6591920  68.1446600
  34.2759371  23.0632877  56.3628006  33.5337877  22.8148866  55.8116722
  34.7960377  23.6501741  55.8139038  80.6341648  74.1195488  31.4897156
  80.1109219  74.7675228  31.9614983  80.1887608  74.0185547  30.6484962
  56.0788345  25.0521612  43.3312464  56.8925524  25.3940988  43.7016249
  55.8031893  25.7189584  42.7022552  63.4442520  22.8260159  59.2450047
  64.3920612  22.7858377  59.3725634  63.2455158  23.7620044  59.2192173
  78.1053196  73.7975339  20.9901141  77.8342329  73.4928040  21.8560695
  77.3111616  74.1713981  20.6083202  20.1901250  78.5883168  12.1662139
  19.8754172  78.6357216  13.0689620  20.7621675  77.8209833  12.1519756
  82.9709244  17.8128374   7.6976293  83.4403133  17.1956992   8.2589191
  83.3828640  17.7166831   6.8389684  14.8409419  73.9311127   7.4939203
  15.7109647  73.5323028   7.4782514  14.9827199  74.8005561   7.8683471
  41.3382570   2.1432537   6.7861842  41.8467132   1.3374513   6.8777561
  41.4478628   2.5921863   7.6244401  64.5478249  11.3873613  53.3170223
  65.0648308  11.8480623  52.6561928  63.8536549  10.9551072  52.8195143
  51.7366015  53.3664767   4.6255254  51.8556463  54.2968098   4.8166799
  51.0713827  53.3465306   3.9375448  12.0007281  59.4015316   1.3321399
  12.3663526  60.2851133   1.2893295  12.7565818  58.8241009   1.2249326
  71.1452961   5.8379418  61.2597418  70.9969711   6.1154056  60.3557205
  71.9469118   6.2911767  61.5209293  75.3698969  17.9141736  49.6272755
  74.5583582  17.4903953  49.9066448  75.3473759  18.7745070  50.0462627
  82.4405848  73.2791976  27.9028320  81.6131388  73.4520392  27.4537372
  82.6904236  74.1236262  28.2780074  77.5937891  26.9438744  44.7485065
  78.3525705  26.6537046  44.2422628  77.5135136  27.8761101  44.5467091
  50.9064293   9.3548167  41.8057394  51.8279552   9.6046597  41.8735456
  50.8014536   8.6507237  42.4456310  29.1517024  58.5250012  -0.0827265
  28.9964156  58.9731185   0.7487201  28.4665923  58.8548152  -0.6641722
  59.6509838  71.3538885  50.6913996  60.5434465  71.0172892  50.7716846
  59.2586708  71.1997890  51.5508080  63.8620043  26.7492056  30.7396150
  62.9910564  27.1262598  30.6150603  63.7019300  25.9206748  31.1914372
  37.7253199  17.4700069  53.8559294  38.5919452  17.8494895  53.7103701
  37.8781033  16.7530656  54.4714689  77.0517826  24.1166615  38.2370758
  76.8775511  23.6893463  39.0756917  76.7177153  23.5038424  37.5820303
  14.5146899  55.1060275   1.0350704  15.2510219  55.2595333   0.4430532
  14.9000268  55.1407413   1.9105958  58.4446144  59.3787909  39.2061853
  59.0838146  58.8301134  39.6607351  58.8076353  59.4917965  38.3277321
   2.4823670  32.2094796  36.0971450   1.5465551  32.3877738  36.0038661
   2.6056151  31.3546340  35.6844997  48.3746147   9.2325401  65.7026863
  47.6077938   8.9925492  66.2228966  48.7467051   9.9874097  66.1587048
  68.8973713  28.9525008  68.2043839  68.4532595  28.8064599  69.0396500
  68.7080860  28.1665587  67.6918459  75.9605551  20.4939890  39.1435599
  75.3037548  21.1895704  39.1753840  76.6273069  20.7650995  39.7745705
  55.1165247   8.0958289  42.4291182  55.9277058   8.4448421  42.7984524
  54.5495939   8.8607687  42.3306942  41.3463545  22.2791910  58.1299210
  41.7399073  21.5262485  58.5708570  40.4030895  22.1370339  58.2091284
  55.4950094  12.8439724  62.3820114  55.4034948  12.5527692  63.2892370
  55.8065510  13.7464654  62.4504185   7.5594391  70.4826103  38.0787516
   8.4102000  70.0739501  38.2382298   7.7315773  71.4227054  38.1318641
  68.3023344  74.9614529  13.6047649  68.0737053  75.8576659  13.3582687
  69.2585980  74.9396137  13.5684776  78.2248579  58.3299593  14.3113994
  79.1284739  58.2072977  14.6023750  77.8344761  58.8982562  14.9753761
   3.4224515  75.1592116   6.8411016   2.7102475  75.6889919   6.4828729
   3.0084376  74.6318297   7.5242519  17.6291232  57.8262679  10.4086398
  17.3576121  58.4452323   9.7308492  16.8286233  57.3529092  10.6352710
  44.5290661  18.4311438  58.2954979  44.8476410  19.1516805  57.7518368
  45.2857113  17.8533292  58.3947706  36.4673667  50.0816153   7.2093725
  37.1425395  50.5278770   6.6982745  36.5925937  50.4016165   8.1027650
  70.6136894  12.0727634  26.9068170  70.2773952  12.1429622  27.8002429
  70.3011847  12.8652513  26.4703107  13.5613004   2.9319805   1.6432142
  12.8519336   3.3003467   1.1165904  13.7861053   3.6269468   2.2618579
  84.6350705   0.2819614  19.0569972  83.8284432   0.7246045  18.7930965
  85.1948201   0.9830479  19.3907546  73.7748658  73.1436972   6.8477964
  73.8776528  72.7471761   7.7129173  74.6705376  73.2863406   6.5417575
   3.8876824  40.0880089   2.2983884   3.3900743  39.3408141   1.9662427
   4.7645621  39.9737439   1.9319772  36.2025118  41.8520117  22.5869226
  36.8558216  42.4967194  22.3153210  35.3694463  42.3211718  22.5408292
  66.5588617   0.7704300  52.3994732  66.3480139   0.3784294  53.2468891
  66.0688353   1.5925960  52.3873329  54.4362307  26.3287473  18.7006676
  54.7083426  26.2687254  17.7849245  54.3563366  25.4188538  18.9869201
  81.2631213   6.4258089  56.9808340  81.2896382   5.5434217  56.6108131
  80.7149779   6.3419809  57.7610540  53.9260578  33.8546920  53.6969709
  53.2760763  33.6705732  54.3751001  54.7107887  34.1120243  54.1809177
  11.3257079  44.1610048  18.3482932  11.7469125  45.0205348  18.3432769
  12.0488076  43.5404579  18.4392833  62.2013283  21.3645625  36.0961533
  62.2676516  20.4097939  36.0802865  61.3430452  21.5386438  36.4825273
  14.0330081  10.6415419  21.4498138  14.4231515  11.5041784  21.5907955
  13.4988933  10.7460241  20.6623935  24.1913180  28.3494679  17.0005226
  23.9005618  27.8347830  17.7533721  24.7949462  27.7714030  16.5339374
  81.0118198  45.5304956  51.2461042  81.2713146  45.8739567  52.1010494
  81.0761929  44.5801115  51.3402081  31.5731931  16.3225996  27.7259183
  31.2163496  15.5046868  27.3796320  32.1998835  16.6105115  27.0621443
   4.0080600  56.4781503  18.0008411   4.6266656  55.9962026  17.4519538
   3.4937768  56.9975905  17.3828410  21.8436861  22.2357368  51.3175058
  21.7703199  23.1023979  51.7171860  21.8456745  22.4057841  50.3755331
  46.2984276  22.6589918  57.3829794  46.4482355  22.5082064  58.3162832
  46.0840654  21.7946076  57.0320940  41.6831350  14.7142029  66.8924809
  41.5088797  14.3258417  66.0351324  42.6068735  14.9629080  66.8594790
  50.6486225  17.7243018  39.6831965  51.1837721  18.1169462  40.3728914
  50.6883287  16.7835808  39.8555303  53.7946311  21.2398142  24.0552139
  52.9203025  21.3297027  24.4342899  53.8154594  21.8824190  23.3460903
  70.5650711  40.1962233  40.4356909  71.1744213  39.5285964  40.7506418
  70.5021763  40.8224440  41.1568880  74.8905897   6.0260797  61.0839415
  75.5823851   6.1026430  61.7410517  74.2770147   5.3919280  61.4549017
  68.9846659  13.3532012  42.3871851  69.8601913  13.1360674  42.0669603
  69.1041756  13.5093856  43.3239651  60.0362253  34.6629071  56.6993046
  60.7520008  35.2982593  56.6841412  60.4408741  33.8396716  56.4258528
  76.1737156  36.6987658  36.3433433  75.7379389  36.8319011  35.5015540
  76.9178247  37.3006153  36.3256717  50.8369780  30.3305149  45.9805965
  50.8004713  29.3910313  45.8009529  49.9587250  30.5490708  46.2922764
  78.1619917  37.6865899  14.6321201  79.0993868  37.5276403  14.5213985
  78.0759369  37.9924489  15.5350494  58.9678001   8.0530334  56.3763762
  58.3216429   8.6540979  56.7471027  59.8118258   8.4030354  56.6615963
  37.5408030  26.5801048  47.2304773  38.0075598  26.7221713  46.4069557
  37.2211242  27.4479032  47.4773836  44.6769958  47.0855520   4.5227384
  45.5886035  47.3767183   4.5022535  44.1703754  47.8693966   4.3102455
  46.4040375  31.6417336  44.1890717  45.5687714  31.3371658  44.5437527
  46.1929226  31.9452691  43.3061600  76.6562809  72.0440773  36.0620284
  77.1601261  71.9859872  36.8738127  77.3148788  72.0088581  35.3683186
  56.4104462   3.5623959  35.7583499  56.2796879   4.1002244  36.5392947
  56.7173719   4.1776824  35.0924301  79.7984552  27.3564887  50.7434845
  80.6903648  27.6913905  50.6508780  79.2925739  28.1059957  51.0574150
  63.7218428  32.8074551  50.1105356  63.5164976  32.7954078  49.1756964
  64.6725130  32.7024174  50.1483059  73.9809847  37.5152731  23.5929179
  74.4303513  36.7557883  23.2221293  73.6809921  38.0114627  22.8313184
  52.3780025  76.4398835  17.6063192  52.6679100  76.4193521  18.5183311
  52.0321811  75.5620177  17.4451041  38.6652613   9.6926868  47.1580267
  38.4477830   9.6038884  48.0859518  39.5466852  10.0659156  47.1532536
   0.7921523  14.4541228  38.9201283   1.6041678  14.0174663  39.1773987
   1.0246676  15.3812253  38.8686514  85.4398441  22.8088284  61.8690300
  84.9343872  23.4912014  61.4273119  84.8741341  22.0371127  61.8432283
  33.5317707  33.3422422  54.3602610  33.5343266  34.0980434  54.9476194
  33.9198709  32.6360798  54.8769236  53.1772566  24.0886545  37.1210384
  53.7651873  24.3797302  36.4240170  53.1351089  23.1380129  37.0174193
  45.8778394  60.2227316  45.9142685  45.9840215  59.3416081  45.5556965
  45.7348646  60.0846515  46.8506050  10.4583231   4.7816604  20.4160594
  10.9402434   3.9650768  20.2849960   9.8113100   4.5724481  21.0897350
   9.1918330  35.0688271   2.6659059   9.5128827  35.4234658   1.8368148
   9.6508365  35.5746211   3.3365154  77.2754717  14.3312562  42.1863556
  76.9369030  14.9131262  42.8668213  77.3458433  14.8863876  41.4097548
  63.3372879   8.5027128  54.9249983  62.8023815   7.7336800  54.7282839
  62.7026558   9.1999006  55.0905514  15.0206102  72.4978421  56.4922523
  15.1227201  72.8431348  55.6053591  14.9384750  71.5516678  56.3729191
  17.2040753  74.9032644  22.1156597  16.7924075  74.5523838  21.3259506
  17.4804168  75.7860760  21.8696689   0.0310153  11.6318142  66.2583399
  -0.0556165  11.1632788  65.4281616   0.1045340  12.5525463  66.0071850
  24.1273702  79.0677624  56.8658018  23.3029665  78.6122891  56.6951036
  24.0547384  79.8864433  56.3751698  68.2394123   3.2833618  42.8459072
  68.5617018   3.1414858  43.7359810  68.8107634   2.7472749  42.2959995
  59.5839654  65.9403781   4.2318057  59.3961607  66.8780641   4.1904687
  60.4936587  65.8910278   4.5254993  76.7925692  22.7321863  43.5550880
  77.7163363  22.7827048  43.3094692  76.4204502  23.5632253  43.2598972
  49.1325092  28.7008667  52.7875805  48.6397028  29.1806912  52.1218920
  49.8089838  29.3146992  53.0736303  66.4142097  74.4404451  67.1278906
  66.8286766  75.0796095  66.5483046  65.4767288  74.5387469  66.9614601
  50.0892305  28.5458732  57.1967459  49.3582153  29.0523577  57.5507545
  49.7503567  28.1729531  56.3829088  66.9368505   8.5590690  67.6088619
  66.1542940   8.4686655  68.1526089  67.1152925   7.6720172  67.2965622
  66.0429716  23.1359982  31.0547090  65.2716875  23.5654449  30.6846738
  66.3463402  23.7348914  31.7370033  68.6800241  13.5082912  51.6322708
  68.9548540  14.0723157  52.3551655  68.9309835  13.9898336  50.8440018
  54.4941770  33.6333851   4.5744228  54.7035133  33.8113056   3.6574935
  55.3422557  33.6343638   5.0182628  30.1567499  11.8923038  16.6047191
  30.2487651  12.5043529  17.3348903  30.9425251  11.3474411  16.6484260
  26.2933961  11.3706631   3.0304479  27.1942083  11.3224500   3.3505201
  25.7561246  11.1634535   3.7950658  46.2534904  18.1105912  30.6293178
  46.2063169  17.1618819  30.5111790  46.8912601  18.4016895  29.9775958
  44.3726349  14.3696463  60.2945614  45.3018093  14.2309749  60.1111603
  43.9573193  14.3805552  59.4322300  81.8165861  58.7529830  17.9605483
  81.9450079  57.8497819  18.2503223  82.6993834  59.0724663  17.7739333
  26.1433116  19.5622581  27.4280071  26.9628707  19.0997118  27.6029586
  26.4072267  20.3389591  26.9347381  41.3735580   1.9325918  48.0071497
  41.9482374   1.2863606  47.5968361  41.8283129   2.7665842  47.8893089
   0.2973657  60.4567889   4.7548246   0.9463506  59.9815826   4.2359542
  -0.5451865  60.1899580   4.3872070  44.3408346   2.3972912  36.6488290
  43.5676765   2.0819989  37.1168566  44.4440603   3.3033139  36.9398594
  84.2313372  32.3615185  13.8264942  83.6144816  32.6668034  14.4917201
  84.0380513  31.4289532  13.7306022  49.9845939  11.2824239  25.4250717
  49.3094878  10.6248750  25.5927014  49.6202903  11.8272676  24.7274637
  49.5287895  46.3991690  47.6235056  49.6475554  47.1776295  47.0793295
  48.7042904  46.0187578  47.3206711  23.0909352  74.8887972   4.5676278
  23.1626420  75.4423217   3.7900018  23.0427461  73.9970068   4.2232179
  55.4831886  14.1590500  65.2276373  54.7223377  14.5632088  65.6447601
  55.7545090  14.7903442  64.5612431  41.1290646  38.7613487  62.0564175
  41.8786240  38.2830501  61.7019844  41.4694357  39.6365118  62.2420645
  55.4667139  49.6609211  39.5685458  55.9516096  48.8425636  39.6752882
  56.1429167  50.3229856  39.4248199  57.5404263  37.9788995  47.2470713
  57.1831179  37.4628091  46.5244293  56.7965937  38.4887695  47.5679731
  62.2773314  50.8468628  59.8529434  63.2270765  50.9162188  59.7559738
  62.1018696  49.9062681  59.8259878  84.6101475  28.8380647  57.5567293
  84.6468735  28.7665486  56.6029119  83.9248276  28.2225084  57.8168583
   4.5413226  57.4254656  49.5290947   5.3282374  56.9499922  49.2627668
   4.5659369  58.2345486  49.0182018  69.6366119  47.4237871  44.2678881
  68.8799667  47.2022486  43.7250805  69.3820620  47.1608877  45.1523733
   2.2073640  72.4112908  60.1377201   1.5741242  71.8091432  59.7470093
   2.3669327  72.0566873  61.0123777  69.4279385  60.8327961  51.7837763
  69.9058247  60.0189638  51.9435740  69.7343588  61.4286566  52.4673605
  63.7331724  54.7702599  61.7562532  63.8818455  53.8755560  61.4502573
  64.6081209  55.1041842  61.9542170  80.0151062   8.2874948  51.6402531
  79.8867035   9.1932690  51.3586187  80.7596111   7.9792762  51.1235809
  34.5135360  78.0044727  12.6541232  35.0041633  77.2840480  13.0497360
  33.7692981  78.1381540  13.2410240  63.3648872  63.3074808  65.5501175
  63.0759811  63.4606266  66.4497328  63.4293699  64.1823149  65.1670504
  24.2433696  56.2177912   7.6106977  24.4547324  56.5431837   8.4857272
  24.8162036  55.4601459   7.4920701  64.1827726   9.7009212  67.7841616
  64.1214132   9.7771126  68.7363529  64.7642469  10.4152596  67.5236988
  18.7989539  23.8337302  50.2456856  18.4876746  23.6218119  49.3656731
  18.8252372  24.7903419  50.2665424   3.5118312  53.6428976  28.1870008
   3.2036608  54.2896652  27.5522137   4.0758342  54.1392660  28.7800860
  61.5383148   6.1500460  43.3927250  62.2497988   6.7902261  43.4065294
  61.1372375   6.2562835  42.5301218  37.9714052  26.2077087   3.7342023
  37.5138322  25.5594105   3.1988763  37.3829023  26.9624227   3.7515067
  41.9256783   5.3893632  68.9589500  41.2463760   5.8319336  68.4501123
  42.2142792   4.6694195  68.3980370   2.2711949  36.8776960   3.1767177
   2.3197465  36.2001760   2.5022983   2.0893388  37.6838396   2.6937150
  59.0151787  17.6089716  63.9484692  58.2065582  17.5984728  64.4605732
  59.7131920  17.6243961  64.6032763   3.7897223  39.5561290  61.7264223
   4.1715926  40.0981140  61.0360193   4.0131396  40.0104856  62.5387478
  61.4349222  10.0322306  56.9696760  62.2581387  10.3958023  57.2958183
  60.9617233   9.7659576  57.7579737  51.3999033  30.1762271  53.6197662
  51.9263268  30.9473729  53.4089422  51.8832731  29.4442248  53.2366705
  64.6495438  17.1246314  60.4257822  64.0835619  16.3756001  60.6124640
  65.2869272  16.7916429  59.7940445  54.8853350  63.1923294  54.0864706
  55.5496454  63.8784838  54.0223980  54.0557194  63.6665773  54.1418123
  70.8692026  42.6933765  62.2939634  70.5737829  43.1179094  61.4885283
  71.0343933  41.7855263  62.0395041  19.2636508  52.8822851  40.9617805
  19.0372103  52.8745890  40.0317812  18.6604804  52.2549343  41.3603449
  81.8341637  32.2998977  17.4468744  81.6882133  32.6049113  16.5513873
  81.0273838  31.8392873  17.6774907  66.1765385  47.8074026  44.7768688
  65.8285952  48.6724901  44.9931765  66.1803675  47.3356771  45.6097507
  25.8318464  12.9061741  19.0136432  25.8391658  12.9362959  19.9703407
  25.0839511  12.3493475  18.7972545   7.1293264  45.9213046   3.5749149
   6.3151698  45.4190151   3.6078548   7.7788072  45.3520672   3.9876794
  27.0189433  41.7618522  24.0956306  27.8159862  41.5808641  24.5938205
  26.4458995  41.0181463  24.2820644  55.0926018  26.4574885  51.9337225
  55.2723265  26.6162872  51.0070562  55.4847717  25.6024265  52.1106577
  67.1494484  35.6654239  67.9458618  67.8130960  35.1403546  67.4985266
  66.3229465  35.2239227  67.7504206   8.0741935  30.6005899  11.0454845
   8.7708097  30.1418463  11.5150737   8.5230689  31.3078169  10.5822658
   5.5064887  45.4778528  52.4801445   5.7675570  46.3904762  52.3568583
   4.7612876  45.3602362  51.8910170   9.0715639  35.6870788  10.7907962
   9.5652358  36.3902944  10.3688907   8.3371655  36.1310238  11.2148284
  77.6018095  39.0174413  50.8152437  77.7954292  38.1178093  50.5517960
  76.6521168  39.0331483  50.9338474  58.7091303  63.5093021  52.9481745
  58.8771486  63.5148668  53.8904953  59.5584154  63.7048244  52.5522947
  80.1796341  32.4478865  39.6870542  79.8649120  33.0088687  38.9782000
  80.1715374  33.0118775  40.4604101  78.6206423  47.7229742  15.7152175
  78.6207472  47.1159134  14.9751472  77.8156792  48.2299254  15.6090450
  62.7793455  21.7807364  68.2763863  63.6647749  21.7568994  68.6392546
  62.9098272  21.8587780  67.3313379  64.3557739  21.9292283  65.8656883
  64.0730715  22.8329349  65.7256079  64.3089962  21.5265012  64.9985933
  65.9150410  19.4481838  54.1463709  65.6006765  20.2074122  54.6372652
  65.1548529  19.1570663  53.6427832  67.9407454  38.7037158  42.7199125
  67.8547001  38.1788373  43.5157299  68.3944225  38.1299710  42.1024704
  30.9358935  24.4397630  59.9692822  31.8546157  24.4486704  59.7007751
  30.6914287  25.3639688  60.0172997  79.7780991  66.4845324  61.2877703
  80.5272865  66.0361624  61.6800928  79.6590805  67.2674561  61.8254423
  34.5453691  31.1265993  62.6664448  34.4098735  32.0553708  62.8542042
  33.7254286  30.8416963  62.2630072  13.0578722  60.4657553  20.3768444
  13.3240999  60.1021347  19.5323718  13.0947794  61.4140151  20.2516508
  61.7473745  36.8123364  46.6987181  62.0105600  36.3542366  45.9005260
  62.4747229  36.6737199  47.3053312  69.9469519  22.9993820  33.0032802
  69.7273302  23.4959626  33.7915754  70.2677011  22.1592021  33.3310747
  42.6443195  22.0065331  55.3305006  42.2002983  21.4519429  55.9719849
  42.0873070  21.9666505  54.5530796  83.9947128  16.3069034  68.6940002
  84.6005917  15.6117988  68.4371710  84.0055943  16.9183052  67.9575920
   8.2385367  25.3926301  31.2837887   8.3718699  25.4111338  32.2314763
   8.3568495  26.3014126  31.0074806  27.3493152  35.5125869   0.0051784
  27.4870353  34.7691963   0.5922365  27.9050307  36.2055687   0.3618097
  28.9581351  65.9369783   0.3651809  28.6370521  65.1741509   0.8460521
  28.4108119  66.6604284   0.6706189  59.2378902  50.1088572  68.7087870
  59.6325827  50.9375906  68.4373999  58.3778381  50.3536558  69.0502787
   1.9792956  58.9805317  26.6138864   2.1860236  58.4768963  25.8265829
   1.9499606  58.3287764  27.3143053  69.3830763  72.3359541   1.5501737
  68.8795458  72.7803950   0.8681440  70.2957379  72.4425701   1.2819909
  50.5977106  26.9304442  60.6549263  49.8134470  26.4591599  60.3737545
  50.4471445  27.8337193  60.3762531  11.6300922  51.1027376  30.4416370
  10.7894426  51.0047070  29.9945068  11.9264989  51.9814424  30.2044582
  66.9630480  60.9987116  47.6499081  66.9714165  61.9391870  47.8278494
  66.4682627  60.6216955  48.3774281  20.2249302  65.0091002  45.8834696
  20.1102031  64.4871722  46.6776133  19.3348755  65.1593445  45.5649424
  32.5794593  17.7843899   7.2224426  32.1485321  18.2843059   6.5291786
  32.0390693  17.9354185   7.9979467  49.6808105  50.9219245   0.9197664
  50.3055244  50.2843968   0.5740499  50.2026897  51.4805524   1.4958000
  57.0982504  37.6196694  59.1519642  57.7226162  38.3085990  59.3795013
  57.1241760  37.5791359  58.1959772  63.5472107  15.7497764  29.4172478
  62.7415609  15.8885348  28.9193463  63.9093685  14.9367142  29.0651083
  76.6923666  17.9760909  52.5820732  76.0903406  18.7051570  52.7312517
  77.5121880  18.3928943  52.3167419  79.3684673  41.0146236  27.5217414
  78.7649298  41.2380648  28.2302928  79.8400831  41.8282413  27.3433208
  73.5823727  32.3472714  25.5937386  73.6223364  33.2612991  25.3123283
  74.1673470  31.8858552  24.9927998  80.6453800  16.6472268  64.9589872
  79.6891880  16.6158283  64.9283171  80.9161568  16.5982616  64.0421915
  14.7038846  68.8517026   5.8681535  13.7486606  68.8121156   5.9151697
  14.9723010  69.1837792   6.7248391  74.9694300  56.8101311  40.3857613
  74.1815424  57.0304155  40.8826923  74.6625471  56.7026806  39.4854784
  81.7351532  66.4904547  39.9817300  81.2948704  66.3793516  40.8243656
  81.7141628  67.4341869  39.8231149  79.1151810   2.3077771  50.3052711
  78.1590271   2.2984256  50.2614927  79.3371439   3.2183623  50.4996872
  80.9803772  24.5984101  59.7400808  81.7354774  25.0925970  60.0591946
  81.1068821  24.5531845  58.7923574  73.8074732  32.8436947  37.4371123
  73.0161095  33.3620667  37.2912812  73.4888268  32.0167112  37.7987671
  45.8723736  37.3306632  69.5438766  45.8942795  36.6114831  68.9125824
  44.9814129  37.3154545  69.8934460  14.0079325  26.0369802  39.1329050
  13.5789317  25.1947117  38.9820123  14.4175929  26.2506962  38.2946134
  10.3966063  33.0881095  35.9842944   9.9413794  33.2655334  35.1611805
   9.9519843  33.6400056  36.6276884  23.4507674   8.4866506  37.2339964
  23.0902499   8.5903335  36.3533688  23.3578128   7.5527978  37.4224401
   4.3720454  41.6936874  51.7347622   4.7813910  41.1797285  51.0386896
   4.2010421  42.5460577  51.3341904  61.6408825  40.4595566  63.7026930
  61.8739319  40.0024128  64.5107365  62.4444342  40.9095144  63.4417772
  16.4708095  63.9126329  19.3952274  16.1544423  63.9830426  20.2958869
  17.2137694  64.5147828  19.3545818  39.7497026   4.3058151   2.3288678
  40.5204193   4.8568481   2.1925115  39.6279613   4.2949575   3.2782316
   0.9953231  22.8488970  23.6823392   0.5956382  22.4381328  22.9156852
   1.7098445  23.3768392  23.3260155  52.2396080   5.3357691  15.1595496
  52.5412170   4.5691437  14.6721553  51.8043605   5.8805126  14.5037555
  15.6001668  56.4159695  10.9785365  15.5717807  55.4756598  11.1553001
  14.7418552  56.6154174  10.6047057   1.6220587  63.0589867  44.3516493
   1.6628760  62.1081114  44.2496777   1.7565650  63.2054520  45.2879667
  48.9848852  23.3900905  39.1450429  48.7835312  22.6174927  39.6730375
  49.7526407  23.1365871  38.6326718  42.0735455  30.8224726  68.0957651
  41.9846344  29.9670911  68.5160637  41.1864424  31.1820245  68.0943871
  52.3164511  50.5046463  54.7770739  52.5430489  51.3379049  54.3640757
  52.6394892  50.5864143  55.6744003  76.4182936  70.4458765   3.6256170
  76.0525977  71.3291983   3.6729526  75.9794890  69.9669937   4.3287229
  72.8764426  78.8727884  28.1713294  72.3882662  78.1514696  27.7743148
  73.0059229  79.4963173  27.4567127  43.6710376   0.2425800  40.9643936
  43.4488791  -0.3966635  40.2874565  42.9005641   0.8075810  41.0223866
  83.7185192   5.0996649  15.0093234  83.8613319   5.6974882  15.7431102
  84.4156837   5.3115332  14.3885922  52.6999998  59.7407007  34.3829012
  53.5389709  60.1631689  34.1988325  52.4169827  60.1221466  35.2139425
  82.8330612  25.9221077  15.8300817  82.9718876  25.7901239  14.8922443
  83.1949234  25.1358104  16.2387645  58.8490438  51.3563251  45.7173777
  59.3692303  52.1344328  45.9178686  58.6123323  51.4574862  44.7954416
  51.1766052  44.3422747  55.0006247  50.9260178  44.0012646  54.1420507
  50.3454971  44.5491266  55.4280615  66.2614727  63.2743120  65.9702396
  65.3394461  63.0887747  65.7922649  66.3643360  63.1011629  66.9060135
  83.3025742  35.9856582  66.7420578  82.3455048  35.9750342  66.7305756
  83.5408974  35.3582525  67.4245548  53.4500408  21.4985704  51.3145733
  53.1884098  20.6743383  51.7249632  52.9556942  22.1686721  51.7866039
  77.4129963  55.4316664  45.5587912  78.2357740  55.6818819  45.9791040
  76.7365694  55.8640051  46.0801029  66.9919430  58.3358983  41.2070274
  67.2889053  58.5965232  40.3351783  67.5600373  57.6029889  41.4443969
  77.5519180  12.0774198  37.2539091  77.3905468  13.0087805  37.1030474
  77.1416759  11.6393936  36.5082097  26.6760770   0.6422466  13.8922786
  27.1441642  -0.0939375  14.2861747  26.9994728   1.4108032  14.3623447
  20.4473227  50.7110310  58.9051008  20.9526080  50.5276394  58.1130886
  19.5409793  50.5257940  58.6592245  16.9612802  78.7290118  52.0241356
  17.8313173  78.3340254  51.9670677  17.1272434  79.6399459  52.2668028
  15.9989600  47.6842258   2.6837921  15.2688985  48.1069181   3.1360912
  15.6973462  46.7895643   2.5261735  19.2460685  76.6059283   7.9734468
  18.4553199  77.1219162   8.1306171  19.9644332  77.1847848   8.2286167
  50.8336310  57.3897878  12.6990795  50.5475192  57.8705112  13.4757900
  50.1059203  57.4749903  12.0831203  70.7635069  39.3116593  44.1755247
  70.4678202  40.1995897  43.9745665  70.8608723  38.8923883  43.3205605
  69.7344685  18.6036205  48.1318045  70.0462294  18.6361790  47.2273827
  70.3507042  19.1519201  48.6174536  78.6854826  40.0846136   8.8184118
  78.5131537  39.1431599   8.8325023  77.9206025  40.4744784   9.2417240
  52.2612630  77.6932363  12.7100276  51.9542443  78.3271269  13.3582210
  51.8425046  77.9641632  11.8930435  26.8186492  52.4018717   3.1936440
  26.0710639  52.2016048   3.7568906  27.4905890  51.7720509   3.4545171
  56.6404819  18.2240677  52.6938677  57.0576239  17.5761425  53.2616854
  57.3070765  18.4337997  52.0397282  32.7178804   3.9137453   7.8284835
  33.4196607   4.5558399   7.9354810  32.0542614   4.3684429   7.3097371
  84.2561150  24.7702980  24.5380974  84.9589252  24.3141890  24.0752149
  83.9255238  24.1271210  25.1652026  28.2415156   0.4242220  58.4026670
  28.3660560  -0.4253350  58.8257313  29.0939193   0.8539953  58.4728622
  50.1670980  55.8291864  52.9658079  50.8080435  56.0532522  53.6405039
  50.2717829  56.5094900  52.3006344  13.5574168  60.9476423  65.9532928
  12.7071208  61.1860991  66.3225698  13.8785094  60.2487469  66.5230989
  28.8772445  45.2719829  20.9631252  28.1531005  45.7525138  21.3642978
  29.5142608  45.1650895  21.6695308   5.3189963  28.5516930  61.2209940
   4.8758143  29.0392137  60.5266285   6.1030501  29.0664291  61.4121437
  73.8961172   7.5873089  58.9529181  72.9476881   7.4586719  58.9401531
  74.1270351   7.5748545  59.8817635  59.0852261  53.3419657  49.8548460
  58.7950897  54.2007351  49.5473289  58.5805798  53.1906843  50.6540203
  57.7745247  72.1628761  66.3942862  56.9809294  72.5740194  66.7369223
  58.3579731  72.8956699  66.1972141  10.2632827   9.3072253  27.9751515
  10.9357661   9.8389369  28.4009194  10.4347819   8.4158683  28.2789683
  20.4333991  27.2972035  14.9398458  20.1611060  28.2109785  15.0241280
  20.0807685  27.0192027  14.0945029  56.0487270  50.2102709  55.3677607
  55.7635546  50.1599360  56.2801075  56.4808083  51.0615873  55.2984953
   6.7669050   6.9829458  20.2720355   6.5415946   6.1851448  19.7935199
   6.4764110   6.8146843  21.1684417   5.3062934   7.3350245  55.9255981
   5.3725642   8.0190569  55.2593088   5.9197062   7.6058167  56.6087008
  66.0586643   3.4109688  66.9299316  66.2944317   4.2678294  67.2855091
  65.1014900   3.4050629  66.9340706  72.8802633  45.7438469  45.6546164
  73.4525442  45.3549147  44.9932146  72.8265238  45.0819397  46.3439798
  45.9840298  77.3625326  41.5068245  46.7059374  77.9589653  41.3084459
  45.7885456  76.9370747  40.6719589  19.2150455  42.4189402  20.9708309
  19.8274188  43.1176804  21.2010383  19.7373395  41.8020071  20.4581546
  68.3794546  27.9861403  27.7863216  69.0492868  27.3028708  27.7598739
  68.4110355  28.3862710  26.9173384  56.1754131  30.6395769  51.6549921
  56.9069195  30.1679325  52.0533419  55.8785629  30.0675201  50.9472752
  31.0269191  63.0379895  11.2010955  30.1277875  62.8628997  11.4788341
  30.9859126  63.8995318  10.7860183  68.6868369  71.4226441   6.5757894
  68.7588726  72.0173077   7.3223924  68.8667857  71.9726185   5.8133029
  55.9973110   0.2693077  67.3294351  56.0669960   0.3505131  66.3782359
  55.0615181   0.3592487  67.5095764  75.3007690   9.8517841  12.2050762
  74.4009773   9.5638412  12.3589706  75.2416889  10.8058447  12.1549701
  52.9102135  28.5212421  57.9049349  53.2645178  28.2538581  58.7529945
  51.9611645  28.4540915  58.0099201   9.9741000  27.9480195  50.2160120
  10.1197547  28.1150126  49.2848158   9.1346282  28.3668566  50.4060173
  43.3875656  66.8964481  66.4704704  43.9940977  66.7490196  65.7447910
  43.7545538  67.6448250  66.9410944  85.0222145  65.5822114  13.3389663
  84.8328482  66.4944390  13.1193923  84.5448719  65.4280285  14.1541957
  59.7379017  19.1015744  45.5005932  60.4917622  19.0437138  44.9135876
  60.1203346  19.1796219  46.3745975  83.4650803  32.6435566  65.1746273
  83.4538460  33.4583426  64.6723986  82.8262424  32.0824146  64.7350454
  62.3973608  62.5257874  45.3169441  62.9168749  63.2681704  45.0083923
  61.6267967  62.5202036  44.7491169  30.7297282  76.9397692  12.0485401
  31.6114478  76.5942959  12.1880340  30.1560073  76.3222937  12.5021839
  25.1419181  33.1211329  49.4900751  24.8148078  33.9059567  49.0504408
  24.6538085  33.0863976  50.3127337  52.0401192  43.9334774  65.6489086
  51.5198469  44.7369242  65.6438398  51.3956833  43.2313919  65.7384300
   1.0150832  61.8571806  65.2444649   0.5915564  61.0461044  65.5255651
   0.3160781  62.5108719  65.2618551  15.4985862  79.9494461  20.5532264
  14.7660356  80.2520708  20.0165462  15.1076036  79.7567014  21.4054107
  26.8663173  53.2986037   9.5450258  26.5066581  53.6455921  10.3614044
  26.2010818  53.4981136   8.8863277  18.5054342   7.1135992  21.7474460
  19.3338529   7.4685472  22.0698833  17.9483739   7.8818220  21.6219615
  79.8858452  16.6858089  60.3352976  79.7315693  17.6173317  60.1781416
  79.1525030  16.4111030  60.8857298  60.3361320  57.8038406  46.4555883
  61.2127352  57.9740047  46.1108494  60.4869032  57.2995329  47.2550726
  67.7801991  59.3343925  38.7147260  68.6975193  59.5633507  38.8641739
  67.5136042  59.8827887  37.9768801  36.8347740  22.4342680  49.3142509
  35.9243035  22.5306535  49.0349913  36.8437886  21.6259313  49.8268366
  70.9001255  23.2103419  30.5217338  71.5770483  22.5370550  30.4532170
  70.5118608  23.0725694  31.3857388  80.3923893  28.2223797  57.3549032
  80.5425930  27.3087573  57.5977373  80.1787090  28.1903362  56.4224100
  80.4280472  43.0074310  57.1993494  81.1461639  43.6353207  57.1199894
  80.3808784  42.5876904  56.3403797  19.3257814  69.6201829  11.7032337
  19.3671184  70.5764870  11.7053699  19.0132194  69.3920020  12.5787162
   8.7569731  36.5246487  40.8087254   9.3841761  36.5732050  41.5301752
   8.9339942  37.3057151  40.2844810  56.3044262  40.0327969  50.7329845
  55.7754803  39.8008561  49.9696684  55.7253695  39.8826218  51.4802265
   4.9676341  41.4131403  59.8578930   4.7579402  41.8659878  59.0410757
   4.9810332  42.1053362  60.5188847  55.1526165  25.8324957  16.0174358
  54.8907757  26.0111022  15.1142347  55.4250097  24.9148941  16.0108435
  36.6770034  60.6154041   1.4576148  35.7201533  60.6395487   1.4485072
  36.8935924  59.6843867   1.4073228  25.0381011  29.1748071  48.0143642
  24.4602507  29.7588730  48.5054731  25.8539122  29.1684556  48.5150003
  58.5356903   7.5925869  49.8894691  59.1072226   7.5251877  49.1245890
  58.9978218   7.1127599  50.5768013  84.7157860   6.5996236  49.1713715
  85.3904438   7.0711893  49.6599293  85.2019501   6.0869777  48.5255671
  83.0704880  25.7646441  29.4129348  83.0335617  26.5447068  29.9664402
  82.8631020  25.0412154  30.0044346  57.3810244  62.8683233  68.3330011
  56.9337654  63.2403660  67.5728893  57.8710318  63.6015463  68.7051678
  72.6669121  35.0710034  42.2009277  71.7286587  35.2593851  42.2213793
  73.0012989  35.5981994  41.4753389  59.5744944  52.3650312  42.5455809
  60.4859638  52.3467350  42.2538280  59.2359734  51.4964628  42.3282814
  75.4076433  48.7818909  54.6146870  75.0578070  49.4977808  54.0842628
  75.4730225  49.1473055  55.4969740   0.0556582  28.2682276  35.7493353
  -0.3004438  27.5604272  35.2122664   0.9951895  28.0894947  35.7888055
  82.5605523  42.4709492  13.7654209  82.0088946  41.8789199  13.2541370
  83.4531819  42.2680714  13.4856223  63.8204765  36.2160754  48.8415623
  64.4903564  35.6730461  48.4260988  63.8867712  36.0071659  49.7733307
   1.9501322  22.7817893  44.5318174   1.4807051  22.9396653  43.7127018
   1.5433806  23.3787394  45.1598597  40.7375336  17.0505893  41.8804884
  40.1400948  17.0255375  42.6279306  40.5073071  17.8556657  41.4167213
  39.1561092  76.4563105  62.5068235  39.1287197  77.2239164  61.9356298
  40.0653900  76.1599905  62.4663830   7.1722798  77.4090199  19.9534702
   6.5438848  77.4409823  19.2321300   7.9502349  77.8508429  19.6131515
  32.8470492  39.3034935  61.1517620  32.7120590  39.9946547  61.8000746
  32.7970624  39.7532225  60.3082705  18.3496588  78.3005571  24.1721773
  17.6964205  78.4891987  24.8459148  19.0884608  77.9271412  24.6527696
  82.9412365  42.7201605  66.6210222  82.0205212  42.7345371  66.3596535
  83.2072735  43.6395979  66.6115761   0.6112879   7.4407279  10.2847636
   0.4265898   7.9451007   9.4924712   0.2775305   6.5641409  10.0938988
  27.6493398   5.6961960  15.7569217  26.7178670   5.8029074  15.5640411
  27.9546968   6.5803570  15.9600257  47.4879694  12.5891650  51.1086321
  46.8194675  11.9096637  51.1958933  48.2156038  12.2800052  51.6482639
  73.9510441  40.3060865  58.2438278  73.0909252  40.5606031  57.9096937
  74.5098591  41.0631084  58.0681133  74.9129330  79.2002539  22.0768070
  74.4021403  78.5201244  21.6377830  75.6595456  78.7339310  22.4527644
  44.3859005  57.0208120  51.8604231  43.6923599  56.3621855  51.8983793
  44.7906637  56.9926405  52.7273750  62.1182489  43.0075550  65.2926016
  62.6651478  42.9361296  64.5102739  61.7110920  43.8709784  65.2221966
  78.4433889  41.7269278  24.1221952  78.4285116  41.3747931  25.0121474
  79.2418671  41.3673878  23.7356758  83.3311844   5.1860565  39.1408682
  83.4743881   5.8682185  39.7969007  82.6052952   5.5132753  38.6096001
  60.9446716  50.8955956  50.8405924  61.0044956  49.9628162  50.6342602
  60.5686808  51.2912083  50.0542355  62.0075321   9.8202544  47.6041317
  62.7834082   9.2712045  47.4910498  61.6782236   9.9554628  46.7155933
  45.3648663  20.0091529  56.1740875  44.7717762  19.5721090  55.5629635
  46.2404919  19.7671354  55.8725262  70.9108591  39.1314721  58.0258417
  71.2701893  38.2611942  57.8534222  70.3597832  39.3179655  57.2657299
  49.4668007  49.0053368  46.5804672  48.6038685  49.2460680  46.9175482
  49.5224667  49.4424057  45.7307005  45.5831199  45.1457755   1.9574403
  45.7764201  45.1536707   1.0199928  45.2045970  46.0076080   2.1312045
  56.5622807  61.0298061  56.1870337  55.6307554  60.9810734  55.9722853
  57.0048523  61.0139418  55.3384399  82.3547745  25.0878763  49.6137428
  82.4294567  24.1439152  49.4737768  81.4942360  25.3149080  49.2613649
  42.8427185  78.2785114  33.8935137  43.4833778  77.5734941  33.9869738
  43.2163490  78.8548451  33.2268286  74.1481209  55.5630255  48.1240702
  73.6869907  56.2116671  48.6559105  73.7562037  54.7262001  48.3737898
   7.7062434  34.1021252  41.3748598   8.1102198  34.8957849  41.0239410
   6.9949836  34.4209456  41.9304562  78.7586164  46.7675972  61.6895485
  78.8674021  46.2572527  62.4920130  78.3855486  46.1493301  61.0612249
  62.0646304  42.6732492  57.2180128  61.5123576  42.5109482  56.4532328
  62.0454329  43.6236858  57.3299456  79.0825176  78.5918379  53.3898973
  80.0321770  78.6868191  53.4631014  78.9287090  77.6508570  53.4743452
  44.9171275  72.4127102  41.6760969  45.1003760  71.8830490  42.4520540
  44.4842261  73.1953573  42.0171118  69.6002865  41.7046356  49.8262548
  68.6614370  41.5751362  49.9605274  69.9873209  41.5651894  50.6905413
   2.8088956  68.8272552   7.5686597   2.1973758  68.7297444   6.8387508
   2.4112945  69.4957546   8.1265592   7.5053042  30.1921153  61.8062735
   7.4841231  30.8315516  61.0942984   8.3755892  29.7978163  61.7482662
  67.9068899  61.6305399  29.5006227  68.0697823  62.0865154  30.3263259
  68.5031557  60.8819628  29.5187211  85.1192093  52.8423071  45.1210403
  84.5453453  53.2591486  45.7638025  85.9398937  53.3314419  45.1798677
  47.8857461  28.9804453   7.2793960  48.7849514  29.0865797   7.5898837
  47.9093544  29.2794937   6.3704156  49.3467569  57.4221325  42.0534229
  49.1964722  56.5373850  42.3863888  50.0590992  57.3225784  41.4218473
  44.6995883  70.5936817   5.6496476  45.2579074  71.0392622   6.2868070
  43.8849406  71.0962466   5.6522178  13.8633078  20.9804177  42.5905275
  14.7304648  21.2574697  42.8863382  13.2539481  21.4772201  43.1365204
  74.9227858  23.8785791  66.5485764  75.7928276  24.2289662  66.3575506
  74.8084021  23.1656814  65.9201431  56.7135286  49.1040277  45.7555580
  56.1765337  48.4423733  46.1915398  57.4064779  49.3030214  46.3852072
  42.4662010  18.4781736  20.8733463  43.3370964  18.8750404  20.8569812
  41.8654958  19.2211145  20.9318542  77.3341513  49.8267746  58.2414293
  77.4719524  48.8826704  58.1645536  76.5095425  49.9866247  57.7824068
  39.4021503  40.2838749  20.7218932  40.1457635  40.0535339  21.2788581
  39.0264265  41.0619873  21.1337089  75.6657362  67.5638723  55.6938457
  75.2090836  68.3909321  55.5399990  75.6502056  67.1203375  54.8457479
  61.2701893  67.4265528  66.5359545  61.9899559  67.9037523  66.1230993
  61.1619139  67.8473425  67.3888588  19.1415995  53.1247663  63.8247252
  18.2475966  53.4643364  63.7837267  19.5258158  53.5534859  64.5894575
  57.1857929  59.5821381  49.1674376  56.2738657  59.6121264  48.8780880
  57.6049519  58.9588213  48.5741282  69.1381828  20.8063120   4.5625305
  68.2189266  20.5401462   4.5438051  69.5854465  20.1615280   4.0144061
  43.4762530  73.6675219  36.7796993  44.2632156  73.4113602  36.2987708
  43.7614207  73.7267284  37.6915073  33.1586283  30.1427603  52.9007721
  32.3172683  29.8176241  52.5804138  33.8109034  29.6623468  52.3908997
  14.1917437  63.2414770  45.8735323  13.3567065  62.7914619  45.7453394
  14.7195357  62.6264811  46.3829041  37.4406065  16.5830942  65.9932319
  37.9414953  16.3170524  66.7643095  36.7745317  15.9028669  65.8938879
  64.8803186  44.7923803  56.8349886  64.5884514  44.0121269  56.3635588
  65.5608177  44.4734716  57.4278212   8.7817401  23.1189156  65.5081177
   8.3194846  23.2014251  66.3422251   9.6599883  22.8242445  65.7491255
  59.9938098  48.7678284   9.7613048  59.9575988  48.2682270  10.5769824
  60.9238330  48.9576572   9.6377992   2.1420341   1.8392744  50.0144053
   2.2159581   1.0282221  50.5173588   3.0467467   2.0830145  49.8186493
   7.7846818   5.9768667  55.1403093   7.5978904   5.5036344  55.9511089
   6.9276910   6.2714471  54.8320484  29.5020121  41.8128586  67.0403767
  28.7881392  42.3898602  67.3118258  29.1797370  40.9304380  67.2239780
  12.2631017  15.8705896  38.0428218  13.1626121  16.1135286  37.8235244
  12.1855251  14.9592727  37.7604675  62.3004402   2.9147192  61.7822123
  61.7819656   2.9950901  60.9816152  63.0990471   3.4103771  61.6011501
  84.0373611  45.3417921  69.2489719  84.1235065  44.7761106  70.0163174
  83.4706020  44.8521948  68.6528921  24.4887023  67.5731448   1.1563491
  24.1704230  66.9772462   0.4782342  25.1312308  67.0586900   1.6449451
  67.8084898  47.0311928  37.7651215  67.9349041  47.9720402  37.8878284
  68.6918926  46.6642857  37.7999139  11.1377257  80.4815102  60.8422613
  10.3379554  79.9632597  60.7527208  11.7934722  79.9988842  60.3389692
  11.1190623  40.0102997  46.2552023  11.6371173  39.9759674  47.0593643
  10.2123374  39.9281979  46.5507317  52.0761871  53.3825064  57.5201702
  52.7503300  53.7118959  56.9258070  52.5273275  53.2738352  58.3573627
  81.5379273  67.3234038   3.1517457  80.9400784  67.8388313   2.6103210
  81.8269049  66.6126303   2.5794410   3.1675071  35.0344372  58.8621426
   2.6512355  34.7152328  58.1220102   3.3051413  35.9630966  58.6753845
   9.2911439  11.9854059  61.7965984   9.6974235  11.6769113  62.6065397
   9.5546394  12.9032793  61.7309618  82.8662872  69.8628283  51.6688538
  83.3592033  70.4945374  52.1925020  81.9763374  70.2144575  51.6445589
  28.1325167  79.3593788  63.6070490  27.8462332  79.1801643  62.7114201
  27.4997729  78.8980913  64.1575861  50.5196810  24.6753097  36.5521336
  51.4656258  24.8211288  36.5395761  50.4231977  23.7244391  36.4995241
  10.9601897  76.6974592  56.8331146  11.8637770  76.7966652  56.5332413
  11.0101718  76.8030024  57.7831650  42.5579214  76.4717102  39.2980528
  41.7452192  76.9582224  39.1600204  43.2239389  76.9824696  38.8378596
  14.9751395  63.2527494   8.0885255  14.5241183  63.0078220   7.2805536
  15.1773566  62.4186039   8.5122532  65.9794235  31.8287873  42.9281950
  66.3911724  32.5716996  43.3695316  65.8013773  31.2022066  43.6295700
  70.2935839  37.3130345  61.7457151  71.0816240  37.6791620  61.3442516
  70.0967312  37.9058528  62.4710035  69.4660534  72.1046833  50.4823208
  68.8220943  71.5651641  50.0235462  69.2070354  72.0562837  51.4025354
  10.8527427  56.4678840   3.1643295  10.5968576  56.6983549   2.2712278
  10.9298568  55.5138652   3.1527471  11.9582801  70.5842976  27.1737575
  12.7151590  70.0935272  26.8535804  12.3158698  71.4332465  27.4338435
  36.6631057  72.7433258  69.2368376  35.7717063  72.5953990  69.5526935
  36.8340327  73.6660439  69.4255276  31.7585200  71.4954615  30.5165982
  30.8719558  71.3160038  30.8297038  32.0522994  72.2392988  31.0425568
  79.6323490  40.9441662  16.3336706  79.2543840  40.7465267  15.4767501
  79.1919661  41.7478371  16.6100931  20.0650328  40.9175253  64.1842651
  20.7661647  40.6055355  64.7563696  19.2596930  40.7173157  64.6613264
   3.5068625  45.6984901  42.2854376   2.7950495  45.9094954  42.8896236
   4.0755385  45.1097107  42.7815962  59.8792219  77.7371693  63.9456701
  59.2079401  77.1586370  64.3074894  60.6825399  77.2172976  63.9711714
  33.7479631   7.4692196   4.4135475  33.8384859   7.6121420   5.3556775
  34.1127817   6.5963882   4.2675590   2.4679488  79.2253685  56.6163635
   2.3288363  79.9640083  57.2090626   3.3386344  78.8979244  56.8419838
  83.9068699  31.3774490  52.0479774  83.1099033  31.6265154  51.5799522
  84.4512367  30.9528780  51.3849258  35.5724517   9.5925516   4.2180633
  36.2863437   9.1558355   4.6826791  34.8521797   8.9624685   4.2390918
  76.2752056  39.2893386  47.7141476  76.3702250  38.3401036  47.6357031
  75.3342915  39.4277167  47.8225803  72.3927784  67.7790117  59.7823000
  73.0981541  68.3920670  59.5753336  72.8243303  67.0689154  60.2574492
  12.5794619  38.3337259  55.2901220  13.0703753  37.7870393  55.9036112
  13.0533808  39.1652822  55.2781963  80.3870773   6.4274484  62.9840755
  79.5599985   6.1520123  63.3794260  80.8750534   5.6136674  62.8580809
  57.3223305  47.0681095  60.1120520  57.4835110  47.9295969  59.7272301
  57.6539421  46.4493036  59.4614029  74.0183449  70.8260584  32.3783350
  74.5917463  71.5457058  32.6420498  74.1343641  70.7624388  31.4303255
  66.6319227  53.8428307  27.4025416  67.3972559  54.3146849  27.0741296
  66.9778538  53.2752895  28.0913520  26.4043921  64.8283625  44.3657303
  26.8645304  65.5444002  44.8036671  26.0576648  64.2940140  45.0802183
  80.2352715  53.6699772  65.0286150  80.5090046  53.9989662  65.8848047
  79.3523359  54.0196943  64.9087620   0.9397429  70.3683376  32.7269650
   1.5941828  70.9570456  33.1029534   0.8255595  69.6844006  33.3868313
  21.5271014  32.8064442  49.3870783  21.4367980  33.1174302  50.2878380
  22.1376532  33.4218955  48.9812803  21.1487788  66.3412571  66.2063408
  21.4097136  66.0307693  67.0733738  20.1918429  66.3301086  66.2259197
  84.6510601  36.7004251  39.4403458  84.4097519  37.2543597  40.1827478
  83.8326263  36.5730262  38.9605808  80.0534821  72.4564171  37.4058890
  80.4338455  71.6651440  37.0245314  80.7556534  72.8255081  37.9415774
  46.8604331  39.3090675   2.9116392  47.4450832  38.8704939   2.2935199
  46.8490939  40.2219822   2.6240777  10.1268214  22.8450298  25.2567911
   9.8498172  23.3952951  25.9893966   9.7475833  21.9865990  25.4452372
  82.9313183  47.8320074  24.6624064  82.7535439  46.9242191  24.4163418
  83.6461449  47.7727652  25.2962399  55.1745407  14.6569771  15.7972144
  54.3427173  14.9810404  16.1425876  55.3129188  15.1600164  14.9946975
  75.3722000  62.8755283  30.9916306  74.6027756  63.1244373  31.5037465
  75.8755493  63.6852551  30.9066558  65.7717848  73.2172298  60.7439089
  66.3046360  73.2932091  61.5354490  65.1105118  73.9034605  60.8335543
  41.0772991   2.3977722  64.4529867  40.3922796   1.7575561  64.6456099
  40.6916285   3.2405251  64.6922731  71.6558067  34.4322628  31.3024234
  71.0390750  34.7235388  31.9740104  71.8810264  33.5371822  31.5560817
  64.3654434  45.4711956  13.7936878  64.2244045  44.9650425  14.5937824
  63.6101715  46.0571998  13.7447357  64.0326262  46.7522812  46.9945717
  63.7388849  45.9378004  46.5864468  64.4872570  46.4718008  47.7888489
  39.1636030   4.9540466  10.1950025  39.3716804   5.0762457   9.2687177
  39.5425121   5.7187265  10.6284999  69.0946913  53.6372471  38.1579423
  68.9944172  54.5124149  37.7834296  68.2063484  53.3783770  38.4030151
  71.9013119  21.1922789  53.4709454  71.3628197  21.9732428  53.3430719
  71.4613914  20.5119228  52.9612160  75.7684574  26.3269895   6.8877792
  75.5284653  26.8516773   6.1240148  75.4537175  26.8347544   7.6356744
   5.7777995  38.9536667  57.4239492   6.2487143  38.6877608  58.2137394
   6.4111918  39.4760752  56.9318867  70.6368303  33.5516977  28.8727140
  70.9757757  33.8741398  29.7078061  71.2394571  33.9037752  28.2176447
   2.5806922  70.8439255  38.5873413   2.9217261  69.9531412  38.5071754
   2.4417227  70.9635448  39.5268154   6.1189990  13.0661287  48.4265327
   6.1087899  13.8843717  47.9299498   6.3515811  12.3977079  47.7820492
  11.2729281  74.8174906  44.7708893  11.1540526  74.1601038  45.4564095
  10.7329100  74.5063066  44.0443993  68.9636707  77.2648191  58.6410284
  69.4008636  78.1163454  58.6417389  69.6783972  76.6286564  58.6145687
  66.9891882  44.7852039  36.1983275  67.2131824  44.3597460  37.0260024
  67.0282936  45.7217550  36.3921762  42.0742647  52.0613808  22.9391097
  42.2188894  52.9366249  23.2986354  42.6295558  51.4898437  23.4694290
  65.1794616  21.1955494   7.5393771  64.6808139  21.8424696   8.0384540
  66.0318748  21.1631864   7.9736280  83.5402489  26.5492392  34.7404575
  83.4314823  25.6221581  34.5285058  83.0216408  27.0084119  34.0798259
  76.2711994  28.2457060  15.9638118  75.5307762  28.8374943  15.8304500
  76.4158145  28.2524580  16.9099998  15.9146886  18.5281267  22.2218394
  15.5378204  19.3717947  22.4716783  16.4393668  18.7208643  21.4447975
  80.9066010   6.0626632  15.0000131  81.8175602   5.8091044  15.1486564
  80.7581139   5.8885157  14.0705740  29.1191535  69.9329857  26.1338806
  29.0563159  69.9659948  27.0884513  29.1528468  68.9987449  25.9282398
  59.0899324  38.7110305  60.7356358  59.3346453  39.5859051  61.0372019
  59.8947334  38.1982088  60.8100796  77.5070238  64.7397614  22.0557737
  76.5566826  64.8515749  22.0316911  77.6528168  63.8558769  21.7185378
   9.1822547  42.3353100  34.7617793   8.8218802  42.1183538  35.6216002
   9.7991580  43.0468369  34.9332380  67.2437660  32.0200723  18.0126857
  66.6923706  32.7937883  17.8962325  67.5718490  32.0924753  18.9089870
  80.3026287  29.7907680   4.1531085  80.7096759  28.9926380   4.4900560
  80.4517642  30.4430431   4.8375987   4.7902160  65.9425501  22.6636028
   4.3573527  65.0888471  22.6562404   5.7121425  65.7450680  22.4983978
  78.8049936  71.8832922  48.5520458  79.2125750  71.0172844  48.5401821
  78.0151033  71.7690277  49.0804863  41.8899719  44.9224991   4.2985582
  41.8213407  45.8756012   4.2427301  41.5629570  44.7096104   5.1726102
   4.2524737  48.1410599  60.0168753   4.3394202  48.8046312  60.7012367
   5.0494879  47.6160002  60.0897264  80.5654049  33.7894106  20.1270270
  80.0408077  33.0258799  19.8860860  81.4656544  33.5351467  19.9242163
   2.9901522  64.4185686  19.1504526   2.2538203  64.3532515  19.7585440
   3.7387961  64.0836096  19.6439838   8.4847217  50.6365840   0.9502696
   8.0649953  51.1371664   1.6498994   9.2079597  51.1919157   0.6591319
  78.3841597  76.6239456   6.4100980  78.2567536  77.5119547   6.7439269
  79.1773402  76.6799001   5.8772134  56.1623144  50.7538033  49.1532612
  56.9930744  50.7755375  49.6282339  56.3021660  51.3272810  48.3997345
  46.3090515  10.0565350  47.3312712  46.6594505   9.4927549  48.0209112
  47.0535946  10.5930221  47.0591116  66.1765758  14.8186630  11.4002990
  67.0411388  14.6338886  11.0333919  66.2673561  14.6296686  12.3342513
  36.6007190  70.7567982  33.4151935  36.1350780  70.8662609  32.5860881
  37.2986941  70.1323895  33.2172775  51.1288643  42.5841284  52.9936409
  51.5593863  41.7426157  52.8428745  51.0741758  42.9840851  52.1257257
  66.7260218  27.9333377  42.1210909  67.4760199  27.3847008  41.8914557
  66.9909954  28.8183331  41.8704796   2.9182261  41.5033579  47.8977489
   2.6430815  42.3206043  47.4822474   2.7213019  40.8270264  47.2496557
   6.2869376  63.6172724  30.4970026   5.4740161  63.1744194  30.2535295
   6.0701197  64.5491314  30.4675722  60.9382621   0.8496183  11.2119865
  60.7926551   0.3549951  10.4055309  60.2249900   0.5798382  11.7905139
  52.4739933  75.7997656  57.1033478  52.3505402  76.1577225  56.2242222
  53.0546522  76.4249659  57.5371552  65.8864546  67.2849560  43.8079119
  66.6522169  66.7180872  43.9001083  66.2423754  68.1214190  43.5081005
   8.0224818  54.5929384  52.0170450   7.7058715  55.4405117  52.3294687
   8.9621085  54.7212934  51.8872166  52.0329046  47.2858238  62.9722023
  52.6221418  47.8676605  63.4523010  52.4743462  47.1343184  62.1364975
  26.2598949  71.7695741  25.3557205  27.0278125  71.2681035  25.6296825
  26.5489535  72.6818041  25.3784274  37.3225633  34.3991703   8.2680988
  36.8264047  34.9356550   8.8863563  37.6273004  35.0182146   7.6046657
  60.2389137   7.8905958  14.4760513  59.5236007   7.6509613  15.0652313
  60.2694980   7.1802753  13.8351631  32.4506370  19.1001695  12.5820922
  33.2758752  19.5779795  12.6652431  31.8628971  19.7124714  12.1395206
  39.0586591  52.3786545  60.6296444  39.3737292  51.5405273  60.9680271
  39.1375351  52.9806232  61.3696718  12.0351428  20.0237656  47.8307867
  11.3822001  19.4423163  47.4411488  11.9270724  19.9069142  48.7746620
  66.4818573  43.5884857  59.0797615  66.5017033  43.6225080  60.0361538
  67.0906830  42.8857183  58.8524151  40.8105140   6.2673559  32.9664636
  41.6564899   6.5215387  33.3351898  40.3654533   5.8108987  33.6804652
  56.1004882  18.7876691  47.9048157  56.0226684  18.5368719  46.9843435
  55.2610831  19.1978635  48.1130838  56.2378597  51.2485409  58.0375671
  56.0624647  51.1740685  58.9756107  56.5584373  52.1433020  57.9241419
  64.7549057  52.6314068  42.6934242  65.5530357  52.1623182  42.4501514
  65.0612354  53.4900999  42.9850435   1.1130255  66.2088346  16.4975786
   1.4451617  66.6794777  15.7331085   1.8187922  65.6067610  16.7334390
  84.4786263  59.2029047  34.3525720  84.9911976  59.0253878  33.5639071
  84.8385239  60.0220203  34.6927977  20.5209750  48.9029408  55.4760313
  20.9438819  49.7469139  55.6344223  20.8986682  48.5967827  54.6515036
  69.0231180  71.9793463  54.6886396  68.5530186  71.9424820  53.8556480
  68.3493471  71.8255329  55.3509140  68.3544111  22.1328616  37.6814246
  67.6281786  21.5186739  37.7890754  68.5637236  22.4147201  38.5719156
   8.4928340  44.1840601  39.5847821   8.5548800  44.7162151  38.7915659
   7.5582713  43.9983130  39.6760917  43.6884880  53.3951426  30.4463220
  42.7884054  53.1095219  30.6028700  43.9410448  52.9566002  29.6338391
  82.6282875   6.4802545  25.9860133  83.0422298   6.8753284  26.7533397
  82.9814235   5.5911297  25.9545135  54.5572090  62.3012400  58.3342552
  53.8407707  62.7987099  57.9399586  55.3509235  62.7324820  58.0175972
  32.7822582  31.6966099   5.8400487  32.4492589  31.2879366   6.6390037
  32.0521251  31.6464180   5.2231073  75.2459431  61.5468311  27.6269865
  74.6177626  61.1257648  28.2137775  75.9532928  61.8379545  28.2024288
  81.3101196  38.4707665  44.6304560  80.9528255  38.1663084  43.7962627
  80.6036663  38.9861226  45.0197744  36.8892532  64.5603279   7.5756835
  36.1360316  64.1063027   7.9535055  36.6761546  64.6454910   6.6463994
  10.5110377  43.4831572  55.0244188   9.7861880  43.8964462  55.4934740
  10.4131335  42.5487709  55.2076435   4.9030417  20.7535124  35.7167649
   5.3962153  21.1401629  34.9932218   4.4703978  19.9915147  35.3315282
  73.7590885  78.6134434  46.1485958  74.2540169  79.4311666  46.1996126
  73.0330420  78.7343407  46.7605352  71.4131069  53.2060623  27.9082155
  70.5311298  53.0612421  28.2508111  71.7293310  52.3310661  27.6832318
  54.4648795  67.0431308   7.5501680  54.8537212  67.2995810   8.3863925
  53.5534244  67.3288635   7.6122045  84.8013687  36.5776110  47.1962452
  84.7360706  35.7987618  46.6436529  84.5952892  36.2643814  48.0769587
   9.6455973  61.0636997  29.3402362  10.4632968  60.6009436  29.5231605
   9.8063391  61.9598961  29.6355820  75.0302267  72.2253990  64.3695927
  74.4946718  71.4414072  64.4911337  74.4076920  72.9508018  64.4193697
  28.3791629  27.9811376  23.5436153  29.2328350  27.6618475  23.2511520
  28.1949178  28.7281555  22.9741859  34.1942996  34.6090627  67.5201702
  33.2655448  34.5708966  67.2917175  34.4417399  33.6966491  67.6701880
  18.5654073   2.9772272  35.9612632  17.8193145   2.3990526  35.8022261
  18.5338073   3.6115255  35.2450895  65.9339038  37.1702379   0.1385736
  66.4698211  36.8997091   0.8841228  65.4253475  36.3910621  -0.0860978
   6.4626330  32.0325232  40.2023125   7.3030108  32.4289203  40.4322577
   5.8959216  32.2218037  40.9501362  75.3311682  54.8082924  56.6919184
  76.0441256  54.3155670  56.2855387  74.5707560  54.2311621  56.6217470
  11.7013472  36.6876912  53.1706524  11.3025016  35.9118700  53.5646725
  12.2252768  37.0710826  53.8740301   8.8906306  73.1446600  65.5275536
   9.3589705  72.7178097  66.2449741   8.6759299  72.4328709  64.9246454
   4.6283155  17.9861536  68.9616251   4.0039210  17.7758398  68.2672691
   4.1158872  18.4772768  69.6038389  74.9399900  17.4903119  43.8745546
  74.6286774  18.2506442  44.3656874  75.8375597  17.7147889  43.6291790
  16.5095919  43.5732126  64.6678782  15.8665007  44.0206337  64.1178989
  16.0424918  42.8115606  65.0112915  56.5294027  60.8092165  42.7524710
  56.7489243  61.2980366  41.9593096  57.3524046  60.7596159  43.2387257
  12.3713607  66.4780855  66.0441065  12.8477114  67.0453405  65.4378462
  13.0090255  66.2674332  66.7261887  67.1715307  67.3635197  63.2482719
  66.5995216  66.8869734  62.6466560  66.8735218  67.1023226  64.1195917
  23.9090461  70.5977345  53.4800482  23.5093611  70.6215715  54.3494844
  23.9444941  69.6672821  53.2581615  80.8385754  48.4689093  26.8669868
  80.3340340  49.2211676  26.5575123  81.6045761  48.4420204  26.2936115
  67.0356083  70.4578304  29.2273617  67.3458576  71.3494396  29.3855023
  66.3259935  70.3357506  29.8580551  62.3364536   4.4918197  18.3571147
  63.1286136   4.6356911  17.8394126  62.6559345   4.1635174  19.1975784
   9.8091811  67.4315929  59.9716711   8.9735049  67.1822977  59.5770597
  10.4092711  67.5130129  59.2303944  32.9772395  67.7359772  64.3008804
  32.4607486  68.0754662  65.0317812  33.8112849  67.4807262  64.6951485
  77.6195383  39.0755749  53.5985565  76.7977953  39.2706823  54.0490007
  77.4529076  39.3077850  52.6850224  41.5873194  35.2857971  67.3535299
  41.1634159  35.2602124  66.4956903  40.8707523  35.1738501  67.9782152
  14.9771613  66.1256361  59.7396708  14.2986220  65.8521652  59.1223955
  14.5854872  65.9887457  60.6022739   4.1876906  57.0279455  56.6545677
   4.4496554  56.3130713  57.2347069   3.2310408  56.9956684  56.6515875
  78.3192587  70.2918720  56.6156054  77.9796839  71.1501646  56.3621187
  78.6799812  70.4263067  57.4919796  32.1464747  57.6095915  69.2652702
  31.5413970  56.9049978  69.4968939  31.6465491  58.1688261  68.6706591
  10.1294821  47.7237654  63.1731749   9.2480201  47.5538492  63.5054207
  10.3547877  46.9361448  62.6780748  28.2764011  67.6449279   2.7976608
  27.9221015  68.3796457   3.2985591  28.9876990  67.3055391   3.3408927
  61.2563316   5.2092785   9.6203517  62.0680515   5.5886501   9.9571323
  61.5239898   4.7264379   8.8383960  79.7063398  60.4305744  59.1972589
  79.4385910  59.7431898  59.8072147  79.1337538  60.3143358  58.4390593
   5.0048465  46.8030119  66.4051771   4.5619220  47.0686865  67.2110701
   4.8160857  47.5071239  65.7848310  61.0092918  22.0842451   7.6978158
  60.6101696  21.2545723   7.9596805  60.4748146  22.3858303   6.9632291
  72.5219094  18.8007249  65.7639980  71.9825636  19.5897951  65.7119179
  72.8028904  18.7625780  66.6782331  81.5611839  62.1991777  20.3965020
  81.2991714  62.9526949  20.9254551  81.0128021  62.2536421  19.6138513
  53.8374667  12.3242082  60.3570890  53.3965068  11.4876165  60.5050468
  54.4366603  12.4134912  61.0981846  75.8630228  22.9695916  48.4982920
  75.1190901  23.5144067  48.7551498  76.4558363  23.5708380  48.0473995
  69.0529776  69.3057680  65.3508186  69.5060205  70.0831413  65.0242043
  68.7389469  68.8626909  64.5625925  11.8397341  39.0268272  22.9683875
  12.0331869  39.6651357  23.6549472  12.4625025  39.2297119  22.2703647
  81.4864063  54.2172289  43.2211447  80.8765316  54.0209389  43.9323044
  80.9552479  54.6750975  42.5696373  81.4015865  57.5140810  23.5877252
  80.4838657  57.3785448  23.3518052  81.6236496  58.3639622  23.2074285
  75.0774948  34.3999952   2.4186849  75.3608505  34.5447391   3.3214568
  75.7545940  34.8164505   1.8854474   7.1486682  47.5982141  55.0944614
   7.4524802  48.5055685  55.0693226   6.6940802  47.5209951  55.9332800
  77.1020352   4.5053663  28.1168509  77.4112212   3.6446657  28.3994150
  76.8251597   4.3745412  27.2099566  16.9982438  24.6774091  26.9756126
  16.5772634  25.3146543  27.5526094  16.6183524  23.8364210  27.2299051
  67.4282598  53.1627750  54.5942116  67.5094414  53.6857271  55.3918123
  66.5294647  52.8341055  54.6137476  73.6006832  65.6312037  61.8021297
  72.7624607  65.3638554  62.1791506  73.9906549  64.8170805  61.4837646
   2.0321769  78.9611197  53.5300446   1.1202067  78.9829826  53.8199854
   2.4809760  79.5817614  54.1041708  25.5547160  75.2655506  56.3186502
  25.8133143  76.1172247  55.9664965  24.8845977  74.9492931  55.7127190
  83.8415337   0.3419999  21.8145275  84.1525364   0.4705187  20.9184289
  84.1172886   1.1320071  22.2793746  73.2307529  39.0758586  63.3356285
  73.9019346  38.7765908  62.7222872  73.5602856  39.9134469  63.6613417
  84.7732258  32.5643444  32.9986787  85.7014370  32.7975297  32.9815578
  84.7512245  31.6484070  32.7215385  40.4750919   9.1266859  25.7652545
  40.5646801  10.0152516  26.1097169  41.2157965   9.0257502  25.1674247
  79.2425489  16.1705661  24.6805048  79.7893858  16.8743789  25.0295711
  79.6533871  15.3671920  24.9999285  50.5937195   1.3315013  60.7673645
  50.7021666   1.7042553  59.8924208  50.2279329   2.0462087  61.2885427
  13.1661094  27.8838024  30.5429816  14.0897859  27.8002797  30.7797766
  13.1530822  27.7855072  29.5909309  55.3938341   5.5228966  54.2706108
  55.2580452   4.7720945  53.6926031  55.2004671   6.2842798  53.7236738
  71.2073803  21.3190579  66.0268784  71.7844152  21.7921805  66.6263962
  70.3272104  21.6171312  66.2564039  64.6700001   1.9678776  59.7550917
  65.0138521   2.8336051  59.9753523  64.8935604   1.4224006  60.5092192
  33.8463558  77.4140326  57.7401018  33.6205257  76.5947423  58.1805515
  33.9039243  77.1799828  56.8137407  26.3557113  73.1574200  20.0477791
  26.7963709  73.2930855  20.8866143  25.5466665  72.6984749  20.2737093
  21.3909210  79.4422098  31.3856530  22.1967329  79.8827003  31.6555882
  20.7061256  80.0998140  31.5074897  77.7032471  16.5123463  61.7764139
  76.9636536  16.4894795  61.1691999  77.3178101  16.7703700  62.6137257
  84.7288895  15.8882964  26.7748666  84.2258739  16.0907948  27.5636673
  85.3010178  15.1661444  27.0344591  19.8237240   8.4997255  46.6847849
  19.6836233   9.3946785  46.3754940  20.2572036   8.0588728  45.9540510
  16.2492527  73.7963961  17.1261859  15.9187616  74.3504302  16.4190412
  16.8771375  73.2130579  16.6999102  40.8218731  79.1260883  48.5515642
  39.9603666  79.3001221  48.1724262  41.2891496  78.6406838  47.8716612
   5.3241938  22.8376532  19.0042770   4.9049777  23.6441255  18.7041163
   4.9298114  22.6666927  19.8595357  70.7408142  29.3242979  32.0615530
  70.8818722  28.3806515  32.1381497  70.1625919  29.4193792  31.3046813
  34.5026601  25.5069886  28.0422497  35.2064241  25.7147036  27.4275923
  33.8223232  26.1537085  27.8548241  46.9424772  22.4161792  37.3100543
  47.3892212  22.1114016  36.5202665  47.6494169  22.6074648  37.9263973
  47.4614668  12.5314689  27.8538227  48.3961201  12.4683762  28.0504823
  47.0513678  11.8866193  28.4302092  71.8160915  30.2554750  26.6532326
  72.3741961  31.0244226  26.5371990  72.2234869  29.7698641  27.3704767
  32.9600501  12.5643039  58.4877348  33.8243318  12.9023612  58.2532930
  32.4947047  13.3218408  58.8424587  81.7955399  13.0334389  15.5239844
  81.7417049  13.0473590  14.5684004  81.5617847  13.9227176  15.7900238
  72.6492214  13.0798554  22.2128010  72.6972866  13.0870593  23.1687665
  73.0897331  12.2694755  21.9569373  78.3146429  29.0480089  14.2068422
  78.1791067  28.4337187  13.4853780  77.5245476  28.9679289  14.7412264
  49.8282433  47.2268391  59.6183872  50.1853800  46.4621925  59.1667271
  48.9665747  46.9435787  59.9242020  50.2378368  43.6848879  50.1727772
  49.8175955  42.8722000  49.8914051  50.7025766  43.9956760  49.3958187
  25.7201637  72.5884096  40.6952572  26.1384309  72.6937530  41.5497684
  26.3258470  72.0385114  40.1982832  80.4731711  18.1829148  68.6919826
  79.7257098  17.7045780  68.3331961  80.0816258  18.8620192  69.2412931
  29.2206586  80.3450207  49.4703245  29.5382322  79.4473320  49.5679569
  29.8657716  80.8790484  49.9338722  66.4437294   7.1393985  52.9010344
  65.9041834   7.6887834  52.3324442  67.2843027   7.5949991  52.9468203
  36.8370461  21.2023997  46.7139769  36.4116549  21.8871188  47.2301483
  36.1135149  20.6891632  46.3543653  82.3510838  47.5569201  15.4994631
  82.2252083  47.9648685  14.6427464  81.9650078  46.6857195  15.4089451
  45.7626343  24.8334670  53.1093407  45.9394836  25.4514480  53.8186026
  46.0633802  23.9895654  53.4464073  65.6057501  13.6713088  31.5377712
  64.9786615  14.3944204  31.5479898  65.3133011  13.1108046  30.8190632
  19.0019859  67.0172785  13.7942266  18.2027019  66.4983533  13.8842010
  19.1128648  67.4362729  14.6476793  72.5416803   8.4083885  64.7282028
  73.0542946   8.8094556  65.4300594  72.2888231   7.5528502  65.0751162
  55.7797480  11.9264770  58.5237694  56.4175987  11.7129111  59.2047739
  55.0000143  12.2041810  59.0045261   6.2430304  23.9585662  43.6081553
   6.2723273  23.2891560  44.2917204   5.8554667  23.5141397  42.8541565
   0.6926684  42.9709152  10.0681733   1.4298825  43.5053549  10.3633355
   1.0939126  42.2784985   9.5430087  72.1654927  16.9679646   3.3975362
  72.7618491  17.6930265   3.2107972  72.6341664  16.4308123   4.0363216
  61.2605524  22.7444673  45.8523273  61.6226196  23.5051274  45.3978682
  61.7862129  22.6686382  46.6486692  37.2006512  10.2896643  43.1887531
  37.4447322  11.1916184  43.3964443  38.0250096   9.8044187  43.2234144
  16.5517920  44.0648031  53.8383198  16.7421073  43.6938667  54.6999550
  17.3425215  43.8974047  53.3255243  58.1532669  21.8779826  30.1324725
  58.4661579  21.2151980  30.7481408  58.5403109  21.6274023  29.2936397
  58.0267811  12.4637055  45.2175951  58.5794401  12.7400601  44.4865465
  58.5880184  12.5501645  45.9881592  65.2440643   1.6435209  62.4006844
  65.8377457   1.0271461  62.8294659  65.0824928   2.3184490  63.0599260
  65.8078064  69.3948911  40.9413528  66.6134895  69.5608387  41.4308167
  65.1196540  69.8018227  41.4677286  84.2548466  37.6273966  59.3636131
  83.5570145  37.8324866  59.9858665  85.0338268  37.5102401  59.9073887
   4.6843876  38.7987004  37.2937632   4.9047865  37.8888045  37.4931192
   3.7328614  38.8410149  37.3888397  62.4021673  16.9281650  12.1493816
  62.9719305  16.1954868  11.9153142  62.3991156  16.9329107  13.1065643
  10.8048968  55.5970732  13.1700515  10.6565862  55.2117876  12.3064613
  11.4517074  55.0231401  13.5805034  44.9035597  11.2119830  58.2856226
  45.6777763  11.7747176  58.2733250  45.2483034  10.3338099  58.4474707
  29.8779739  56.3715420  34.4479537  30.1862157  56.5984497  35.3252983
  28.9608682  56.1271177  34.5720720  76.8176985  30.5079198  32.0809364
  77.4505377  29.8408937  31.8148160  76.7988443  31.1254334  31.3498044
  82.8667675  45.4645518  22.1419525  83.6318003  45.9331493  21.8082237
  82.1232020  45.8745674  21.7001056  73.6521387  13.5435295  33.9706874
  72.9316139  12.9250479  33.8500452  73.4956264  13.9283383  34.8330426
  62.3023189  79.2582742  37.7904010  62.2830356  80.0939437  37.3240137
  61.9774498  78.6212892  37.1540523  83.6157227  33.6731291  59.8129845
  83.4458637  34.2678523  59.0824461  84.2988682  33.0857062  59.4897604
  23.5182338  49.5971952  19.5075797  23.5953384  48.9836446  18.7769412
  22.5752072  49.6991525  19.6362209   3.2482451  67.9297829  51.2694454
   2.9506224  67.1709156  51.7712164   2.5084227  68.5367346  51.2916517
  75.2153492   5.5299211  49.0160704  75.5733061   6.2606573  49.5201778
  74.3625021   5.3584588  49.4154263  13.1863612  39.5820618  34.9562478
  12.8663272  39.4937754  34.0584612  12.4473971  39.3122196  35.5015564
  10.7094204   1.1310389  37.3586774  11.5503967   1.3996901  36.9887900
  10.6017065   1.6821483  38.1338596  55.4149532  34.1180968  65.1047039
  56.0016537  34.2535663  64.3606186  54.5790100  34.4882083  64.8210716
  56.8400634  71.8886344  24.3248224  56.4601005  71.6707329  23.4737158
  56.4559425  72.7363263  24.5486498  57.3056949  69.9447272  19.6765792
  58.1931175  70.2681408  19.5212889  57.3361076  69.0253339  19.4119632
  17.3905581  19.6720707  43.6105204  16.9762820  18.9502811  44.0834093
  18.2591361  19.3412483  43.3816862  66.5439796  17.2748399  45.9888077
  66.9004297  18.0458963  46.4299965  66.3635635  17.5713372  45.0967455
  22.6414698  53.4739065  40.9608889  22.1563357  54.2990303  40.9680367
  22.0111006  52.8282022  40.6416130  61.7386389  38.8563800  54.6655989
  62.1599960  39.5276999  55.2022791  60.8018780  38.9813662  54.8175383
  52.7715921  55.4323196  43.5093307  52.6190424  54.8250103  42.7853537
  53.6811113  55.2774096  43.7642956  21.1735582  19.4666100  36.8362951
  20.3595567  18.9630234  36.8421412  20.9356356  20.3017712  36.4336443
  64.9379696  78.3024221  32.7953172  64.9222721  77.6542501  32.0911455
  65.7814373  78.7438808  32.6957393   2.7642827  37.0163117   8.1236171
   2.5381332  36.5591479   7.3136234   1.9590478  37.4677242   8.3767032
  23.6185993  78.4850016  45.8320141  23.4326852  77.6578248  45.3876686
  23.3472932  79.1583065  45.2080870  41.9521826  22.9422927  46.4962053
  41.4863604  22.4984241  47.2048855  41.8529814  22.3601437  45.7428837
  62.4205494  52.0114183  62.6665545  62.8851795  52.1170330  61.8363762
  63.0498314  52.2927666  63.3306932  69.7344841  60.6120203  61.3560677
  68.8259376  60.3656254  61.1826563  70.1540722  59.7984348  61.6358089
  58.1781006  30.4797769  59.8398209  57.6977444  30.1249647  59.0917587
  59.0998793  30.3750134  59.6040773   3.0796533  50.1378105   1.8462467
   2.8079133  49.9168197   2.7370643   2.3193603  50.5779425   1.4661550
  81.3713455  26.3476825  26.6147828  81.8291187  26.7121696  25.8572698
  81.9020081  26.6131830  27.3658705  55.5357265  21.7815828   8.0910110
  55.7696819  21.6404796   9.0083927  55.6565809  22.7213049   7.9548234
  55.3195667  29.7836161  24.6615314  55.8958244  30.0599718  25.3741241
  54.4730568  30.1781058  24.8713660  21.8626274  72.0161883  50.4378891
  21.7097152  71.1882881  49.9824429  22.3707212  71.7734430  51.2119341
  43.8270330  28.8037872  65.4247236  43.7362957  28.8832974  66.3742876
  42.9377222  28.9160180  65.0889111  61.2138224   2.2627302  31.2165618
  61.0912180   3.1169963  30.8025217  61.0858297   1.6324043  30.5076623
  48.1099558  10.2334929   7.3329848  47.3136568  10.5849648   6.9347268
  48.8228846  10.6884515   6.8846852  55.5768347  39.4849682   3.1456384
  54.9852085  40.0512648   3.6411342  55.4810429  38.6239243   3.5526526
  85.3083515  12.8104639  21.7897582  85.6037045  12.0299017  21.3210201
  84.4127369  12.9500198  21.4821291  65.1581478  22.0754790  19.4874573
  65.3761292  22.7844954  18.8824701  64.4051313  22.4032092  19.9791765
  52.7724934  24.2720485  42.2864580  52.8888559  24.7323322  41.4552975
  53.5000944  23.6510134  42.3202372   3.4136313   0.2609629  35.0484848
   3.3665675  -0.6603106  35.3039694   4.3493193   0.4627072  35.0509787
  77.0249605  16.8258512   8.3857489  76.1695290  16.5722275   8.7323642
  77.6134539  16.7741883   9.1388994   8.3867086  71.1025105  64.0326214
   7.7634538  71.4035879  63.3714581   9.1739977  70.8798168  63.5358191
  49.6764911  75.8091612  63.7711859  49.2087425  76.5464793  64.1633606
  50.5498518  76.1525623  63.5826445  72.2756910   5.8307499  33.2388377
  72.3064280   6.2625086  34.0925765  73.1750727   5.5420512  33.0839229
  76.4601469  21.4782977  32.0443344  75.5677652  21.4043355  32.3825908
  76.5488768  22.4001050  31.8022013  67.8169727  24.5690632  60.7393551
  67.3254347  25.1256728  60.1353598  68.4996033  24.1725755  60.1980162
  72.2877026  19.6602952  48.5728645  73.0322170  19.9106812  48.0258417
  71.9891882  20.4823256  48.9619493  20.0981635   7.1782422  37.2436166
  19.5998687   6.5515900  37.7682590  21.0137194   6.9463974  37.3992777
  39.0290941  75.3813351  19.7995031  38.9092363  74.4328986  19.7511792
  38.3142818  75.7401831  19.2736638  59.4985641  77.4033583  30.6618142
  60.0924266  77.8327320  30.0460243  59.9184860  76.5650586  30.8545637
   7.8815831  60.2683840  48.1702042   8.5036243  60.2225480  48.8962841
   7.1585096  59.7012697  48.4381199  19.3665713   6.0975951  32.2074747
  19.5202273   7.0374483  32.3039007  20.1410788   5.6875414  32.5924611
  57.9292345  21.4691281  24.0059662  57.5931406  20.9585023  23.2693982
  57.2532845  21.3917875  24.6792722  66.8751478  17.8527057  37.8622723
  66.3082981  18.0410588  37.1143174  67.4541807  18.6126161  37.9213238
  31.5130854  24.8995733  37.9884052  31.4501572  24.8852539  37.0333838
  32.3370218  25.3527069  38.1673789   9.2862242  37.6108980  29.3803287
   8.7039584  36.8684101  29.2193866   9.8607081  37.6350284  28.6150718
  19.3491702  39.6588737  10.3454732  18.4053617  39.7980389  10.4235172
  19.6995740  40.5186015  10.1124191   0.4860514   9.4134480  36.5640712
   1.0883540   8.8698196  37.0719385   0.1592177  10.0587320  37.1909809
  72.4481440  25.7767844  33.3399630  72.6210499  24.8675370  33.5841012
  72.2326994  26.2097573  34.1660070  67.1898651  41.5037203  14.8605156
  67.0094776  41.9712400  15.6760645  68.0324745  41.0753632  15.0113344
  50.6746734  48.6444006  66.8456507  50.9919704  47.8043018  66.5143108
  51.2535490  48.8459716  67.5808430  20.7202058  40.8528596   4.2682075
  19.9813991  40.3309118   3.9552163  20.9654050  40.4465437   5.0994777
  83.2922554   8.2589740  57.1866941  82.6696110   7.5333071  57.1425581
  82.7441788   9.0422112  57.2354746  32.3442607  51.8161682   9.3603801
  32.6174502  50.9303502   9.5989608  31.4453940  51.7135529   9.0477228
   4.2129153  13.6497509  28.0623412   5.1265925  13.9056051  28.1886888
   4.2053431  13.1972587  27.2188830  54.9569191  74.4010899  31.3500667
  55.1025737  74.9892114  32.0911002  55.4428447  74.8002241  30.6283998
   0.3939837  14.0293694  34.1659212   0.2892703  13.6596394  35.0426006
  -0.0748616  14.8631895  34.2000651  76.8616152  10.3616059  28.7811613
  76.2794352   9.9676543  29.4308567  76.4698315  10.1326168  27.9383659
  62.8657783  79.9906847  27.9387617  63.6733497  80.2176540  28.3997941
  62.6248897  80.7897543  27.4700475  40.3901625  19.0017188  69.6046162
  39.8367143  19.4487107  70.2450228  39.9803543  19.1907895  68.7604952
  56.9074583  15.7980859  37.4081683  56.1802292  16.3737309  37.6448154
  57.2867155  15.5343020  38.2465076  39.0996003  26.4111710  11.9689453
  38.9253902  26.5221834  11.0343015  38.6592674  27.1526241  12.3843777
  54.3559135  65.5224190  13.2728553  54.2281021  66.4695082  13.2188475
  55.0592960  65.3397475  12.6498628  61.6975021  33.6324096  59.8608160
  62.1029663  33.3604908  59.0374756  62.4332428  33.7581134  60.4600763
  76.2987566  59.8012829  34.5566440  76.4698315  60.0420284  35.4671407
  76.6615677  60.5246353  34.0454149  28.0251503  24.2448092  25.7991910
  28.4753656  24.8802018  26.3557959  28.0287457  24.6436787  24.9290633
  20.5138320   6.0000926  54.8554325  20.8608168   6.3912857  55.6571817
  20.5899447   6.6923571  54.1987705  29.6914309  16.5186059  42.9270029
  29.0072459  17.0649230  42.5401402  29.9706668  17.0001006  43.7057352
  45.4477453  22.5962090  60.1467752  44.9065351  23.3435154  59.8921013
  45.9048605  22.8891301  60.9351110  53.5632385  77.6816786  24.0560579
  52.9581035  76.9956625  23.7742519  53.6999572  77.5123675  24.9881935
  73.6651230  21.5162587  32.6253223  73.3696413  21.2993932  31.7410731
  73.0674982  21.0394073  33.2012463  73.2888746  24.5062661  55.7536411
  73.2391882  24.7812271  54.8381329  73.9945936  25.0358248  56.1248016
  66.0178423  18.3497608  62.7524710  65.6003761  17.7887106  62.0988798
  66.8653679  18.5748255  62.3687029  46.4616251  15.1387072  51.7689228
  47.0403099  15.6938589  52.2915745  47.0469666  14.5026207  51.3578224
  68.1717300  23.3159828  40.2939272  68.1491947  24.1389799  40.7821894
  68.9197302  22.8421664  40.6575489  81.2730217  16.3257742  51.1572456
  80.4151154  15.9524083  51.3593054  81.6104889  15.7800055  50.4469728
  76.1488533  14.9493313  44.8119688  76.9460821  14.8155844  45.3245735
  75.7138109  15.6898773  45.2345371  80.3014088  39.3541312  54.9264050
  79.8438072  39.7090816  55.6885338  79.6116209  39.2097640  54.2786598
  33.2097829  79.9885624   8.7208998  33.8380731  79.5225793   8.1692261
  32.5455631  79.3330142   8.9337254  52.8954887   0.7311632  64.2136860
  53.0432796   1.6138104  63.8740921  52.2993660   0.3283288  63.5823393
   1.7354602  31.0640478  52.5707579   1.1972350  31.7859387  52.2460747
   1.3517207  30.2819633  52.1741199   1.4938658  14.0250432  56.4207077
   1.0405558  14.7113705  55.9311152   2.3401088  14.4111121  56.6466570
   4.3558615   9.1800821  69.1405725   4.7916812   9.3645847  68.3085537
   4.8455256   9.6902037  69.7857332  49.4964981  17.4959445  55.8697319
  50.3861618  17.1446359  55.9059858  49.3746710  17.9272854  56.7155075
  64.9607754  18.5968149  36.0828114  65.2073669  18.5161602  35.1614428
  64.0278530  18.3833420  36.1006379  61.3695192  12.3343813  55.6012821
  61.2999630  11.4431977  55.9436035  62.2452402  12.6223004  55.8590603
  17.0319384  18.1884849  38.5685921  16.8557662  19.1270280  38.5027552
  16.5179652  17.9006636  39.3230629  40.4286480   1.4243655  53.9479971
  40.1305389   1.8098702  53.1241322  39.7024703   1.5660128  54.5553112
   4.4406276  68.1945566  10.1007079   4.1244035  68.6664967   9.3303108
   3.6504226  68.0050902  10.6065845   4.9134368  42.7518845  36.7632866
   4.8267382  43.7047482  36.7355180   5.8125800  42.6016045  37.0551729
  49.5704889   7.7661139  36.5820432  50.0646114   8.0461532  35.8115530
  49.9000120   8.3178324  37.2914457  75.4355431  20.7415509  49.8308516
  75.5984449  21.5423441  49.3324280  74.8575449  21.0159564  50.5427837
  43.5919428   1.2422537  24.6276522  44.4003677   1.7374235  24.4953918
  43.6147213   0.9885231  25.5503297  16.4921670  32.9746763   0.9121656
  15.7812028  33.1710903   1.5222310  16.9643216  32.2489027   1.3202810
  62.4697078  69.8716805  48.0863762  63.1996597  69.3161378  47.8129292
  62.5220550  69.8827336  49.0420818   7.2407918  37.1885667  12.0124053
   7.2154575  36.9808591  12.9464530   6.3657622  37.5243000  11.8178844
   6.6362216  59.7532493  69.1331646   7.0323541  60.0793022  69.9412471
   5.8034398  60.2207953  69.0690483  28.6933353  57.3068362  68.2609554
  28.8182475  58.2533830  68.1925569  29.0562942  56.9579059  67.4468628
   5.0637931  38.7898803   7.5624812   4.8738211  38.5764790   6.6489154
   4.2763537  38.5264850   8.0387056   4.0354460  33.8663268  61.1842918
   3.3404177  34.1216111  61.7909145   3.6665076  34.0274072  60.3158665
  68.6416483  25.8988333  41.4363766  68.8944912  25.3072262  42.1451092
  69.2908144  26.6015577  41.4678955  74.6242332  23.8658547   6.5047514
  74.8652649  24.7857952   6.3959199  75.4608059  23.4039640   6.5597904
  29.0998806  72.4530838  32.0334363  28.3686794  72.1237657  32.5560498
  29.6259130  72.9612319  32.6509380  45.7327843  27.2655606  51.2670994
  46.1828899  27.7444935  51.9629860  45.5105400  26.4223027  51.6617537
  39.7805047  46.4812374  61.8291903  40.1719666  46.8572044  62.6176310
  39.0745115  47.0858574  61.6006279  30.9532751  77.6755763  27.0331669
  31.2459005  78.3107364  26.3795829  31.4402307  77.9047985  27.8247237
  83.1609154  27.1002722  42.3867846  83.8237953  27.7896118  42.4272346
  82.4883461  27.4487829  41.8016195  53.2284784  25.2612758  39.7024965
  53.7267923  24.6244287  39.1903043  52.3601913  25.2658606  39.2996407
  67.4957657   7.5919271  34.6000814  67.4734068   8.5058993  34.8836064
  66.6923523   7.4790066  34.0921330  17.4952178  45.7152162   6.2635135
  17.0974593  45.3647814   7.0605182  16.8352656  45.5744843   5.5846214
  19.9819816  72.9098556  63.6695147  19.3990577  73.6681322  63.6314344
  19.4666208  72.2333966  64.1088772  69.3214130  30.4398918  46.9564629
  69.5932722  30.2845860  47.8610086  68.4409428  30.0680947  46.9037962
  34.0950256  62.0135216   0.5345153  34.2318969  62.6855520  -0.1332236
  34.1928630  62.4782256   1.3656043  51.9567347  18.4914649  48.0538225
  52.6036644  19.1638541  48.2673740  51.1122417  18.9098585  48.2211971
  67.1165371  -0.0442999  36.4036226  67.3492384   0.4107118  35.5942750
  67.8696442   0.0900561  36.9789553  71.1938524   3.8356087  25.4896760
  70.2469969   3.8416126  25.6298780  71.5666342   3.8854590  26.3698912
  73.8611650   5.0435692  40.1324511  74.2001629   4.2842129  39.6584320
  74.1478729   4.9095631  41.0358191   3.7204951  37.9722619  39.9357986
   4.1943377  37.1664882  39.7298050   2.8917044  37.8900218  39.4640136
  79.0300035  53.2269716  44.2214727  78.3090973  53.8262701  44.4147825
  78.7365341  52.7397346  43.4515953   6.1795825  34.6023846  63.1431818
   5.6949443  34.3925381  62.3448610   6.3253516  33.7553525  63.5645151
  25.6442660  28.7979221  62.2385788  25.5972117  28.3696675  63.0933428
  26.0027331  29.6656942  62.4248695  44.5337920  32.3042868  16.8790912
  44.5725684  32.9913084  17.5444698  45.4261832  32.2516362  16.5368938
   9.0030913  54.0555779   2.2526645   9.5697789  53.5966329   1.6326141
   8.9938932  54.9614326   1.9435119   1.2076968  23.1870055  37.7364492
   0.7629603  23.7000537  38.4111524   1.0799807  22.2770047  38.0044389
  82.6082516  13.6101055  19.8055923  83.3143234  14.2482758  19.7034979
  81.8084621  14.1092551  19.6399879  76.9430863  27.7077965   1.2091112
  76.4757048  27.0853583   1.7662095  76.4920079  28.5403232   1.3493203
   8.6688237  42.3373048  25.0173854   7.7387004  42.3294344  24.7914695
   8.8481383  41.4487573  25.3248882  67.4808645  17.4434793  49.2007875
  67.5979185  16.5585446  48.8552189  68.2297468  17.9339468  48.8619041
  43.6932611  23.8998938  33.5669589  42.8345346  23.7531471  33.1703591
  43.8183022  23.1519294  34.1510367  34.7525610  61.8651948  26.2956166
  34.9130643  61.5065418  27.1684504  34.8878158  62.8075335  26.3952947
   1.4921002  76.7392830   5.2582454   1.9983583  76.4219312   4.5104360
   0.6130319  76.3869337   5.1192331  66.8713856  28.7514853  46.1555624
  66.2581015  29.1239452  45.5220079  66.3180971  28.2667041  46.7680120
  10.1789289  46.7685024   8.1085109   9.3607955  46.4361314   8.4778547
  10.7447581  46.9090859   8.8676595  40.6550789  41.4383888  14.5629418
  40.7686472  41.7631006  13.6696923  39.7329926  41.1859608  14.6106029
  81.1532779  76.2939615  55.2530289  81.7374415  76.5694995  55.9594727
  80.3461761  76.0341538  55.6972313  27.5776820  14.1554884  15.0321769
  28.4869723  14.2488555  14.7481059  27.0914607  14.7729949  14.4858169
  82.9398632  40.2245998  54.4797659  82.0629978  39.8780656  54.6448326
  83.3393288  40.2885866  55.3472710  57.8887033  25.9232068  52.7934170
  57.9141092  24.9729562  52.9057169  58.6166906  26.2466526  53.3241224
  84.0845776   9.9707538   8.7052649  83.7502766   9.9524367   9.6020037
  83.4720135   9.4268316   8.2101357  39.1488552   2.5896552  57.6991177
  40.0814581   2.3864718  57.6270199  38.8834381   2.8160471  56.8077564
  28.7428146  53.2613484   7.5546645  29.1956573  52.4281995   7.4241781
  28.2166438  53.1270734   8.3429193  48.4367847  35.2232385  15.2760351
  47.8015137  34.5766044  14.9685788  48.9474487  34.7602940  15.9402180
   3.3988017  29.6373892  34.1348839   4.1627425  29.7608447  33.5715151
   3.0146331  28.8117576  33.8399625  57.3062598  51.4006237   0.9333801
  57.2744619  51.0102848   1.8067931  56.6570293  52.1034388   0.9613513
  52.6414802  66.6809803  58.2326008  53.4698417  66.8050605  57.7693058
  52.3514583  65.8060247  57.9745758  19.0776747  21.8131900  28.3267117
  19.9206179  21.4014125  28.1366730  19.2434138  22.3523235  29.1000795
  80.0212288  42.2320223  46.4233208  79.7882605  41.3147640  46.5668154
  79.1870499  42.6998758  46.4619732  47.1835995  16.1039090  44.2718554
  46.5877724  15.5538988  43.7632227  46.6720057  16.8869638  44.4751406
  43.3542884  52.3228965  13.7967587  42.5000728  51.9039927  13.6915588
  43.4131921  52.9344068  13.0627167  16.5042323  29.1855621  35.4947114
  16.8327063  29.9543095  35.0284863  15.6067008  29.0795875  35.1793647
  39.1869788  69.7887353   2.2008895  39.7138648  69.8578314   1.4047384
  38.8190608  70.6641535   2.3213386  77.3329067  43.9205265  46.1942339
  77.6587868  44.4549561  45.4700708  77.7494669  44.2915440  46.9720888
  34.9629415  65.5611024  24.4172978  35.8431543  65.4798780  24.0500641
  34.4265998  64.9724088  23.8862514  55.0341667  77.5122176  12.3305190
  55.1203788  76.8470521  11.6476166  54.1459812  77.3955114  12.6677859
  83.6143112  43.1902933  39.0536785  83.0283833  43.8815403  39.3620539
  84.0407372  43.5641050  38.2825375  46.5628923  72.8860042  31.9701290
  46.9446767  73.7637089  31.9805479  46.2102283  72.7887003  31.0856009
  75.2239466  22.3057008  20.2758265  75.8313990  22.0531082  19.5805359
  74.4164658  22.5361538  19.8163688   9.6185988  65.7514906   9.0056199
  10.2186984  65.0359249   8.7956786   8.7500113  65.3498554   8.9837909
  69.4361080  68.4039567  23.9970613  69.7129692  69.0712545  23.3691335
  68.4999908  68.5628066  24.1182303  13.1176299  17.5840008  51.6048622
  14.0108412  17.3655701  51.8707418  12.9886836  18.4811091  51.9127655
  21.5207950   7.0175403   1.0705470  20.7350961   6.7699808   0.5830764
  21.1881010   7.4349016   1.8651294  76.8077278  26.2299895  56.3675404
  77.1111631  26.3952422  55.4748774  76.9663572  27.0525885  56.8305731
  70.3474045  14.3909729  47.6900148  70.8637857  14.3146050  48.4923553
  69.7644138  15.1330745  47.8501177  70.1624584  42.8274107  69.3248892
  69.4999313  42.4878979  69.9265671  70.8597088  42.1718264  69.3416786
   4.7736758  28.0319810  36.1365914   4.6215266  28.9182329  35.8085060
   3.9023894  27.7084589  36.3655281  79.6959591  24.1666770  67.4988174
  79.7698832  23.4490848  68.1279659  78.9145994  23.9570808  66.9871712
  78.9315748  50.3940582  17.0402873  78.9811707  49.6218348  16.4768660
  78.9503813  50.0426722  17.9304588  42.6965046  17.0107901  46.9976234
  42.2188759  16.7353165  47.7800655  43.1100655  16.2100351  46.6751480
  58.8071728  39.4788170  51.4593124  59.3104076  39.2734909  50.6713820
  57.9785204  39.8271012  51.1302805  62.2614908  25.2049279  34.4848919
  61.3867140  25.4857588  34.7534680  62.4900866  24.5101333  35.1023364
  78.3259058  22.4029112  52.6378965  77.6251364  22.0009136  52.1245241
  78.0815315  22.2365665  53.5483074  55.9716129   3.6141628  50.4723167
  56.4466381   4.2723167  49.9649572  55.8647919   2.8782797  49.8695755
   1.0256022  34.8155737  24.1936898   0.9543627  33.9000320  24.4637680
   0.6402796  34.8375726  23.3177471  39.7607951  61.7531733   1.3044547
  40.0384002  61.1625723   2.0047092  40.5097537  62.3338584   1.1699056
  76.1590528  34.6391249  43.5108614  77.0534992  34.4705963  43.8071632
  76.0207653  35.5702877  43.6841917  63.6576366  27.1636891  25.1618886
  63.4487724  27.7729559  24.4537926  63.7288523  27.7163482  25.9401751
  78.6459446  25.9040427  36.9798517  78.0017757  25.2395272  37.2241735
  79.3206978  25.8435822  37.6560807  41.9872623  64.6814326   5.2322196
  41.1701255  64.2047671   5.0862455  42.0544200  64.7557525   6.1841630
   5.8063334  35.4064918  42.7768421   5.2360934  35.4013133  42.0080519
   5.2302092  35.6520844  43.5007238  81.2789917  16.6810954  53.8303709
  81.0534954  16.6402268  52.9010057  82.1306610  16.2482059  53.8894510
  34.8600631  64.8465971   0.6735896  34.7598319  65.0868229  -0.2475358
  35.6948810  64.3797068   0.7098817  74.1950096  57.8879271  67.0585537
  74.7514213  58.0938659  67.8097057  73.6184848  58.6471401  66.9722557
  12.4267787  28.1440592  40.1348639  11.6944712  28.2616258  39.5297742
  12.9055423  27.3912334  39.7880602  22.2893624  72.5525097  12.3028850
  23.1955581  72.3703007  12.0542144  21.7845540  72.3867206  11.5066909
  83.0367374  58.6384296  52.9939127  83.7232971  58.6806917  52.3282671
  82.5442886  59.4515800  52.8820372  72.5884438  31.5623593  64.9795818
  71.9818115  31.6860390  65.7096004  72.0242929  31.4798522  64.2107153
  16.6751021   8.0830556  37.5285316  16.3476676   8.6251056  38.2463050
  16.6999835   7.1969396  37.8896570  17.0739989  59.2066077   7.4312114
  16.2234120  59.0783076   7.8510570  16.9086938  59.8575417   6.7491626
   5.8019942  34.9320054  57.1641350   5.0939673  35.4977322  57.4721575
   6.4424533  34.9410295  57.8754425  46.7870678  66.4791284  52.6741552
  45.9649433  66.6573224  52.2174311  47.2330059  67.3255906  52.7036667
  17.0552272  46.1370993  65.6057262  16.9168395  45.7925940  66.4879942
  16.9063300  45.3872490  65.0297165  26.1819667  14.6241045  26.6013122
  26.9347686  14.7428501  27.1804667  25.4260653  14.8576045  27.1401262
  15.8808249   7.1751660  24.3470550  16.2654704   8.0370784  24.1877246
  15.5310649   6.9081223  23.4970021  53.0018282   9.6636117  61.3144541
  53.5537338   9.4128275  62.0552206  52.9214716   8.8641763  60.7941866
  20.1839465  29.8385739  14.0544701  19.6688384  30.2321625  13.3502078
  21.0715026  30.1689482  13.9154685  25.4401320   5.8689672  41.2256098
  26.0177916   6.6218841  41.1004877  25.2504843   5.8658868  42.1638346
  36.6858829  75.5035744  50.1325130  35.9588350  76.1062394  50.2888107
  36.9998563  75.2750365  51.0073948  20.7673663   2.0711856   8.0681324
  21.4020652   1.4668822   8.4531194  20.3142661   2.4534567   8.8196623
  84.3203354  30.9586573  17.6448381  83.4897709  31.3642859  17.3961329
  84.2334461  30.0462604  17.3687685  82.5624084  10.6738663  16.6149223
  82.9112625  10.7788181  17.5000870  82.2311878  11.5416217  16.3835716
  11.9377154  11.5190423  29.4814992  12.5586718  11.8445146  28.8297939
  12.3817366  11.6462684  30.3198862   1.9483203  26.7355776  48.4066105
   2.7278441  26.5755320  47.8746796   1.9617575  26.0418773  49.0660286
  74.3169641  16.4928031  52.4114609  75.1927900  16.8344629  52.5915527
  74.4693613  15.7106209  51.8811846  61.6544008  21.6583109  29.5242786
  62.5505829  21.9080687  29.2990923  61.4860630  22.0965266  30.3584599
  69.3055439  63.9191246  23.7584400  69.7082710  63.7245226  24.6047091
  69.8954058  64.5546389  23.3529615  24.3570155  16.2900317  59.2286682
  25.2240962  15.9228563  59.0566254  24.0052909  16.4902556  58.3612394
  76.8832445  14.1495192  59.4517946  76.6711044  13.3619726  58.9507961
  76.1335182  14.7289300  59.3160582  74.6073914   9.9483663  43.0314016
  74.6496630  10.8859277  42.8431892  74.4016886   9.9005318  43.9650154
  41.4763564  58.3759356  29.2180181  40.7030982  58.5613823  29.7508430
  41.3959140  58.9633465  28.4665489  55.4767847   6.1955374  30.4972744
  54.9320698   5.9574312  29.7470593  56.3584805   6.2827480  30.1350093
  61.6446304   3.0765814  54.3793344  60.9143209   2.5370494  54.6822977
  62.2302341   3.1328368  55.1344061   2.9025668  13.1881094  39.2104435
   3.1389445  12.6520729  38.4534621   2.6891536  12.5544357  39.8953843
  69.7071266   9.0995389  14.5710516  69.5783997   8.1884110  14.8346925
  68.8824558   9.5318794  14.7929311  56.6429355  72.6285034  53.1258011
  56.6705920  73.0207664  52.2531057  56.9977977  71.7479044  53.0039359
  79.0647745  35.9167504  44.9393082  79.4704342  35.0529337  44.8652172
  79.3276978  36.3741350  44.1406202  36.2394754  34.6419042   2.5137948
  36.1990968  33.6886400   2.5905370  37.1499435  34.8251861   2.2820854
   7.7107543  35.4852819  28.5682297   8.1613177  34.9452114  27.9189610
   7.0185679  34.9200392  28.9111733  19.3902129   8.6049819  14.5992589
  20.1709098   8.9830184  14.1945004  19.6263236   8.4974420  15.5206287
   6.1969680  51.3724613   5.5738723   6.8919963  51.8089104   5.0812471
   5.3979129  51.5666485   5.0839406  73.6976051  41.8831348  34.0667963
  74.3272114  41.9521093  33.3491111  72.9340649  41.4586258  33.6756110
  39.7978568  26.1462402  42.7066231  39.9746561  25.9746552  43.6315727
  40.2484989  25.4411745  42.2418261  56.4087261  79.6725335  11.5733039
  55.7240547  80.3363492  11.6558433  55.9559883  78.8419927  11.7198122
  53.3673954  44.0474129  18.1206131  54.1447496  44.5998716  18.0385232
  52.9036188  44.1617441  17.2911131  80.4595457  66.5750984   9.3403720
  80.4375016  66.8623761   8.4275627  80.7209097  65.6553535   9.2957591
  71.8407011   9.2930740  53.3410931  71.3325500   8.7874550  53.9754152
  71.1896467   9.8211378  52.8790283  68.1924009  24.0398693  65.4339123
  67.3128748  24.2629480  65.1291180  68.0510569  23.3729911  66.1058712
  84.4884491  33.8563442  68.7593269  84.8277283  33.6054111  67.9001713
  85.1004887  33.4645200  69.3823099  61.3211780  73.8276080   1.7303275
  61.6468482  73.0838970   1.2233066  60.9563403  74.4226603   1.0753154
  73.8821125   5.1998192  36.9976878  74.0977430   6.0701716  37.3326826
  72.9786539   5.0525403  37.2775054  74.8959494  -0.1663531  31.8264461
  75.8090591   0.1114621  31.7537832  74.4613028   0.2410336  31.0772133
  76.7312050  65.1615524  30.8735514  76.5236759  65.7192612  31.6232991
  76.3654280  65.6262159  30.1208735  79.3863058  21.9220686  24.8471284
  78.7443161  22.2081208  25.4969382  80.0235748  22.6353288  24.8099303
  -0.0130349  22.8193188  14.8979485  -0.1012975  23.2989335  14.0742922
   0.9237212  22.6358438  14.9690747  14.4068068  15.1790309  33.5817003
  14.2926806  15.7318401  32.8086472  15.0287837  15.6582725  34.1291499
  20.5455703  21.9489908  58.0015755  19.8767203  21.5711856  58.5726643
  21.3479155  21.9234776  58.5229397   0.7539958  11.5350461  61.7652845
   0.4713839  12.4479008  61.8206263   0.7660025  11.2325644  62.6733589
  61.1994457  11.1127698  41.3483810  61.2518930  11.4655066  40.4600954
  62.1081161  11.0813046  41.6476345  12.9948926  16.1403298  45.2606773
  12.9691494  16.6056359  46.0967779  13.4571099  16.7348742  44.6698284
  76.9068241  43.0733299  64.8743010  76.9464111  42.1800566  64.5326376
  76.3423872  43.0102634  65.6447935   6.4256209  48.1193304  30.3479362
   5.5022639  48.0348253  30.5856371   6.8976516  47.7028561  31.0690188
  66.2203182  70.4386930  66.4453220  65.6159557  69.9533067  67.0069075
  67.0558323  70.4100780  66.9115067  83.2694721  58.7013102  47.9123306
  84.1383553  58.7529230  47.5140619  82.6709938  58.6117601  47.1706915
  79.2854309  53.2466888  37.1144199  79.1396761  52.4764156  36.5651774
  79.9222517  53.7704706  36.6282678  74.6605110  30.3337121  45.3218937
  74.0414333  30.3511405  44.5920515  74.1557074  30.6485915  46.0717344
  74.5404291  35.4821658  59.5107985  74.1165161  35.5277300  60.3677988
  74.6955156  34.5482183  59.3696547  18.5549047  68.7059766  68.7006920
  19.0705325  68.0944019  69.2263671  18.7481143  69.5654994  69.0750265
  22.6822299  22.4990654  38.8884544  22.3901862  21.7837286  39.4534636
  23.5653895  22.7023602  39.1965699  10.9758872  19.4703662  12.7751172
  11.6718119  18.8133276  12.7601302  10.3573340  19.1794229  12.1050596
  60.5620718  40.6833792  49.2298079  60.8688641  41.1650705  49.9979734
  61.3391352  40.2269173  48.9072371  36.7183512  45.3434849  17.6931596
  37.1891421  44.5155048  17.5980926  36.3140601  45.2910614  18.5592031
  16.3423400  42.4126005   9.6737480  16.1775785  42.9048304  10.4779815
  17.2763639  42.5359298   9.5045518  71.0390091  22.4753070  46.1633062
  70.0942898  22.4279523  46.0166788  71.1262178  22.7735686  47.0686626
  64.0746546  36.3015079  19.0527022  63.2906818  35.8251071  19.3259335
  64.6955776  36.1721015  19.7696006  65.0562477  18.2170141  30.7785964
  64.2460060  18.1718397  30.2709556  65.0601435  17.4115038  31.2956738
   9.2450342  14.1235393   3.0069017   8.5481272  14.7662777   3.1389856
   9.1201124  13.8158840   2.1091413   1.8000239   8.4427130  69.0573120
   2.5841826   8.9673901  69.2186975   1.1091632   8.8871533  69.5486498
  42.6743984   6.8193185  48.5023737  42.5370026   7.2013450  47.6355362
  43.6243820   6.8265855  48.6194801  80.3242779  23.4175253  47.1552706
  80.1225948  24.2487073  47.5850296  80.7433987  23.6689353  46.3322496
  47.9633392  67.6390598  19.3074954  48.8640321  67.3274062  19.2188692
  47.5695671  67.0529077  19.9537158  32.1440142  34.5495057  28.6758947
  32.2765940  35.4974627  28.6703825  32.1185416  34.3058395  27.7505803
  70.3740978  -0.2224652  21.3303518  70.1829624   0.5044118  21.9230986
  70.8397436   0.1816501  20.5981660  57.1807146  49.1386557  53.1760502
  56.7272758  49.6445465  53.8503647  56.6530275  48.3463860  53.0756092
  44.0485339  48.6814509  25.0887012  43.1248241  48.8685749  24.9214362
  44.4960075  49.5094965  24.9145316  47.6898623  16.6518962  25.0743699
  47.8988934  15.9919357  25.7354212  47.5808144  16.1535001  24.2644668
   8.6429518   8.4232789  23.3086538   8.8322848   8.4583390  22.3710203
   7.8207892   8.9038700  23.4051228  82.1119690  50.8164120  21.4542174
  81.4561939  51.2919903  20.9443045  82.9164505  50.8937311  20.9413218
  76.7026234  12.3231876  49.9902487  76.8012619  11.3767719  49.8863268
  76.9563437  12.4922431  50.8975935  51.6799156   5.0094980  22.7862739
  51.9875518   4.4784778  23.5208606  52.2010223   4.7116607  22.0406341
  12.5056761  31.2744641  36.0855174  11.8223208  31.9434619  36.1267900
  12.7115649  31.0856032  37.0010352  12.8511256   3.7449679  65.8865499
  12.0177954   4.0398157  66.2537766  13.4545344   3.7474033  66.6295958
  30.9683948  31.8381182   9.7629499  30.6269508  31.9504819  10.6500911
  31.9195895  31.8448971   9.8697614   2.4673480  49.5896530  40.3413534
   2.8381842  50.3184223  39.8437428   2.0430773  49.0406895  39.6819162
  32.4379939  12.2724557  30.9265184  32.4280089  12.7478862  30.0957990
  33.3432215  12.3399293  31.2302351  72.7573633  42.7801943  22.9606295
  73.5396767  43.1066227  23.4052229  72.8827047  43.0258799  22.0440269
  73.5126209  35.2607846  44.9413252  74.0030718  35.9835458  44.5497847
  73.2841825  34.6978736  44.2016125  41.6679621  16.1555851   1.4116301
  41.2742853  16.5064049   2.2104883  42.2808266  15.4880214   1.7198274
  55.8429670  50.5480957  61.5231752  54.9230909  50.3037024  61.4214993
  56.0350323  50.3794813  62.4456215  68.3313179  31.1628509  36.1581755
  67.8913450  30.4587364  35.6818581  68.9198256  31.5564775  35.5140114
  73.1682205  43.1484938  63.6485100  72.4094105  42.9157162  63.1134844
  73.9040756  43.1415653  63.0363846   6.1394423  42.9149008   3.0761784
   7.0007628  43.1677151   3.4085226   6.2509745  42.0095921   2.7859816
   2.4762171  27.8483891  29.0090251   3.2483119  27.7277684  28.4562540
   2.4016970  27.0291543  29.4984436  19.7428912  63.3755732  62.2749281
  19.8456401  63.8129759  61.4297342  20.5580348  63.5609484  62.7412033
  69.6898460  53.3193874  47.3735571  70.0983810  53.4244299  46.5143156
  69.5345688  52.3780870  47.4514723  71.1547661  13.7901831  53.9889526
  70.4024696  14.3667626  54.1224957  71.8096924  14.3451571  53.5655069
  81.6879368  10.9660745  51.5839195  82.3849487  10.8755803  52.2337008
  82.0073795  10.4838479  50.8212662  80.6920147  33.9041090  46.3803196
  81.5197086  33.4576225  46.2020016  80.9491444  34.7328949  46.7843390
  47.0423269  15.2602220  31.0506678  46.4677429  14.5562959  31.3516140
  47.5077343  15.5426204  31.8379927   1.8182772  20.1051545  27.9747176
   1.2325972  20.4588151  28.6441469   2.0769519  20.8669615  27.4560976
  47.6028360  69.8902688  39.4705915  47.6586784  70.8319745  39.6327758
  48.3789171  69.5272861  39.8974109  39.1180290  69.5791779  66.8504095
  39.8814548  69.0147064  66.9720173  38.3995546  69.1033957  67.2671318
  64.2748893   0.6295868  67.6808847  64.0001358  -0.2360586  67.9832155
  64.4673790   1.1137720  68.4838434   9.7191924  18.3730495  30.5894876
  10.0058669  19.2744863  30.4429960  10.1992434  18.0926859  31.3687038
  71.8456697  14.6525836  50.1521444  72.2782803  15.5038559  50.0856876
  72.4773550  14.0979922  50.6099939  84.3741131  58.8453960  50.7197714
  83.8731194  58.6996746  49.9172688  85.1199532  59.3777847  50.4431677
  83.8260555  29.9948263  32.7509856  82.8779030  29.9796772  32.6205778
  83.9688969  29.4609046  33.5324955   8.4327342  69.8415214  57.0857216
   7.5188806  69.9435145  57.3516095   8.5507037  68.8963014  56.9915105
  62.1398830  15.0420666  40.9242439  62.1328545  15.0499797  41.8813848
  62.1919775  15.9654391  40.6774664  29.7890295  78.9652417  67.9071712
  29.6650137  78.7251132  66.9889212  29.4987787  79.8759633  67.9578829
  68.5756961  15.8021492   1.0133218  67.6632205  16.0182327   1.2055110
  68.8142482  16.3877052   0.2946758  45.1633549   7.5549895  62.1840572
  44.7486687   8.2496154  62.6956844  44.4358492   7.0057577  61.8919754
  15.2074641  14.7443914  43.6692095  14.3987101  14.7475517  43.1572056
  15.1011866  14.0153909  44.2803526  79.5849752  56.3008261   8.8489401
  80.4781342  56.1459637   8.5415113  79.3138838  55.4648256   9.2282051
  83.2288933  20.4233384  32.5371051  83.0567551  19.5351040  32.8495812
  84.1526413  20.5731988  32.7382779   4.0768450  11.2499893  37.3695874
   3.6452407  11.5730238  36.5786338   4.9894255  11.1236191  37.1098638
  69.2411232  14.1066742  59.1814375  68.6130476  13.5679066  58.7003136
  68.7020588  14.6347833  59.7702837  11.5102090  65.6581662  16.3855028
  10.6646408  65.2773414  16.1484003  12.1311296  64.9347077  16.3000667
  41.8281746   4.0764108  44.6383619  41.8530178   4.9560511  44.2617369
  41.6065025   3.5066816  43.9018154  12.8107036  77.6506669  32.9683805
  13.7559475  77.5405894  33.0714846  12.6232399  78.4993113  33.3694911
  60.8575869  19.0538049  56.3916206  60.9690332  18.4320772  57.1108294
  61.3307858  19.8358941  56.6756105  71.6760015  13.0289805  41.6274405
  71.5129995  12.1005893  41.7940331  72.5908756  13.1600022  41.8765831
  69.7992659   1.9945396  29.4464540  70.3163338   2.7538478  29.7153902
  69.4899368   1.6123667  30.2677274  37.2274698  10.4642530  57.8173698
  36.6986335  10.4848715  58.6149550  36.5889372  10.5057617  57.1054793
  70.6898499  37.5345874  25.8965421  70.1562929  38.3278513  25.9442997
  71.5889311  37.8547335  25.8231091  84.7934246  30.5301547   6.4962977
  85.3036308  31.3195777   6.6771954  84.7129250  30.0970340   7.3460972
   0.7219046  32.3895073  25.7680726   0.8650035  32.7208018  26.6546392
   0.7727927  31.4377975  25.8569050  46.3305084  24.0872759   2.6380920
  46.6569368  23.6295217   3.4127712  46.2678091  25.0029987   2.9096603
  49.5646108  78.0919778  53.2259560  49.6980394  78.9767090  53.5660696
  49.7805847  78.1578676  52.2957706  85.0073814  34.9323702   8.2365394
  85.3902435  35.1183295   9.0939033  84.3084145  34.3039584   8.4175628
  16.3003463  26.1054134  52.0939445  15.9712905  25.2357650  52.3212528
  17.1477336  26.1637568  52.5352526   9.3805808  24.4069862  54.8414421
   9.8026484  23.9603448  55.5753422   9.0226954  25.2086926  55.2227783
  79.3366289  22.2341967  42.8608131  80.1274490  22.7157974  42.6181221
  79.6578550  21.4787889  43.3531570  70.3545666  16.9342256  43.0412245
  69.7776270  16.5106940  42.4056149  71.0224628  16.2762439  43.2341099
  66.7486000  43.0755997  38.9683056  66.9289064  42.1362877  38.9306998
  67.5713396  43.4657860  39.2633986  82.2982597  45.3221273  36.2549067
  81.7559052  45.0280905  35.5230403  83.1616592  44.9484348  36.0784769
   4.6336287  27.6167345  21.2388539   5.2741832  27.0165944  20.8570695
   4.2222136  28.0392647  20.4849052  11.0926551  41.3999176  10.1410460
  11.5882415  40.5819750  10.1809084  10.1771659  41.1235046  10.0996935
  23.3846205  17.2121811  35.2009296  22.7237338  17.8461313  34.9224329
  23.3248728  16.5057325  34.5578194  79.5239258  41.7714787  40.2358580
  79.6629763  41.5052557  41.1447144  80.2862930  42.3104572  40.0248480
  81.3554824  78.2470680  24.7258091  81.1709846  78.5662212  23.8424468
  82.0577015  77.6074220  24.6075749  85.2874947  25.6907296  21.4155054
  84.5435524  25.1055002  21.2730789  85.8220673  25.5947495  20.6273103
  16.4248389  67.9030561  54.5490217  16.2741107  68.6871290  54.0210629
  17.2516841  67.5490808  54.2215061  78.8518524  46.2770748  24.4616008
  79.6575499  45.7614040  24.4275093  79.1176701  47.1550512  24.1882396
  14.4715232  35.4395151  54.5456123  15.0230521  35.7702470  53.8366270
  13.6902064  35.1051331  54.1051960  79.5058298  76.4239407  41.1969423
  79.1882277  76.2903500  42.0899773  78.9217806  75.8950901  40.6533957
  76.8858337  24.2003107  24.7128153  76.3040447  23.6230063  24.2183733
  77.5838089  24.4219542  24.0964246  16.8675761  60.0220243  13.9828204
  16.9396405  59.0799860  14.1364478  17.6394420  60.2391819  13.4600448
  74.7415686  70.0601959  55.5070591  74.7428274  70.6659222  56.2482262
  75.1446056  70.5543566  54.7931957  21.4434355  23.2075500  48.8243532
  21.6414851  22.9361367  47.9280567  20.4951686  23.1029153  48.9022875
  54.7745848  43.7968922  53.0806684  54.8983860  42.8607845  53.2375193
  54.4444370  44.1374493  53.9120913  27.5428218  16.5729010  65.1458168
  26.9960040  16.8613863  64.4150639  27.2466010  15.6813610  65.3292418
  62.7590227  14.0261745  58.4612894  63.2103252  14.4501173  59.1912413
  62.8261662  14.6534431  57.7413893  78.8113785  56.5256023  58.3900928
  78.2552958  57.3000574  58.4750986  78.8050604  56.3278294  57.4535704
  59.5483208  56.0498333  54.9628067  59.4684982  55.3025436  55.5556154
  58.7152672  56.5134525  55.0483370  42.7176242  68.3611254  11.2784957
  43.1638484  67.5944857  10.9188079  41.8030219  68.2495097  11.0191249
  64.9227039  20.0712532  11.2405776  64.6094791  19.5357937  11.9695567
  64.1945259  20.0796312  10.6193542   9.6953731  14.0101995  25.8503652
   9.1763549  13.9558210  25.0479341   9.7735744  13.1034650  26.1469364
  61.1055843  54.0125507   4.6168994  60.6335250  53.1976646   4.4455861
  60.6064598  54.4362396   5.3151798  10.9970874  52.4381351  37.1723771
  11.2762660  53.2132101  37.6597667  11.7148989  51.8145561  37.2824717
  70.8115578  55.3774071  49.2949247  70.7540941  54.5960712  48.7449789
  70.0701809  55.3024673  49.8957396  82.4656044  54.7238223  12.9598522
  82.8485094  55.4129652  12.4169921  82.9832159  54.7377185  13.7649059
  66.3843536  68.4423923  49.8981762  66.5971756  68.5134172  48.9676428
  67.0845652  67.9015255  50.2634144  70.9521437  64.8460579  43.9467573
  70.9612942  65.7963133  44.0615034  71.3721180  64.7031736  43.0985641
  15.1785582  26.6357875  55.0742102  16.0772055  26.4077640  54.8361540
  15.0158137  26.1535192  55.8848715  83.8963985  53.8612986  41.8920708
  84.3057728  53.1822205  42.4282503  83.0681229  54.0484142  42.3338652
   1.3779658  45.9346151  18.9968824   1.3771838  44.9779224  19.0280640
   2.3048037  46.1727953  18.9752948   7.1796817  23.8227224  60.2180815
   6.7521876  24.5498419  60.6706047   8.0553836  23.7829947  60.6025410
  66.3940954  19.1344762  57.2734642  65.7514954  19.2318356  56.5707445
  67.1138096  18.6460137  56.8738937  58.2395996  73.1271104  29.1935563
  57.6362671  73.4032808  29.8834538  57.9072250  73.5494922  28.4014988
   2.9090899   4.7042063   7.7543992   3.2740897   5.5871761   7.6963478
   2.9381102   4.4939271   8.6877650  67.1554531  78.1782761  16.5368807
  67.4825824  78.8353489  15.9224916  67.4249900  78.4996773  17.3972774
   6.4514655  22.5516701  63.5326767   7.0694655  23.2738185  63.6458969
   5.6315345  22.8777194  63.9036560  31.3568891  54.6535955  15.8661091
  30.7883466  53.9050446  16.0468447  32.2251047  54.3694458  16.1519241
  78.1513175  20.5165082  49.3568659  77.1990069  20.4210251  49.3419576
  78.3683213  20.8868402  48.5012985  80.5696262  57.3600421  15.8261359
  80.9718670  58.0548272  16.3473940  80.9507526  57.4635778  14.9542093
  50.1502575  78.3436995  18.3070838  49.6502699  78.7301747  17.5881410
  50.7430471  77.7246425  17.8809333  24.5269221  18.1819928  31.3692451
  25.1972407  18.0974758  32.0473099  24.3054408  17.2800255  31.1376643
   2.5531119  57.8965902  24.3469667   2.1647090  57.4201059  23.6132526
   3.4949130  57.7530336  24.2540956  50.9355367  62.6604293  16.5365469
  50.5781282  62.8327380  15.6654561  51.1205734  63.5282777  16.8954802
  82.0702874  48.3781479  18.0476856  82.2042834  49.3253754  18.0798911
  82.2964560  48.1346462  17.1500301   7.4570769  56.5037203  29.7986054
   7.8295916  56.5791082  30.6771135   7.7606982  57.2880507  29.3415833
  32.1871783  31.9566631  47.5806499  33.0132701  32.3811847  47.3491789
  32.1732261  31.9655889  48.5377050  45.5005993   0.8663698  62.2955782
  45.5910362   0.9172674  61.3440198  44.5854486   1.0925575  62.4616326
  75.5126572  59.9309015  31.2860417  75.7853889  60.7183409  31.7569828
  74.6040106  59.7941160  31.5541553  50.1520170  60.3885935  30.4035950
  50.9151519  60.0595007  30.8785224  50.0509084  61.2903808  30.7082081
  84.4107151  39.4081974  13.2486773  84.7452450  40.2091646  12.8452253
  84.1475201  39.6754742  14.1293144  22.2959068  17.9716593  68.0091346
  22.2695901  18.4023911  68.8635398  21.3763978  17.8312331  67.7832780
  67.7394056  16.5534866  52.0506144  67.7628851  16.7430389  51.1126661
  66.9203568  16.0747194  52.1777868  11.9098014  21.9090128  13.5438156
  11.4005107  21.3836432  12.9266965  12.7824706  21.5159702  13.5297239
  70.9631586  23.1758332  51.9244766  70.0251579  23.2378817  52.1048546
  71.0153246  22.7351451  51.0763597  17.5147456   4.9438155  34.1111541
  16.9167632   5.5778795  34.5068979  17.9314727   5.4224825  33.3945990
  49.9155248  65.9365867  68.5420036  50.4864563  66.0316298  67.7796125
  49.0357507  65.8552597  68.1737423  79.0973099  49.7295725  66.7079929
  78.7235650  48.8968736  66.9963700  78.7588461  49.8495251  65.8207018
  61.8193293  28.9367604  34.7402692  62.5613832  28.4692240  34.3568707
  62.1674299  29.3190169  35.5458355  61.1730957  30.3005910  51.4817858
  61.4109945  31.1430454  51.8689632  62.0095253  29.8570156  51.3408756
  64.6078825  33.4568763  20.2572155  64.8179340  33.3287477  19.3321788
  65.1039362  34.2355537  20.5098438   3.1299712  74.5740944  65.9913147
   2.9907586  74.4625860  65.0508798   3.7579324  73.8899165  66.2232620
  42.0295681  76.6666053  50.8203459  41.5651907  77.4526099  51.1080647
  41.9257082  76.6618744  49.8688126   4.4683284  35.4460430   1.1850963
   5.2117652  34.9694157   1.5543731   4.6929187  36.3689780   1.3033624
  40.7793474  16.4842033  32.4812055  41.7156553  16.2890589  32.5196862
  40.4309797  16.1505842  33.3079886  10.7283311  49.9832056  17.6806163
  10.2617412  49.2541770  18.0893230  10.9430652  50.5677680  18.4075355
  49.6792043  75.1117818  27.6535463  50.0292743  74.7678892  28.4753871
  48.7700809  75.3337268  27.8547096  66.9126701  61.1414719  13.0672216
  66.9781065  60.2411461  12.7488506  66.0149050  61.2164831  13.3906794
  40.2790954  50.0465101  61.4932657  41.1611488  50.0091064  61.1234022
  40.3979518  50.4425949  62.3565269  28.7014728  65.1276759   8.0600643
  28.5868220  65.8538632   7.4470901  29.0437656  65.5368642   8.8548183
   6.3464469  48.8361931  13.7859046   5.9735602  48.7819099  14.6658146
   5.6033915  49.0562582  13.2240462  23.3405989  32.0620751  45.2766609
  22.6879615  32.6510239  45.6553936  23.1991786  31.2280488  45.7245779
   6.8014353   5.4703331  23.0746484   6.6205138   6.2266988  23.6326885
   5.9863108   4.9685490  23.0796599  57.9520464  18.4338224  37.3485637
  58.8465357  18.0931473  37.3564887  57.5010633  17.9073155  36.6885352
   9.7368544  41.8141365  29.7517920  10.1977366  41.0340214  30.0604057
   9.9926585  41.8956709  28.8330150   8.3868426  30.7151532  37.9612803
   9.1169566  31.2116337  38.3309793   7.6070613  31.1081815  38.3533216
  60.7793964  77.8048913  47.4410057  60.0994552  77.9787068  46.7900896
  61.1892856  76.9911159  47.1477556  76.2296629  42.1147299  22.0379925
  77.1363878  42.2840500  22.2937489  75.7959652  41.8553066  22.8509116
  82.4553967  19.8576295  21.8385291  83.2460880  20.0571966  21.3373137
  82.7769184  19.6176171  22.7075815  42.6023891  40.6886142  54.9012685
  42.9729869  39.8636552  54.5876814  41.6551902  40.5584406  54.8554302
  70.8390284  25.0363278  56.5238953  71.7229891  24.8538113  56.2052441
  70.8307838  25.9807491  56.6795540  71.9856895  75.2068041   5.8162028
  72.5340618  74.6860776   6.4030308  71.7280067  75.9656260   6.3396710
  40.6432165  57.6307974  33.1040692  41.4946521  58.0135355  33.3157206
  40.8408798  56.7261587  32.8615975  16.4688319  22.1062684  43.0148888
  16.8651026  21.2506700  43.1796598  17.1067446  22.5642800  42.4676037
  81.6024494  54.6112347   0.1125052  82.4279308  54.1288280   0.1584030
  81.4099121  54.8434448   1.0209319   4.4031447  47.4937010  40.6746006
   3.8917941  48.2911253  40.8119678   4.2541331  46.9745159  41.4648342
  53.8167143  10.5098951  21.6129565  54.2194510  11.1540258  22.1953034
  53.9361715  10.8727610  20.7352948  68.0454969  41.5801764  23.3224297
  67.9354334  42.4773264  23.0074143  68.1955194  41.6733646  24.2631936
  57.6339843  78.9993554  68.4152751  57.2719695  79.8827106  68.4849601
  57.2473647  78.6445242  67.6147441  46.5316035  71.3038880  67.4931908
  46.4675071  71.1559468  68.4367145  47.4721076  71.3504416  67.3213953
  11.8914283  72.1562366   1.6732198  11.9883360  71.4824567   2.3461702
  10.9541048  72.1682517   1.4795424  81.4405537  48.2604456  12.8153884
  81.7854023  48.6423016  12.0082366  80.5851173  47.9094267  12.5678813
   1.6352957  22.3951054  19.1075039   2.3653620  22.2096419  19.6981251
   1.8008441  21.8448973  18.3419323   5.6171435  20.3497338   1.8474406
   6.2356204  20.8392143   2.3897788   6.0274523  20.3205609   0.9831332
  14.2166918  24.8020315  32.5812888  13.6645621  25.5838275  32.5678754
  13.6044043  24.0744901  32.4716043  21.3641185  35.6082940  50.8286667
  21.7969054  35.3158116  51.6307783  20.5200118  35.9504247  51.1230469
  22.7449756  71.0911588  16.5556621  21.8035035  71.0673074  16.3845062
  22.9806047  72.0149688  16.4703082  60.3428650  19.2702341  39.4833088
  60.0039434  19.8075485  38.7673068  60.7470894  19.8974431  40.0828457
  46.0556100  10.7781023   3.4723758  45.3525589  11.0454506   4.0643834
  46.8055592  10.6218380   4.0463018  46.6590009   7.9658598   8.7776422
  47.5092236   8.2023376   8.4069251  46.1599300   7.6262134   8.0348110
  72.2437400  71.5926790  50.1111078  71.2875074  71.5611887  50.1404333
  72.5223547  71.1683464  50.9226179  47.2909843  61.4574460  34.9102496
  46.7015385  61.4649514  35.6643962  48.1659924  61.5404228  35.2893447
  60.2504503  71.0105256  31.3998603  60.6503331  71.4963535  30.6785487
  60.7005273  70.1657418  31.3982295   8.1383745  20.8495039  25.5908679
   7.2213260  21.1178535  25.6478404   8.3101551  20.4058832  26.4214897
  69.5010227  57.2977924  63.8357830  70.1668948  56.6122627  63.8895702
  69.5944077  57.7870607  64.6531773  43.3712291  58.8790290   4.7793054
  44.1537081  59.4139270   4.6457290  42.9540848  59.2543022   5.5548000
  56.3564574  65.4150943  11.4136123  56.4586626  66.1204032  10.7746124
  56.8492304  64.6829132  11.0430526  31.6098156  70.7656578   4.6114063
  31.8755718  71.2982229   3.8617563  32.3156344  70.8789949   5.2479648
  62.9672340   9.5357317  24.8935794  63.5308907   8.9583868  25.4085540
  62.2560153   8.9701361  24.5927429   9.1364299  75.0902085  32.6137637
   8.8917350  74.1652326  32.5858783   8.4362196  75.5376200  32.1386146
  63.8474404  73.5254196  39.1256236  64.5274912  74.1300039  38.8285636
  63.9742957  73.4688524  40.0726890  62.8195296  12.6960033  13.4076213
  62.2360096  13.2611221  13.9139556  63.1139443  12.0339197  14.0330791
  42.3829602  37.8784562   3.2169723  43.2613908  38.2367746   3.3442497
  42.4254309  37.0001713   3.5951852   3.7938333  23.3127666  64.4782686
   3.0129135  23.8302875  64.2818832   3.5753158  22.8461552  65.2849627
  13.9756428  60.1214091  22.9622077  13.7631117  60.3852872  22.0669746
  13.5421287  59.2750649  23.0717468  34.4390225  30.9385133  55.3316402
  35.3909636  30.8707142  55.2578449  34.1052651  30.4593635  54.5731878
  61.4635021  42.3536682  50.9934568  60.9040386  43.1262589  51.0730696
  62.0018441  42.3652172  51.7848396  26.4728332  51.5587950  27.3978090
  26.7352700  51.9217491  26.5518641  25.5301309  51.4151144  27.3147178
  64.1199004  79.8769120  12.4292850  63.2786070  79.7421483  12.8655147
  63.9965354  80.6725363  11.9116020  41.8880139  17.8976339   8.1381797
  42.1168301  17.0106548   8.4159374  40.9619544  17.9876131   8.3630084
  46.7032892  15.9183896  65.9583759  46.8126208  15.2499986  66.6347885
  47.4133712  16.5399015  66.1188078  46.0036681   4.7203678   2.6819467
  46.7657063   4.8748297   2.1236705  45.5076406   4.0396446   2.2271919
   6.5565091  35.3385949  53.9240265   5.7488024  35.3375864  54.4376802
   7.0545751  36.0827041  54.2623472  41.0335707  60.6659130  24.8255824
  40.1251661  60.9520320  24.9213313  41.0037004  59.9995462  24.1390704
  57.6133357  75.2506165  16.8034458  58.4556066  75.5442599  16.4561939
  57.0019804  75.9498672  16.5720939  23.7954046  73.8906936  15.7124137
  22.8650247  73.7377671  15.5473708  24.1183295  74.2945508  14.9069023
  33.7018202  24.7167200   4.3479966  33.2234261  23.9593166   4.6852016
  34.4917319  24.3455070   3.9549732  59.1464292  63.8199500   1.2668514
  58.7132346  64.3754224   0.6187581  58.4382068  63.3032374   1.6511154
  54.3532835  60.4514364  60.5084705  54.4150220  61.1836318  59.8950290
  55.2354275  60.3671102  60.8703327  29.0692187  70.2640990   4.7434043
  29.9329080  70.6585721   4.6223115  28.7354153  70.6607799   5.5480480
  30.5005917  68.4533362   6.9193935  30.4081189  69.2113785   6.3422918
  31.3870059  68.5280995   7.2728252  52.8985578  12.0617342  56.1591291
  52.4733096  12.9159892  56.0839987  53.8346654  12.2548294  56.1076975
  53.7383086  33.4946674  14.3312167  54.5057943  32.9491562  14.1591262
  54.0056346  34.0632242  15.0533676   8.6875325   8.4108967  63.6132050
   9.4331485   8.8632321  64.0077686   8.9868760   7.5086826  63.5007954
  36.7376230   4.9884981   1.1017989  37.1861801   4.1429085   1.1008596
  36.9424567   5.3673309   1.9566440  67.3886699   5.4758352  61.0396099
  67.5369471   5.5755043  61.9799852  67.8296489   6.2289625  60.6464577
  84.9228523  50.2653927  23.5213565  84.2329309  49.6237701  23.3523654
  85.4701922  49.8574489  24.1923427   8.4077469  15.5055231  55.3726482
   8.0154792  14.8583883  54.7864913   7.9633681  15.3709787  56.2096977
  14.7435800  23.1072277  20.2466297  14.2150156  23.0759901  19.4492149
  15.0577632  24.0103287  20.2904987  40.7762824  17.3059740  57.0642805
  41.3816868  16.6049566  57.3057175  41.1569582  17.6896944  56.2742949
  52.3911368  78.3972315   4.5289802  52.9442607  77.6358203   4.7037362
  52.9568993  79.1493682   4.7034358   6.0165989  64.0013838  42.7875376
   5.9942812  64.8841906  43.1568432   5.1031065  63.7155342  42.7948523
  30.8711028  49.5951891  66.0695791  31.3704634  48.8443470  66.3906813
  31.2828064  50.3524017  66.4859486  62.5583295  48.3961719  16.9684123
  62.1072755  49.1387981  17.3700237  63.4332786  48.4090561  17.3563957
  77.7078126   6.2438625  31.9481658  77.6102040   5.3489059  32.2733688
  78.3355329   6.6490072  32.5465488  50.6981657  29.0055364   5.7810544
  50.9594462  29.4450945   6.5902232  50.4644517  28.1186432   6.0549688
  20.4310012  55.8576584  50.0247669  20.0197601  55.1016760  49.6057177
  19.7244072  56.2697124  50.5219316  28.2187605  56.7565012  59.8722219
  27.8526139  56.0217381  60.3644562  28.6840510  56.3477325  59.1423988
  43.5418939  74.1951470  27.8796577  43.0892490  74.7168760  27.2169780
  42.9642462  74.2233495  28.6423873  55.3304704  15.6789440  22.6171874
  54.9707309  15.6675571  23.5041427  54.6450070  16.0840267  22.0858859
  17.8333103  60.2873115   2.1121072  17.6483106  60.6589345   1.2496089
  18.0930637  59.3836395   1.9328355  80.3102356  69.6273947  48.1009007
  80.2768925  69.0440464  48.8590765  81.2332597  69.6385002  47.8476524
   0.6725708  24.4010729  27.8804874  -0.1445039  24.2580789  28.3581542
   1.2413661  24.8480839  28.5072898  43.0871128   7.3319330  34.4084644
  43.6360108   8.0368795  34.0649724  43.7072002   6.6509714  34.6692538
  65.9312008  35.2382892   6.1046600  66.1749504  36.1524528   6.2499952
  65.9954629  34.8328871   6.9693899  12.4196959  45.4105663  55.6335592
  13.0558693  45.1254272  54.9776554  11.8147635  44.6734381  55.7168055
  80.5974529  15.5729717  15.6739520  81.0794065  16.3943142  15.7706451
  79.9156020  15.6150097  16.3444328  60.9124881  31.9556880  63.1446362
  60.4959494  31.0991192  63.2395935  60.2280742  32.5155210  62.7780390
  14.3391983  20.9526771  13.1616687  14.8855821  21.6310066  12.7647209
  14.4667570  20.1854462  12.6037120  40.4214727  68.3879689  23.7024497
  39.8279940  68.4064726  24.4532394  41.1862861  67.9037360  24.0135955
   0.0696395  56.8339348  69.6818638   0.1554438  56.1176252  69.0527630
   0.9125870  57.2860622  69.6464634  80.8834884  13.7651295  25.0891589
  80.7073925  13.1870121  24.3468665  81.7088816  14.1958278  24.8667621
  58.5467783  52.0594829  20.5484485  58.8320553  52.6582855  19.8583221
  58.6442188  52.5622314  21.3571452  15.8835518  53.1405973  45.1502275
  15.2439773  52.5709152  45.5775881  15.4656410  53.3950520  44.3275261
   8.3600961  78.0343632  26.7658328   8.7631523  78.0808334  25.8988761
   8.5566496  77.1497802  27.0742416  10.9178996  51.7896605  69.3660784
  10.6208527  52.4245358  68.7142134  11.1967349  51.0316133  68.8524199
  62.9079662   3.0725712  25.0252628  63.0557517   2.5890583  24.2124938
  63.4082470   3.8814300  24.9171161  34.0037916   8.5902304  23.6509990
  34.8339174   8.2279724  23.3413219  33.7262223   9.1836304  22.9531001
  72.1616351  70.6111769  38.1683921  71.7515265  69.9825720  37.5743388
  72.9031884  70.9597139  37.6735591  80.2267525   4.4880146   8.5792684
  80.9341262   5.0508398   8.8940334  80.1444624   3.8093847   9.2492866
  33.3714865  11.4895624  22.4185466  33.1659386  12.3806900  22.7011585
  32.9066775  11.3885206  21.5878963  30.3681399  76.9873289   6.4233159
  30.4472080  76.2502054   7.0288133  29.7843950  76.6698054   5.7343625
  63.3822929   3.5959615  66.3014317  62.5175415   3.7294378  66.6895342
  63.2273876   2.9959287  65.5719185  14.0399814  29.7971869  67.3934460
  13.7146890  28.9651513  67.0497465  14.7704136  30.0247836  66.8182087
  25.8208179  10.2250075  59.3962526  25.3099608  10.0960016  60.1953840
  26.7107129  10.3942490  59.7055674  17.6793504  40.1178455  54.6796083
  16.8450546  40.1881313  55.1435471  17.7890825  40.9681511  54.2539597
  33.2568817  63.8606409   2.7212285  33.7320219  64.5361261   2.2372960
  32.3492621  64.1646318   2.7281617  37.7891231  44.2039108  61.0201645
  37.5612593  43.3047915  61.2565899  38.5526228  44.4074631  61.5604162
  71.9651125   9.7421211  37.9924392  71.6741619   9.3144220  38.7978267
  72.6842771  10.3099817  38.2691478  41.6535853  72.0575241  38.0257320
  42.2120284  72.6149468  37.4838352  41.7020880  71.1956267  37.6121902
  16.6597521  74.0863419  47.3712683  17.0200622  74.7943449  46.8372822
  17.0667505  74.2028856  48.2297564   7.4656832  41.3696432  45.3598928
   8.0705661  41.7503214  45.9966278   6.9755769  40.7147121  45.8569813
  81.7461048  70.8223848  14.3718719  81.5020024  71.7181329  14.1388892
  81.0458123  70.2808909  14.0077209  38.5350267  13.3509153  31.5203094
  38.9005081  13.1480163  32.3814105  39.2806045  13.6724037  31.0133743
  81.0880852  46.4093733  64.8392773  81.1803174  46.4227438  63.8866234
  80.5247960  47.1578932  65.0358963  27.1829152  43.4557772  67.0312214
  26.6259384  42.6962042  67.2016907  26.5687227  44.1758537  66.8880939
  26.3251274  78.0047492  25.0064945  25.8530848  78.2096271  25.8136081
  27.2410774  77.9355339  25.2757072  74.4080410  32.8917116  42.2873973
  75.0843392  33.1879991  42.8965473  73.9041004  33.6804289  42.0868968
  31.7033887  13.6698318  45.4644728  32.5882173  13.4258640  45.7361078
  31.5876222  13.2439601  44.6150827  83.6070082   3.0787462   4.3021297
  84.3882082   3.5876459   4.0853738  83.9445541   2.2940153   4.7339677
  53.7120057  16.6406149  32.0803356  53.2185275  15.9428018  31.6493224
  53.0642871  17.0938724  32.6200198  28.1196853  46.2565402  11.7934417
  28.4524000  47.0294986  11.3372993  28.8098672  45.6015037  11.6894817
  79.6755312   5.1372761  52.8937053  80.2036450   5.9079355  53.1020736
  80.2704237   4.3980545  53.0197238  29.8506256  68.9874033  13.7244319
  29.5575032  69.8634319  13.4736633  29.9022504  69.0164546  14.6798038
  78.6892913   5.2259058   2.7066612  79.1840956   4.4112772   2.7948665
  78.8781855   5.5257934   1.8174934  33.2236147  24.4253302  68.6248875
  33.3042216  23.5967660  69.0973425  32.9382300  25.0529027  69.2889166
  22.9088884  61.6141681   8.3843231  22.7679216  61.1378674   9.2025518
  22.9954021  60.9298305   7.7206706  14.0828251  77.4474959   9.2152309
  13.3946585  77.8809408   9.7199916  13.6617004  77.2130183   8.3882427
  63.7892138  51.6202335   5.5352210  63.0524265  51.0105960   5.5766630
  63.7997233  51.9218377   4.6268367  73.2380924  15.1559013   5.0478362
  74.1757117  15.3484625   5.0429296  73.1790934  14.2452186   4.7590350
  33.9735881  13.2528967  17.8694629  34.5210783  12.8513664  17.1947383
  34.5763389  13.4337324  18.5907268  74.8839638  15.8172506   1.1763381
  74.2360041  15.2370876   0.7765960  74.7148834  16.6729254   0.7820510
  25.1527797  62.0043163  19.6323871  24.9554037  61.5838317  18.7954521
  26.0647622  61.7724303  19.8077392  48.8583743  75.7459168  35.7865905
  48.9513384  74.8317389  35.5185031  49.6179210  75.9100346  36.3455104
   6.8147147  20.0218415  64.9474430   6.9626629  20.2827120  65.8564472
   6.8783873  20.8376098  64.4507551  53.9782662  23.9377683  19.2518710
  53.1333576  23.9365667  18.8020324  54.1081072  23.0281299  19.5200729
  26.2763492  15.7964653  43.8949584  26.9792358  16.3950962  43.6423206
  26.5227882  14.9587053  43.5029601  25.9537232  68.8719324  28.0790328
  25.7007622  69.3536905  27.2915363  25.2132999  68.9823322  28.6755370
  68.9699075   8.4296078  32.2730445  68.5936342   8.1194347  33.0967140
  69.7267876   7.8621811  32.1267890  60.9207498   3.5667791  59.5410585
  60.0766455   3.8896742  59.2256975  61.5344726   3.7724008  58.8358641
  59.5325338  78.9821724  24.0289592  59.1699706  78.2453207  23.5371875
  60.3001367  79.2520789  23.5247993  63.4538017   3.5384554  34.3390655
  63.6272738   2.8403992  33.7075233  62.8446619   4.1232866  33.8883495
  10.1622903  46.9143391  41.4439106   9.2743319  46.9270563  41.8011236
  10.1102340  47.4518108  40.6535673  74.4441197   6.2584299  14.7238159
  75.2896927   6.5288347  14.3658733  74.3981312   6.6862387  15.5788516
  46.0713053  72.5602531  58.8684797  46.6215420  73.1728935  58.3804798
  46.6857529  71.9199657  59.2272568   7.3179561  42.9035425  63.5667324
   8.0088753  43.3534861  64.0529585   7.5504470  41.9766855  63.6225414
  29.3499986  27.5059408   0.9742164  29.7482625  28.2933229   1.3452195
  28.5095684  27.8038687   0.6261491  14.4750664  14.4631332   4.1160678
  15.1253150  14.5473570   4.8134374  13.7881253  13.9141315   4.4941425
  14.3280636  75.4739098   1.6762781  14.7061561  74.7364716   2.1553039
  13.4369801  75.1928786   1.4683771  79.5937703   9.0266842  11.0686969
  78.7236712   9.2235416  10.7217025  80.0417159   8.5779709  10.3515958
  16.1335945  53.3413363  56.3308048  16.8844092  53.2633257  56.9193792
  16.2801206  52.6691484  55.6652784  25.6910968  50.8272886  66.2400150
  26.5642691  50.4642200  66.3882780  25.6975722  51.6640854  66.7047310
  68.5152004  24.7430652  23.0142116  67.9281245  24.6563858  22.2631740
  67.9302511  24.8470587  23.7647151  33.6893797  33.7249136  63.5568380
  33.0174422  33.2458425  64.0418386  33.2124043  34.4310236  63.1207943
  50.3779160  55.7523421  16.5389728  49.4424735  55.5621211  16.4683055
  50.7430350  54.9931852  16.9935130  10.6302682  43.7659496   4.0629768
  11.1950199  43.7112755   3.2920694  11.0289279  44.4475025   4.6040820
  83.7490131  44.7431850  43.4621048  83.1383383  44.1571474  43.9091730
  83.5047692  45.6184244  43.7629795  58.2031196   1.0136074  39.5157337
  57.3473662   0.8847088  39.1067027  58.0035457   1.2185949  40.4291820
  63.6240851  75.1227955   8.1866216  63.0199443  74.6068267   8.7204933
  63.5455834  76.0132388   8.5289382   1.6221216  42.9494810  50.0374794
   1.8700647  42.0571184  49.7957182   1.6856316  43.4452152  49.2211199
  19.9869025  45.2777719  38.3038473  20.8919001  45.2136993  37.9987168
  19.4611847  44.9965382  37.5550079  72.9956959  43.6324924  20.2481651
  72.4082372  43.9159244  19.5476055  73.8730762  43.7232918  19.8764228
  13.2055426  48.1837749  60.5940628  14.0195704  47.8723240  60.9897804
  13.1773102  49.1165733  60.8069420   5.2036399  22.5585580  58.5547352
   6.0537165  22.9797006  58.4273481   5.2512473  22.1841574  59.4343901
  64.0375684  29.8742336  10.3756952  63.6156235  30.0480694  11.2171077
  64.9684886  29.7994226  10.5855083  58.0574936  14.6639246   3.3216476
  58.8032273  15.2581590   3.4053039  58.1885862  14.2324632   2.4773216
  68.6842892  34.2568630  10.2881336  68.3533774  33.7553209  11.0332393
  69.1009603  35.0235599  10.6815719  56.2672769  67.2198252   5.6950807
  57.0469819  66.9364313   6.1725520  55.5420100  67.0425967   6.2940883
  31.7677347  16.0572237  21.2370872  32.2716848  16.7791694  20.8615112
  30.9057561  16.4336914  21.4145660  15.3110719  38.7892842  45.5047894
  15.3471816  38.7294507  46.4594364  15.6395066  37.9437137  45.1992178
   4.7043620  73.6668758  38.2615661   4.5383130  74.6076826  38.2020377
   4.2301451  73.2925133  37.5191402   4.7934347  41.0204268  63.6724949
   5.6136310  41.3374090  63.2942963   4.8101929  41.3330412  64.5770502
  22.1062300  59.1599983   6.8794250  22.5120447  58.4631103   6.3637781
  21.7439745  58.7122959   7.6439952  65.3104524  20.7386392   2.6091575
  65.5941216  20.5481953   3.5033035  65.6082628  19.9861425   2.0979976
  17.8825699  71.8924407  14.1238117  17.5516497  72.5591091  13.5219192
  17.2520124  71.1753730  14.0571594   6.1370832  44.1755867  41.7105341
   6.5069002  45.0070333  42.0074606   6.7035049  43.5090733  42.0993185
  69.6512387  21.7798942   0.2711629  69.2583773  22.3233122   0.9542369
  69.8480819  22.3918337  -0.4380751   9.5865242   2.9397339  28.2589530
  10.2614562   3.5986561  28.0961036   8.9186255   3.4012503  28.7660503
  73.7297720  60.9839535  36.1891675  74.6207088  60.9855509  36.5391111
  73.3022755  60.2471685  36.6257763   0.1540057   9.6983284  22.9873752
  -0.4741128  10.1488108  23.5519599   0.8664648   9.4464535  23.5749053
  27.2511649  38.4275961  57.3492002  27.7249026  39.1803789  57.7029276
  26.3827443  38.4821224  57.7480841  44.7982262  76.1589722  25.4614353
  43.9828740  76.1881308  24.9608516  45.4232692  75.7308344  24.8764133
  15.5778861  76.0508776  54.2814493  16.4008701  75.5620909  54.2853832
  15.3010201  76.0463762  53.3651733  13.8608157  43.8848976  29.5516013
  14.6318435  44.3978740  29.7936820  13.9039289  43.1092579  30.1108550
  82.8964846  39.7158241  65.4258490  83.1877127  39.9505401  64.5447540
  82.1062878  39.1940713  65.2858734  48.6176573  58.6314372  17.9191207
  48.1219481  59.3319742  18.3430862  48.0116664  57.8909330  17.8934001
  46.0141420   8.9403236  55.9101439  46.0965872   8.1419230  56.4316702
  45.1257658   9.2504495  56.0857582  80.5989645  22.0037884  21.8959998
  79.8666809  21.6954416  22.4297714  81.2055753  21.2637609  21.8712043
   2.3914512  44.9301767  58.9738131   2.2342536  45.6483507  58.3608341
   2.5637904  44.1720676  58.4154224  41.3517283  57.8262691   9.1009044
  40.9943711  57.5540928   9.9461555  41.4070128  57.0171348   8.5925006
  26.2282610  42.0429993  35.6378174  25.3610063  42.3751402  35.4059148
  26.2238383  42.0090914  36.5944076  16.5155879   1.9920915  10.3607845
  16.1918727   2.8615993  10.1254176  16.0337583   1.3943094   9.7891807
  34.5072595  18.0495399  67.8322505  33.5537616  18.1335825  67.8300475
  34.7227994  17.7438825  66.9511508  79.0121781  14.1333284  63.0877447
  79.6668183  14.0620412  63.7824345  78.8429486  15.0725259  63.0135822
   3.1088153  27.2790712  23.4049606   3.5928694  27.5289482  22.6178836
   2.3038832  27.7955288  23.3651733  78.0734288  12.1462526  68.8113928
  78.6749350  11.4069738  68.7225533  78.4952294  12.7230253  69.4482994
  50.2167188  77.9021863  21.0003089  50.1576411  77.9712037  20.0474357
  49.4617521  77.3689274  21.2490939  58.9614903  73.2446222  32.4838924
  59.3216835  72.4119476  32.1786880  59.6706330  73.8742975  32.3540592
   1.3003910  38.8059640  66.1764431   0.7416315  39.2452240  66.8175936
   1.6079983  39.5095158  65.6049347  42.4083613  69.1218237  30.6284618
  43.3475398  68.9495329  30.6954860  42.3409270  70.0763945  30.6066322
  53.0130159  79.6438483  21.9979858  53.7804543  80.2141527  22.0429801
  52.8964125  79.3280629  22.8940391  44.2307923  18.8236708   1.1648750
  45.1276121  18.7866205   0.8323478  44.1143070  17.9965347   1.6323280
  44.6712386  76.0872726   1.7523145  44.1506540  75.5375199   1.1666583
  45.5682742  75.9976176   1.4305686  14.5161498  25.5860472  57.6619339
  15.1003408  25.4685616  58.4110308  14.6620345  24.8103237  57.1204519
  71.9681022  31.9458574  32.4158286  71.7011533  31.0849375  32.0936775
  72.8534935  31.8111795  32.7537250  70.4579995  47.8620666  15.4452991
  69.9663017  47.9303593  14.6268844  69.7866605  47.8458351  16.1274146
  31.6689865  27.6133913  18.3793830  31.8756191  26.8887132  18.9696121
  32.3615924  28.2551569  18.5364341  74.3716942   0.4127874  47.9486465
  74.0061127   1.0646429  48.5466957  75.0985371   0.0230112  48.4344530
  31.7586748  24.3827051  23.4439945  31.7491666  24.4289965  24.4000244
  32.3913471  23.6928409  23.2438850  29.0250198  33.3078379   3.8922834
  28.5637895  33.4018987   3.0588245  29.5438854  32.5099748   3.7901782
  51.8613050  54.5461696   9.4498920  52.4327622  54.6043533   8.6841964
  52.1877716  55.2217048  10.0442838  13.1311456  37.4825662  25.7445430
  13.2190506  36.8508858  25.0307655  13.8341705  38.1143040  25.5932426
   2.1290676   1.0764784  10.1824331   2.8075878   0.5272669   9.7897338
   2.4887887   1.3306850  11.0322570  70.6981526  17.9545111   9.5586538
  69.7421060  17.9982752   9.5756959  70.9370694  18.2740539   8.6885690
   8.7686883  77.4508838   9.2467355   8.5387253  77.6210860  10.1601791
   8.6930393  78.3032850   8.8178729  53.0045186  80.6108956  25.0202751
  52.1569787  80.1846890  25.1477622  53.6217414  80.0681857  25.5109214
  41.5217495  44.0662956  62.8611422  42.4667072  44.0120602  63.0037928
  41.3947821  44.9025202  62.4129963  75.3260980  51.1998600  28.5633087
  75.1951263  51.2983364  27.6202392  75.3343151  52.0962757  28.8988685
  18.6694757   8.9067406   1.6419839  19.5046512   9.2994827   1.3880824
  18.2717554   9.5488781   2.2299575  59.1939436  79.3897990   4.6986913
  58.3533822  78.9480499   4.8192882  58.9692413  80.2236323   4.2858171
  81.4448402  48.0983299  35.9502887  80.6785772  47.9957432  36.5146922
  81.9015453  47.2593445  36.0116481  64.3171016  18.5742182  13.5848235
  65.1074753  18.1273407  13.8878726  63.5966710  18.0423302  13.9229106
  74.8181818   7.0667738  10.9964084  73.9581797   7.1234793  11.4128303
  74.6856425   7.4334568  10.1222133  64.2555402   9.5151132  18.4097289
  63.6543314  10.1627582  18.0418491  63.7036667   8.9640707  18.9647292
  16.7114162  58.8600445  41.5008497  17.2892070  58.2337189  41.0648346
  16.2467229  59.2950630  40.7859707  73.3293329  36.4453024  19.3233680
  72.4819598  36.0095114  19.2323875  73.2967708  37.1660227  18.6942958
  80.7835219  61.2441963   8.9096450  80.9889434  60.9240764   8.0312633
  80.1133154  60.6422752   9.2332792  14.3631832  12.3855490  28.5271358
  14.4206087  13.1536096  29.0954780  14.6536342  11.6581625  29.0773868
   8.8723032  43.9835113  16.7794322   8.3914749  44.8111767  16.7754173
   9.7429363  44.2138809  17.1037196  16.9616497  62.6618147  56.6251802
  16.4915144  63.1078148  55.9207010  16.5686536  61.7897367  56.6607809
  71.9003998  57.6389960  28.4651470  71.4058148  57.6403360  27.6456165
  71.3293873  57.1903543  29.0887641  25.7624340  47.3700333  63.9919758
  25.3855443  48.2428074  63.8803816  26.5423250  47.3731756  63.4370089
  19.6539783  63.5425186  65.5642796  19.4067144  64.4575214  65.4306316
  20.3149199  63.3725309  64.8930931  68.9166878  56.0226578   5.3379917
  67.9614887  56.0133785   5.2768230  69.0971837  55.9647602   6.2762355
  75.8823095  21.2092489   6.6192102  76.5030537  21.8682760   6.3084125
  76.4110861  20.4206938   6.7408895  80.3022287  18.7031263  34.2640781
  80.1120327  17.8763384  33.8208293  79.5507882  19.2609876  34.0631770
  70.1076279  28.4525293   8.6380338  69.2651150  28.3556026   9.0818881
  70.6676255  27.7880281   9.0393733  83.5305808  44.4317097   3.1481170
  84.2646883  43.8193840   3.1969404  83.1022594  44.3606228   4.0011834
  38.7616682  71.1261082  59.8284292  38.1101465  71.7898989  59.6022892
  39.4264317  71.6026068  60.3256893  31.0151013   1.3561525  51.1039925
  30.6944283   2.1860590  50.7509279  30.5415146   0.6867971  50.6101131
   7.6075117  45.4172272   0.6912278   7.6361815  45.2551884   1.6341781
   6.7582337  45.8340401   0.5455446  18.5403482  65.1376194  28.4035014
  18.3197490  65.5652469  27.5760364  17.7235071  64.7260231  28.6856269
  82.1092699  29.3604988   8.8651943  82.9736398  28.9907211   8.6853027
  82.2812507  30.0971979   9.4516515  51.1848644  17.1775812  19.0273856
  51.4553080  16.8086618  19.8682117  51.9397570  17.6891273  18.7363624
   4.6804921  48.1076092   5.0564098   3.7651316  48.3617443   4.9391031
   5.1699583  48.9247173   4.9616098  25.6536333  48.0516666  35.1336479
  26.2127201  47.2749370  35.1149844  25.4605047  48.1855244  36.0615539
  55.3671322  11.6278118   1.1330842  55.9442497  10.9542698   0.7732152
  55.0539249  11.2586397   1.9588231  39.8605371  75.0047684  59.9096537
  40.4503918  74.2771435  60.1068068  40.0237989  75.6408834  60.6060219
  78.0745071  63.2748795  44.9082088  78.3847940  63.8247728  44.1887856
  78.7257558  62.5764608  44.9739265  76.7070025  52.9897881  63.2892609
  76.9706845  53.6468506  63.9334440  77.2139913  53.2049465  62.5063801
  34.4995361  15.4786005  69.0466976  35.2029752  15.2960767  69.6696663
  34.7756516  16.2798013  68.6016512   6.7317025  28.3006948  30.8145713
   6.2986652  27.8295082  30.1027488   7.6462308  28.0225700  30.7643985
  64.7367870  53.9001099   0.8341550  64.8991357  53.4878687   1.6826438
  64.8377310  53.1904082   0.1998329  83.9620650  48.3206606  61.5752029
  84.3169346  48.4352016  62.4567795  83.2636361  47.6745939  61.6802311
  84.2530606  28.0155701  17.0195484  83.7205336  27.4372619  16.4734649
  85.0562022  27.5203461  17.1806239  74.0883980  22.1944898  52.0856666
  74.1289399  23.0236334  51.6091060  73.1798206  22.1317285  52.3802471
  24.3583719  43.8728374  12.6745414  23.5192482  43.4682125  12.4545669
  24.4730941  44.5589680  12.0170497  69.8510300  30.2649679  55.0212049
  69.0944373  30.3551378  55.6005764  70.5480515  30.7528581  55.4597950
  24.4136230  27.9901546   7.5596856  24.4451467  28.9451641   7.5031041
  23.6691944  27.8086609   8.1333732  11.2030117  33.8804287  13.7583446
  10.2500168  33.8993543  13.6707591  11.3969270  32.9983133  14.0753555
  76.3594148  15.2622074   6.3336801  77.2078917  14.8967213   6.0832023
  76.5586171  15.8556742   7.0578002  66.3413177  30.5908626   0.6263255
  66.1321709  29.7023624   0.9145212  65.7260928  31.1482662   1.1028051
  22.5814128  45.0702286  56.3968325  22.5279737  45.8262682  56.9814539
  21.6708231  44.8706961  56.1794806  68.8318370  42.6733822  47.0062827
  67.9739282  42.6348442  47.4290561  69.3124888  41.9306129  47.3716544
  61.2238262  23.9034647   9.9515294  60.5269746  23.6677688  10.5639648
  61.3785241  23.1054443   9.4460868  36.0224884  73.7156538  11.0711860
  36.8526613  74.1916994  11.0505390  35.7345961  73.6965374  10.1585054
  59.8468689  55.2259678  11.5041828  60.6732906  55.5874389  11.8244838
  59.1954924  55.5144447  12.1434974   9.0436903  55.1444191  24.2113017
   8.6696998  55.9987205  24.4269847   9.3106858  54.7799057  25.0551509
  77.1563671  30.3214926   3.6944484  78.0793712  30.2986139   3.9469814
  76.7620394  29.5846409   4.1611194  69.0712309  55.9957838  67.5621271
  68.6834478  56.2614584  68.3959579  69.1434002  56.8085957  67.0617676
   2.2608820  59.4511360   3.1006240   2.5989882  60.1389355   2.5271701
   2.8826610  58.7300724   3.0021762  37.7093123  77.5996331   2.8736209
  37.6907020  77.1247415   2.0427369  37.3269068  78.4532313   2.6702356
  84.3414614  27.3068756  25.8934783  85.2301381  26.9803232  26.0343742
  83.9112852  26.6190666  25.3854369  76.3098834  66.2489551  17.6275253
  75.8151291  65.5028957  17.9664230  77.2159765  65.9418053  17.5976753
  11.4532534  18.7374824  25.6655788  11.8334142  18.5764545  24.8019981
  11.2428347  17.8659910  26.0009288  22.5697780  73.9224243  64.7642899
  21.9420838  73.2058716  64.6705627  22.1953201  74.6376610  64.2500401
  11.6590396  54.0828842  25.8566379  11.8843166  53.9269966  24.9394702
  11.4625327  53.2136768  26.2060642  27.6927586  75.2038912  32.5917339
  27.5781267  74.3628506  32.1493053  27.6980690  75.8481507  31.8838214
  77.8908441  44.0704578  25.6863498  78.2499717  44.8607010  25.2828979
  78.1443761  43.3626598  25.0939178  32.6174489  54.5712608  -0.1315404
  32.2755519  53.7795109   0.2837514  32.3604671  55.2807087   0.4574203
  73.5214362  40.3359073  14.7919368  73.3073876  41.1469883  15.2529811
  72.8755365  40.2832264  14.0874671  81.2667988  20.5108351  35.9581088
  81.1183164  21.0928243  35.2128028  81.1224697  19.6317285  35.6079864
   6.0562078  53.2477325  18.7820625   5.7193510  53.9380115  18.2108592
   5.2909152  52.9482788  19.2728614  62.6364140   7.4916118  12.2379302
  62.3421399   7.7510589  11.3648223  62.0595680   6.7669910  12.4796104
  34.5284103   3.6632433  63.7484026  33.8032948   4.0931310  64.2018700
  34.2976033   3.7187757  62.8211069  56.3271877  35.4933447  12.3307990
  56.9446316  35.3181309  13.0409335  56.1912685  34.6414846  11.9159507
   2.9936115   1.4012140   6.8112325   3.7211005   1.7473644   7.3281144
   3.1994740   0.4731172   6.6994809  47.4839592  28.9066219  49.6290731
  48.2774258  28.4100938  49.4288254  46.9685936  28.3210564  50.1838207
  39.5971537  54.1425276  62.5964594  39.4371128  55.0859213  62.5713015
  39.3394661  53.8793564  63.4799576  18.7628261  47.9570240   7.1627712
  19.3210451  47.2549957   7.4971151  18.0574123  47.5031036   6.7017125
   1.1395661  18.8043732   1.4185094   0.8682982  18.8088650   2.3364543
   1.7597429  19.5301241   1.3484763  70.0065762  54.8770571  59.3904257
  70.0313717  55.6841946  58.8764715  70.2843982  55.1426840  60.2670574
  46.9548273  57.6396465  50.6307364  47.4292517  56.8478012  50.3774834
  46.0901165  57.3262882  50.8958960  12.1630387   3.1413927  59.6890306
  13.0501895   2.8333177  59.8741913  11.7588477   2.4262705  59.1976357
  13.1831924   0.3648371  16.0869407  13.6215154   0.0380319  16.8726253
  13.4638731  -0.2297026  15.3912639  53.0298506  74.0136937  14.4926261
  52.9496418  73.1681542  14.0511894  53.7979065  73.9179639  15.0557899
  31.7341177  48.9986175   7.0911264  31.2108127  49.7559685   6.8288087
  32.6125757  49.1888946   6.7619848  48.5926771  58.6411333  66.0130262
  48.7631321  58.2331371  65.1640749  49.3298721  59.2373514  66.1445570
  66.2656526  35.5949205  20.8362007  66.4588020  35.3023714  21.7268943
  66.9593070  36.2229866  20.6346702  52.5711261  30.7871713  56.3519239
  52.7067267  29.9425306  56.7813730  52.3560416  30.5636491  55.4463816
  14.2834478   9.7590437  57.4497509  14.2093091  10.3956499  58.1607151
  14.1897206   8.9086237  57.8789759  75.0302098  12.6507992  43.0164432
  74.7543488  13.1314749  43.7968826  75.8617745  13.0545181  42.7679633
  12.3638908   3.0687136  30.7712077  13.0719272   2.4377769  30.6414413
  11.8040792   2.9620355  30.0021362   6.0447383  51.6321421  30.4774237
   5.6270337  52.4580336  30.2331781   5.4456133  50.9572077  30.1584530
  22.7680103  12.3651689  21.0510825  22.1375171  13.0607218  20.8642291
  22.4922458  11.6362804  20.4952907  34.0399218  72.3302603  69.6932697
  33.9015436  71.5132618  70.1724339  33.6402297  72.1764994  68.8372135
  23.4422922  38.9247179  40.6341076  23.2117152  39.3305540  39.7984266
  22.9279065  39.4044423  41.2833452  76.8123923  16.7786354  23.4418964
  77.6007436  16.6528791  23.9700221  76.1424110  16.2569040  23.8836574
  79.0842650  32.4847454   8.3938789  79.2507122  32.6721662   9.3176793
  78.5828755  33.2385773   8.0831098  51.8282186   7.5742616  58.3713484
  51.7339360   8.3658876  57.8415632  52.5924741   7.1299925  58.0042410
  18.3021442  22.9868263  20.1773643  17.5658552  22.7228254  19.6256255
  19.0195409  23.1396908  19.5623779  46.0415790  27.9819149  20.1080512
  45.1222465  28.2446140  20.0627899  46.4945421  28.5945362  19.5286083
  56.9023670  38.3703035   0.8546542  57.7209272  38.0283922   1.2142181
  56.6129180  39.0207380   1.4944887   5.8109156  35.3671545  19.2013454
   6.4724151  36.0263294  18.9912509   5.7257453  35.4084057  20.1538562
   9.2062489   1.4385122  10.4586791   8.9534799   2.0057339  11.1871051
   9.3310467   2.0364088   9.7216701  48.1660843  76.7749834  68.9963484
  49.1041946  76.7829752  69.1863966  47.7795553  76.2801170  69.7187996
  19.7655773  31.6005373  66.1978245  19.3386972  32.0700669  66.9144487
  19.3458998  30.7402682  66.1915588  11.8239871  38.9196485  15.8389663
  11.0494296  39.3524212  16.1981201  11.7672197  38.0203384  16.1618518
  47.3583654   3.3450121   5.0338744  48.2575063   3.0522770   4.8852729
  47.1555332   3.8908333   4.2741584  29.1050720  39.2048836  67.7437925
  29.9367428  39.1256785  68.2109976  28.7562466  38.3137512  67.7229595
  48.2787609  77.6643181  65.3844881  47.9501963  78.5476351  65.5519104
  47.7811956  77.1063900  65.9822989  82.7127192  52.0272583  14.7149085
  83.5323594  52.4664444  14.4878959  82.3492763  51.7490047  13.8742446
  66.8314967  12.1341509   8.9899158  67.3765693  12.6270622   8.3765935
  67.0368276  12.5081390   9.8467683  34.0348959  74.7827148  59.2584276
  33.9598942  73.8572311  59.4909954  34.6289444  74.7937012  58.5079479
  17.8801398  11.1400308  57.9530716  17.1523910  11.4797678  57.4323130
  17.7522044  11.5220823  58.8213444  38.7672329  78.5843182  67.9019117
  38.9137030  79.4928837  67.6386929  39.6452403  78.2078600  67.9620409
  77.1729515  25.1461452   0.9053325  77.0763109  24.5593256   0.1553106
  77.7642582  25.8330053   0.5974149  82.8629910  16.6711416  58.6590052
  83.3310353  17.3281278  58.1437016  82.9340683  15.8675089  58.1438732
  78.2519768  16.9505686  37.6141738  79.0730951  17.4354690  37.6970386
  77.6432894  17.5757498  37.2206306  79.9789069   1.5001577  12.8208446
  80.0750087   2.0688766  13.5847568  80.1241205   0.6169218  13.1600189
  80.1332042  22.1801466  15.9072303  80.1243136  22.2276539  16.8632125
  81.0245679  22.4295610  15.6633090   2.0763508  22.4423307  26.4283180
   1.7553464  23.1656069  26.9668960   1.6499034  22.5673765  25.5805396
  68.2000314   4.6949472  35.7204151  68.1243788   5.4693784  35.1629424
  67.4948608   4.1183366  35.4263425  19.8645070   4.0853246  30.0117397
  19.9058142   4.7785791  30.6704711  20.7793310   3.8576063  29.8460006
   1.8001548  73.5494751   0.0497579   1.2808410  74.3221134  -0.1728917
   2.5601784  73.8978905   0.5158090  17.5260297  60.6630462  32.2703266
  17.1544878  60.9146541  33.1158351  18.1884281  61.3305229  32.0916271
  23.9739219  45.5316681  27.8318691  23.6970130  45.5049938  28.7477588
  24.7522346  44.9753517  27.8006744  74.0601907  11.0708374   9.7867011
  73.6678896  10.1986975   9.8279094  73.5407672  11.5363783   9.1311788
  65.3315627  42.4600019  66.1944056  65.7952367  41.6322317  66.0677433
  64.5485484  42.3817529  65.6494284   8.1294910  45.6401199  36.4669608
   8.7022130  45.6279987  35.7001018   8.0495540  46.5671486  36.6915702
   5.6954853  21.8317884  14.7290611   5.1830570  22.4464077  15.2543163
   5.1857416  21.7194933  13.9266967  18.1914078  20.7272234  59.7297096
  18.0118941  20.0370779  60.3682184  18.0137192  21.5413751  60.2006912
  75.2551077  22.9102749  36.4277839  74.9082992  23.4858936  35.7461547
  74.6972583  22.1332687  36.3918018  47.1380900   6.1925497  51.1143827
  46.5989410   6.4576616  51.8595457  47.7313768   5.5315294  51.4711571
  74.9729512  16.1746448  29.2883014  74.2951474  15.5027098  29.2154025
  75.5130205  16.0558122  28.5069942  44.7967051  23.9936819  38.2313609
  44.3476032  24.2483797  37.4253392  45.4389345  23.3412923  37.9518032
  28.3004037  58.7326378  29.0084457  28.9902202  58.5199207  29.6370410
  28.3597700  58.0445045  28.3457279  25.1556913  24.2640680   9.8223304
  25.6547729  23.7377065  10.4469013  24.4162313  23.7078136   9.5773553
  55.2168237  29.4998254  64.8262358  55.2985226  28.5738363  65.0545073
  54.5310913  29.8300066  65.4067373   7.0228735  43.1840080  30.0706481
   7.7684871  42.6816601  30.3991794   7.4084751  43.9933533  29.7352313
  36.5150355  18.4042062  62.2420931  35.8802395  18.3719434  62.9577923
  37.3182081  18.0437650  62.6178932  67.3438178  23.4840765  57.3681593
  66.8894874  22.9355611  58.0076504  67.1972882  24.3793668  57.6734734
  11.1311141  42.3573154  14.1815948  11.4531771  41.8815941  13.4159564
  11.0192958  43.2571358  13.8748931  11.7664186  52.7896637  17.0744132
  11.2531559  52.0584911  16.7306613  11.1166708  53.4601826  17.2852897
  18.2679788  36.9208807  21.1636257  19.0869323  37.4041361  21.0540389
  18.4521429  36.0529322  20.8044719  68.0039618  53.8200229   8.6252212
  67.4396608  54.3381447   8.0513334  68.8792799  53.9148849   8.2496499
  64.6758596  31.4568132  30.5902957  65.0969295  30.6313223  30.3505134
  64.4179193  31.3374609  31.5043353  58.7162056  68.4238857   3.9375209
  58.9932365  68.9912361   3.2180786  57.9922340  68.8955540   4.3493747
   6.8649117  26.2806743  20.3144931   7.3423807  27.0920652  20.4874133
   7.5297538  25.5944961  20.3726482  51.9952165   9.1706075  50.9948444
  51.5070282   8.5392751  51.5233564  52.4574100   9.7120275  51.6347408
  33.3657336  53.3010626  65.6798935  33.5379410  54.1750240  66.0302734
  33.1297135  53.4521770  64.7646427  18.2738201   8.3566850  35.4405116
  19.0560047   8.0083793  35.8684158  17.5803176   8.2591623  36.0930347
  17.9032032  12.9756254  19.1722488  18.1895820  12.7166027  18.2963847
  16.9569675  13.0941147  19.0895652  35.6395475  26.5136713   1.0328435
  36.4915411  26.9497866   1.0211372  35.8427183  25.5959171   1.2136268
  22.1314613  58.8038296  40.7343482  22.3441926  59.0230984  39.8272037
  22.6523057  59.4138473  41.2566661  69.3905735  48.0375242  61.9164753
  68.8629723  48.1402636  62.7085018  68.8035059  47.6127815  61.2910366
  79.3983685   6.3541212  58.9653397  78.6399447   5.8352270  58.6974382
  79.0874659   6.8642130  59.7132540   0.7831513  47.0843301   4.0864944
  -0.1046885  47.0077203   3.7370681   1.2493764  46.3314853   3.7230539
   6.6764027  13.9915574  62.7540398   5.9056026  13.5692465  62.3748970
   6.8486786  13.4993565  63.5567188  37.6413261  43.8178880   0.0720357
  36.7117833  43.8883872   0.2893161  37.8984414  42.9549710   0.3968429
  71.3261563  29.4673467  45.1052427  70.7053071  29.7847962  45.7609892
  71.2463838  30.0870538  44.3800974  25.7520364   1.8323654  20.1240730
  26.4712141   1.9165272  20.7501125  25.1064275   1.2864965  20.5729007
  73.2952636   6.3049483  68.9094400  72.5402266   6.8890220  68.9802217
  73.4038013   5.9460062  69.7901297  24.0887284  12.4761486  58.4478188
  23.2685590  12.3864698  58.9331150  24.1955376  11.6365278  58.0007648
  68.5358363  19.1608465  52.1415186  67.8698367  18.5074317  52.3553514
  68.5520524  19.7436249  52.9006910  14.7512269  11.5609276  53.4085369
  15.4121447  11.6799259  52.7264357  14.1103268  12.2526753  53.2443285
  69.7429692  26.1179094  19.9864864  70.2289091  26.2788538  19.1776656
  70.1250063  25.3144125  20.3395748   8.7129735  74.6119885  21.7622566
   8.9872586  74.2283801  20.9292888   7.7704846  74.7476987  21.6646480
  47.5386797  52.9593651   2.2490501  47.6639794  52.4888269   3.0731391
  46.6245877  53.2424955   2.2714948  10.9625554  27.7693796  20.3954935
  10.0978792  27.8907514  20.7877111  10.7814622  27.4771500  19.5021629
  46.7172201  48.8441739  53.5694408  47.2317512  49.6384344  53.4257793
  46.4499373  48.5699950  52.6921654  50.0579916  59.8548941  22.0104217
  49.8163449  59.1188852  21.4481735  49.2333018  60.3126911  22.1733379
  61.2123251  58.9446592  54.5125341  61.0812044  58.0780554  54.1277790
  60.3726578  59.3887472  54.3942928  13.7915969  27.4780178  42.4800730
  13.1592810  27.2451520  43.1599092  13.2821584  27.9732943  41.8386650
   0.3292643  78.9420966  19.4838332   1.0189377  78.3360390  19.7545432
   0.4607021  79.0491609  18.5417651  17.7853048  40.3670979  47.3910618
  17.1748769  39.6299410  47.3765421  17.3018599  41.0864449  46.9847965
  21.3525939  27.5504327  47.6850653  21.8961477  28.0739880  48.2738543
  20.7442546  28.1797791  47.2976732   2.4259292  76.4726547  15.7045078
   1.7820560  77.1376805  15.9482288   3.1106769  76.9591121  15.2454757
  11.4827430  24.9731660  62.6506567  11.3601720  25.8045578  62.1924067
  12.0571578  24.4659424  62.0770693  63.0314589  32.3608518  57.8923130
  63.0341482  31.4466500  58.1759644  62.6007462  32.3451805  57.0376348
  81.0200066  74.7116933  50.1073170  80.2793641  74.3376384  50.5845642
  80.6489797  74.9916003  49.2705202  24.4172597  75.6409264  23.6562777
  24.4153881  74.9407911  23.0035639  25.1736736  75.4494667  24.2107248
  53.7086259   6.4417819  24.8801994  53.2922636   7.2609476  24.6121692
  53.0004107   5.7979516  24.8680209  78.1324226  30.5503058  34.6596003
  78.0006152  31.2494874  35.2999139  77.2491455  30.2437472  34.4544768
  19.1681659  29.8567605  58.5709381  20.0283027  30.2070928  58.8025904
  18.7735617  29.6167970  59.4093513  85.3397842  19.7602260  62.2729397
  84.5538288  19.2236769  62.3760033  85.3516116  20.3194022  63.0497360
  62.9289991  49.4667578  40.9302521  62.9061085  48.6705446  40.3994465
  63.1359941  49.1601896  41.8130875  66.0043151  53.6171661  45.8897448
  66.5452738  54.0209637  46.5683746  65.5154897  52.9337368  46.3482237
  83.2134652  18.0948567  63.5727167  82.6219586  17.4546146  63.1771898
  83.0830708  17.9911029  64.5152998  60.9252077  27.1777892  64.6452475
  61.0083228  27.8341746  63.9535236  61.8243200  27.0155096  64.9307251
  11.1119698  64.1559009   5.0993776  11.2939941  65.0226120   4.7361802
  10.3682088  63.8341145   4.5899629  21.4990258  16.8940890  58.8579750
  21.9976759  17.6805234  58.6363888  20.5831933  17.1611905  58.7796211
   0.4060702  68.9686159   5.9238099   0.0652509  69.5615415   6.5935230
  -0.2758260  68.3045654   5.8223771  59.4262635  67.6501040  16.7531680
  59.3401348  67.0192389  16.0384464  60.0148713  68.3222679  16.4097022
  49.0295302  69.4836096   6.1745977  48.7759243  68.9293460   6.9126415
  48.7245761  69.0079431   5.4019594  30.2655244  60.0995064  68.1928682
  30.9765434  60.1276016  68.8330984  29.6047187  60.6973219  68.5424089
  46.5765572  13.9975595  67.8746367  46.3671970  13.1942511  67.3980951
  46.3096428  13.8177395  68.7761116  27.9495549  13.1609666  33.5921860
  27.2461653  13.6672151  33.1857514  28.1820178  13.6598349  34.3753362
  41.1551582  42.1516320  11.7254638  42.0788859  41.9075967  11.6671085
  41.1538731  43.1054507  11.6450881  24.1240025  61.7808008  50.4637909
  24.4618297  62.6495934  50.2462864  23.6501241  61.9069815  51.2858295
  75.9089357  29.4220304  40.0030184  75.4752117  29.0503883  40.7711315
  75.7710451  28.7733150  39.3128085  40.5146574  78.3780793  18.9508914
  41.2489139  78.2645396  18.3473968  40.8995389  78.7982945  19.7200012
  34.5624637  38.2213015  10.6976318  35.4013150  38.6666625  10.8168506
  33.9352499  38.7582719  11.1818790  54.5535183  26.3602996  65.9112024
  53.9322329  27.0483637  66.1495399  54.0251732  25.7106757  65.4474449
  29.9310136   2.2196203  46.0352230  30.1721573   2.9729089  45.4961157
  29.5426869   2.6025581  46.8218565  16.9116759  36.3493609  24.6882772
  17.5114775  35.6943703  24.3312645  16.5455282  36.7839313  23.9180064
  40.7369791  76.4682345   5.3562879  40.5331026  75.5435828   5.2159881
  40.8423602  76.8266634   4.4750070  33.5647058   1.0846704  55.8346224
  34.1243076   0.6509068  55.1904774  32.6978374   1.0973585  55.4289007
  14.4876710   1.8860716  18.3540820  14.0235654   1.2419027  17.8194045
  15.3637640   1.5172762  18.4667301  26.4259112  37.3567883   6.9358348
  26.0792327  36.7642857   7.6029062  27.0136618  37.9402218   7.4158191
  31.6077042  37.0800638  47.2377729  30.8758378  36.8795657  47.8212166
  31.6757536  38.0346227  47.2582245  16.9471765  51.8282986  67.7108812
  17.7223659  51.2682247  67.6704693  17.2269833  52.6535034  67.3146820
  78.2542372  24.9646354  63.5439920  77.8253001  24.4681454  62.8470421
  79.0452546  25.3163505  63.1355572  65.6190168   9.8900308  55.1701498
  65.4496561  10.5983152  54.5489502  64.7932731   9.4079580  55.2146912
  71.4017528   4.5597622  42.7227783  71.4762718   5.0261188  41.8901968
  72.1304232   3.9390999  42.7157021  71.5745230  10.8779617  63.9559049
  72.0318611  10.2591511  64.5252473  72.2673852  11.4370199  63.6043025
  32.1425622  48.8239376  40.0493049  32.5511425  48.9273326  39.1898918
  32.3549842  47.9275231  40.3092098  58.4656345  59.9182753  11.5627956
  57.7768694  59.5066635  12.0847225  58.5274111  59.3753485  10.7768916
  18.0479741  23.8331771  66.1437654  18.7198722  24.1571641  66.7436123
  18.5149336  23.2324576  65.5629730  70.6837784  71.5031699  25.5853175
  69.8061739  71.3312797  25.2439975  70.7731282  72.4554495  25.5477046
  55.0485391   1.9644445  12.1288204  55.8018722   2.3560852  11.6868591
  55.2922664   1.0467285  12.2497653  48.3358383  26.6087580  47.0082235
  48.9741087  27.0400214  47.5764275  48.6686420  26.7519259  46.1222363
  41.5710901  48.3348308   8.4094381  40.8006631  47.8781656   8.0716037
  41.7971097  47.8626929   9.2108297   0.2090843  47.8677654  55.5755091
  -0.0460907  48.7902260  55.5618572   1.0997162  47.8707933  55.9262180
  47.7471352  15.9430575  54.4442511  47.9720449  16.7490971  54.9089527
  48.5497379  15.4219270  54.4663715  77.7640808  16.8949246  57.8981352
  77.9583532  17.7974606  57.6453114  78.4526050  16.3761675  57.4821329
  25.1397269  40.3562250  25.6976413  24.3984540  40.0823092  25.1575374
  25.1855718  39.6993221  26.3923454  31.3530993  33.7340689  44.6915770
  31.8828845  33.3698821  43.9824057  31.9372153  34.3488622  45.1355028
  34.3860743   8.2152075   6.9654607  35.2572344   7.9840320   7.2877502
  33.8125084   8.1021637   7.7234029  34.3766807  69.1330198  41.8210887
  35.0630133  69.7902517  41.7060851  34.4066482  68.9159397  42.7528667
  44.2056942   4.1886258  65.0837851  44.9506903   4.7630772  65.2604818
  43.9424133   4.4060296  64.1895533  31.1842911  60.0594382  13.1220912
  31.7810907  59.3161015  13.2087802  31.6059922  60.7638244  13.6142730
   5.9981447  38.1017375  62.8673029   5.1027441  38.3847833  62.6818991
   5.9487712  37.1459436  62.8831434  12.5074045  19.8293966   6.2358140
  11.7298452  20.2988237   5.9336948  13.2204429  20.4608625   6.1406802
  33.4813701  60.2152638  15.4427146  32.7408190  60.3532986  16.0332774
  34.1910862  60.7324342  15.8235931  84.4124387  10.0992435  14.7313117
  83.6011598  10.4077905  15.1348686  84.8486660  10.8964485  14.4306468
  63.0238830  62.5141172  12.3889922  62.3789560  61.8340139  12.5833034
  63.4670698  62.6692681  13.2231044  63.0006634  65.2284340  31.9359111
  62.6276599  64.3732599  32.1498584  63.3005916  65.5758504  32.7758979
  47.0195447  68.7755994  22.5081539  46.1060046  68.6884813  22.7803420
  47.0278882  69.5462970  21.9405460  16.1490524  26.5426278  40.9668636
  16.6892624  27.1414208  40.4512596  15.3581262  26.4210272  40.4416227
  71.4663811  77.8680573  55.8813572  72.2189219  77.3861883  55.5382586
  71.0421367  77.2543232  56.4810038  71.3262934  49.8573971  54.6759319
  71.9231004  49.9380207  53.9319229  71.8602020  49.4718313  55.3705645
  73.7509524  54.6054784   9.3941163  74.3573557  53.9103905   9.6497726
  72.9719960  54.4524435   9.9289417  32.7499914  37.2875953  52.8039455
  33.5616970  37.7793002  52.6790905  32.5108528  36.9929671  51.9251776
   7.7605820  26.4100146  43.1997871   7.2129029  25.6393361  43.0503464
   7.5758457  26.9830704  42.4556684  52.9955708  51.1210648  16.4766216
  52.6309453  51.6411988  15.7605647  52.2579705  50.5999915  16.7938899
  34.4260287  16.3184214  56.5326452  34.7198725  15.7158089  57.2158337
  34.7763729  17.1691430  56.7967749  59.2675066  19.0249681  59.1243458
  59.5829296  19.8597777  58.7781763  58.4770107  18.8389099  58.6176634
  32.1783455  60.2543573   1.2711810  32.7695834  60.9922795   1.1223888
  32.6076331  59.7371332   1.9526672  69.8466479  46.0835723  19.7587108
  69.1893183  45.4427634  19.4875717  69.4699417  46.4996968  20.5340576
  33.9825916  21.7882752  65.1012230  33.3358002  22.4591589  64.8825741
  33.9450431  21.1719656  64.3697977  30.6749010  65.1989126  39.0339088
  30.9980369  64.3954563  39.4416761  31.4234185  65.7952118  39.0534449
   9.4053632  46.0699177  31.7503262   9.5308113  45.1528502  31.5064240
   9.1595495  46.0403728  32.6749516  42.3695326  23.5582662  61.6980934
  43.0076504  23.7296987  61.0055256  42.3535967  22.6045728  61.7783737
  48.3051449  12.8244627  43.3179903  47.4060470  12.9789484  43.0281782
  48.7251073  12.3909295  42.5750780  15.7189691  23.7806463  37.8279710
  14.8096967  23.8231611  37.5319195  16.2355578  23.8407183  37.0243812
  75.1951068  41.6015675  24.7062301  75.3427332  42.4924235  25.0237369
  75.7090562  41.0491300  25.2952098  41.6630220  38.5512543  50.2817965
  41.6030121  38.2464504  49.3764067  42.1967840  39.3442965  50.2326536
  13.9960265  31.3841963  42.4283123  13.5536814  31.0325003  43.2008839
  14.5779014  30.6793928  42.1438742  39.3042301  60.4960350   6.3343524
  39.0614103  60.9775595   5.5435275  39.1691982  59.5763938   6.1057567
   3.6614573  19.4201040  58.1950808   4.2165399  19.3771410  58.9737177
   2.7678445  19.3755674  58.5352373  24.0597320  38.9545417  27.9140496
  23.4197450  38.7952709  27.2203064  23.7607169  39.7603416  28.3353686
  26.8723249  16.5796995  40.1891279  25.9480023  16.5599346  39.9412084
  26.8757224  16.9503391  41.0716534  47.4703299  78.9554505   2.8883647
  48.3451580  79.3119029   2.7339315  46.9871913  79.6744565   3.2955980
  12.1852362   1.0754142  68.8599205  11.3216996   0.9110903  69.2387819
  12.5706863   1.7457606  69.4240999  34.3398976  24.0353966  34.1730165
  34.2202306  23.1759572  33.7689424  35.0192142  24.4555593  33.6455488
  44.1507435  24.4432330  47.5695324  43.4959555  24.0408635  46.9989300
  44.3743134  25.2660513  47.1345377  28.4031320  53.3015060  65.6959629
  27.7494335  53.1078005  65.0241089  27.8991771  53.3745527  66.5064764
  85.1520232  60.9217834  30.2117682  85.2960174  61.3139391  31.0729957
  84.2019600  60.9393263  30.0964260  10.4589427  11.3911021  48.8400745
  10.0295508  11.8366587  48.1097794  11.1461484  10.8661664  48.4296799
  47.2907757  66.5613083  16.6022109  46.5370416  66.0313133  16.8614864
  47.5537144  67.0124010  17.4044704  48.1386757  47.2461939  64.5583153
  48.6717081  47.3683167  63.7726974  47.2374201  47.2307348  64.2362452
  28.9423704  26.7811871  62.1304798  29.3732381  27.0903111  61.3335943
  28.2292747  26.2249827  61.8168545  67.0603238  51.3113789  14.6261596
  67.2371398  50.7803837  13.8496208  67.8402268  51.2060062  15.1710319
  19.4832337  37.8545737  44.9461365  19.1372991  37.7057791  44.0661240
  20.0964308  38.5822368  44.8425722  73.2310074  60.9777097   2.7348804
  73.5007017  61.7577676   3.2196521  74.0055959  60.7296447   2.2301912
  77.2135441  60.3393130   7.5184345  76.7172115  59.5298688   7.6396226
  77.4459593  60.6128816   8.4057760  13.9685535  51.9071245  49.7982073
  14.6643639  51.8508196  50.4531193  13.3320701  51.2448263  50.0674343
  58.9289628  60.5793933  43.9901065  59.2648326  60.6174211  44.8856353
  59.6968519  60.7327298  43.4395885  13.8657284  35.2861452  64.0182972
  13.6463737  35.3631926  63.0897570  13.1224072  34.8210454  64.4022083
  34.9724189  47.6331562  14.4060134  34.1214315  47.2386879  14.2150783
  35.5633918  46.8877739  14.5127200  14.7940791  10.4575980  48.8970089
  15.7052696  10.7282019  48.7841463  14.7841275   9.9928886  49.7337770
  27.8311153  75.3622512   2.1928453  28.0218822  74.8313789   2.9661607
  28.0221894  74.7854213   1.4532565  15.4298258  28.2247162  45.6121302
  15.1227272  28.5515738  44.7665024  16.3447464  28.5022497  45.6582546
  10.3029287  27.9510045  55.2037573   9.6653724  27.6280165  54.5670176
   9.8837191  27.8136349  56.0532427  13.6187148  21.0738182  61.9795418
  14.1337621  21.4557719  61.2688589  12.7249014  21.3748837  61.8161774
  80.6726538  55.5642656  26.1654281  80.4592787  55.9346346  25.3089618
  79.9293219  54.9982349  26.3735198  57.3462453  32.6765245  17.1139335
  58.0364199  33.2993454  17.3419284  57.7928036  31.8312544  17.0656394
   2.6205640  77.0489887  25.8968925   3.1309419  77.8497390  26.0175227
   1.8226771  77.1946601  26.4052009  58.6995792  55.0229216  60.6197405
  58.4010601  54.1415882  60.8441734  58.2973480  55.5874062  61.2798929
  34.3030768  71.1560206   5.9082031  34.2513727  71.9375471   6.4584493
  35.2242445  71.1029271   5.6535196   9.2527151  12.2146547  29.7885132
  10.1363516  11.8710089  29.6568871   9.3035805  12.6963723  30.6140971
  19.0282714  21.2260294  50.8656168  19.6333134  21.1777377  51.6057682
  18.9221179  22.1634626  50.7038069  10.1226473  39.9983025  33.2896733
   9.4889086  39.9224567  32.5763321   9.9401939  40.8519506  33.6823916
  44.5025635  22.0919561  67.1112013  44.5603943  22.7278185  66.3980579
  44.3458223  22.6220703  67.8926373  80.6731354  41.7341572  37.5262451
  80.1718603  40.9278690  37.6481246  81.5875565  41.4613445  37.6013469
  17.8330779  42.9060650  17.6929116  17.1372163  42.4337673  18.1500125
  17.4521601  43.1312370  16.8441284  21.0732293  44.5601416  49.0891171
  21.5164900  43.7208223  48.9654398  21.3408899  45.0857353  48.3352375
  27.6280880  47.4989176  62.0277357  28.5347223  47.3775434  62.3097181
  27.3583269  46.6368675  61.7109919  20.8904171  67.8841925  28.5376954
  21.3500428  67.0518589  28.6481452  20.5390000  67.8475285  27.6480913
  24.3824148  41.6017723  65.9544277  23.9499807  41.3306713  65.1446486
  24.5139432  40.7873964  66.4399433  41.1144257  23.5061550  51.7107058
  40.3072643  23.7498236  51.2575531  40.8788300  22.7299714  52.2189045
  75.0788758  24.8174709  22.1958637  75.6603561  24.1256994  21.8803214
  74.5046494  24.3796104  22.8241729  56.7838852   5.3621382   6.5836191
  56.3902637   5.0899214   5.7546472  57.4305043   4.6831268   6.7761182
  42.1907925  76.9299440   3.1514930  42.8962110  77.0566229   2.5170087
  41.4625811  77.4464730   2.8063297  19.0325754  22.4526934  14.0966033
  19.6859865  23.1476537  14.0171336  18.2501625  22.8959481  14.4246101
  29.7360130  44.1203711  15.4915809  30.4306539  44.1761387  16.1477756
  29.6001903  45.0248046  15.2091216  36.4366269  14.6461225  32.3597741
  35.8233166  14.0308547  32.7616811  37.1358800  14.0935802  32.0105290
  27.8173280  13.4268665  62.1968603  28.5683799  13.3256996  62.7816010
  27.0731544  13.1035089  62.7046776  46.7052794  38.3601975  45.6280851
  47.4799919  38.6096978  45.1243019  46.9222927  38.5911870  46.5312862
  47.8975355  60.5271415  11.9266223  47.6119028  60.5079846  12.8400039
  48.5369598  61.2385253  11.8904971   3.5571564  63.3558140  42.4941778
   2.9575766  63.1955097  43.2228994   3.4469451  62.5965140  41.9218588
  82.5986359  11.7697424  55.7932567  81.9686935  11.2329763  56.2741851
  83.2923196  11.9509643  56.4274501  77.8844709  57.3033295  42.9233360
  78.5217042  57.4449787  43.6234093  77.0336909  57.4123631  43.3482075
  56.9207822  67.5878243   0.8876371  56.1444818  68.1246976   1.0468768
  56.6823875  66.7196588   1.2127256  72.2928891   7.3617786  12.4372100
  72.3957274   7.1726269  13.3698844  71.6436706   6.7269892  12.1342468
  14.1281413  80.0093631   6.7669296  13.4389089  79.8191313   7.4033260
  14.0427994  79.3201164   6.1082267   5.7825720  20.0014710  56.3769388
   5.0918096  19.9446738  57.0371294   6.2613851  19.1767776  56.4597082
  51.2401115  65.3543262   4.8070573  50.6523787  65.8377246   4.2264270
  51.4624916  65.9793023   5.4971217  44.0477977  33.7542576  10.1378059
  43.1608794  34.1027254  10.0473689  43.9277301  32.8965038  10.5453300
  50.3912810  16.7153639   0.6003045  51.2508009  16.3003057   0.6723117
  50.4948262  17.3608488  -0.0988818  52.5784861  77.8251318   7.9070758
  51.9726478  77.5781373   7.2083711  53.4357916  77.5369076   7.5937270
  77.7392060  58.4609747  49.3541050  77.3054224  58.4683657  48.5008717
  77.2847885  59.1348743  49.8596668  29.1225219  33.8434982  67.4553633
  29.2361951  34.1871381  68.3414888  28.5457349  33.0873418  67.5638676
  28.2869244  10.3466296  44.4446945  27.9569173  11.1667728  44.8116970
  28.7369084   9.9214631  45.1747465   9.3194884  17.1615732  68.8228607
   9.5319521  17.9916847  68.3962393   8.6722916  17.3933542  69.4889259
  33.9537621   1.7999752  51.9989586  34.2590165   1.0966793  52.5720453
  32.9990625   1.7411260  52.0352125  33.9308475  74.0138725  19.7664165
  34.2758213  73.2697539  19.2729472  34.6252416  74.2315153  20.3882503
  26.4849353  39.3618011  50.9518576  26.6181016  39.4520164  50.0082684
  27.0197988  38.6071587  51.1981583  26.6313314  29.0325570  51.9731998
  25.7400680  29.3648601  52.0802498  26.6324306  28.1958318  52.4380922
  48.1707001   0.0244358  61.7728329  48.7304592   0.7576923  61.5174198
  47.3587418   0.4351183  62.0699835  24.7824192  35.1751304  62.6364517
  25.1448846  34.8061371  61.8310356  24.3168020  35.9613562  62.3513556
  54.8240484   1.2977785   5.4072809  54.6974918   0.6306928   4.7325849
  54.0593533   1.2108940   5.9764242   4.1480714  49.7389507  62.1832037
   4.7113907  50.4151440  62.5595903   3.4296530  49.6498251  62.8094292
  26.5954113  38.8108420  38.8726830  27.4158311  39.1114450  39.2635560
  26.1613798  38.3228278  39.5724630  77.4229752  73.2896642   2.7217101
  77.3690354  72.4017791   2.3681831  77.2429549  73.8572244   1.9722461
  81.8961594  45.0408792  40.4997635  82.2419038  45.8168316  40.9408903
  81.1221144  44.8007584  41.0091066  83.8297234  17.5049126  37.9322243
  83.8061975  16.7988646  37.2863340  84.0483169  18.2865453  37.4247813
  20.5321360  32.6769710  62.7303743  20.2476048  31.7859435  62.5270414
  21.2663412  32.8352308  62.1369696   5.5877209  59.0758896  35.0486469
   6.4680362  59.3378830  35.3181577   5.2484447  58.5766268  35.7915235
  29.5808887  40.4791069  60.6989717  29.8768425  41.3768101  60.5480623
  29.2990279  40.4704189  61.6136932   2.4678120  46.9788122  56.8459511
   2.7148554  46.7237043  55.9570646   3.1724489  47.5595951  57.1330261
  76.0428511  45.1722531  13.6522388  75.2516352  45.7085584  13.7030982
  75.7842671  44.4128005  13.1301307   4.3576161   5.2364820  26.8878555
   4.9033586   6.0105461  27.0265102   3.6474220   5.3272146  27.5231647
  14.2484760  18.2308245  65.2684116  14.9795473  17.6190650  65.3551102
  13.5342097  17.7016914  64.9133444  77.4284064  61.4541463  29.5278835
  77.3870598  60.6429462  30.0343131  76.8286549  62.0486669  29.9785137
  24.2852928  51.3226322  14.9941158  24.8269035  51.8766252  14.4319915
  24.8833569  51.0153834  15.6754016  67.3775023  41.4634466  56.5409851
  66.6621619  40.8515263  56.3675642  67.4280041  41.5084696  57.4957895
  14.4580984  14.5506430  63.3849478  13.9068949  14.1062951  62.7407742
  14.1658199  15.4618490  63.3623981  16.0563195   7.3257494  63.9867496
  15.8588541   7.6859218  63.1221628  16.6129231   6.5675849  63.8089561
  78.3950108  16.0010946  68.3663464  78.8412851  15.3732777  68.9346027
  77.5058186  15.6571209  68.2811928  28.9115930  10.1074517  47.3078489
  28.3517408  10.6532729  47.8600025  29.7641206  10.1218235  47.7428436
  30.9127550  60.5720405   8.8555002  31.7905651  60.6503109   8.4819269
  30.8941369  59.6965496   9.2420196  28.7376833   3.8068113  58.2193899
  28.8690424   3.5825944  57.2981405  28.9119458   4.7469437  58.2642841
  70.8541952  43.7647946  34.5516586  70.8034693  43.6847640  33.5991573
  71.2633025  42.9485748  34.8391437   7.9184008  29.5361733  47.4041653
   8.8137132  29.2130375  47.5053167   7.6576364  29.2492223  46.5290117
  65.7611171   5.2454561  48.3327102  64.9892757   4.6814293  48.3813857
  66.3898108   4.8433250  48.9320945  24.9209547  26.4092731  51.3823795
  24.4176912  27.0145488  51.9269848  24.9528837  25.5991769  51.8912554
  12.3175041  32.8734487   0.2612686  11.9055597  33.2364792  -0.5227900
  12.8263752  33.5993093   0.6223964   9.6699262  18.2495761  57.3542643
  10.4251027  17.8121948  57.7475071   9.7593945  19.1653585  57.6180267
   1.7263259  59.5263195  49.5767593   1.6091529  60.3622818  50.0280619
   2.3192462  59.0303898  50.1413202  35.3247762  15.0726116  42.2121620
  34.7505355  14.3069887  42.1948338  34.8036718  15.7532620  42.6380682
  78.5412203  51.1446468  35.3079700  79.3293892  51.4776115  34.8788356
  78.5533797  50.2034215  35.1342487  32.6782573  69.9359486  68.6193037
  32.5037731  69.4943331  67.7881813  31.9607605  70.5626015  68.7128067
  58.4239054   4.3466470  41.9384956  57.8029728   4.5308730  42.6432896
  57.9352140   4.5271483  41.1354828  73.4913785  74.1726194  59.8848677
  74.3288524  74.3344967  59.4505119  73.4926934  73.2324938  60.0648546
  56.8709165  29.1120028   9.0070367  56.0464412  28.6900377   9.2487401
  56.6219431  29.7699904   8.3579624  33.1887960  22.1270585  31.7029905
  33.5711741  22.8122211  31.1547494  32.5309134  21.7127943  31.1445904
   7.6759171  23.2176471  47.4506521   8.5238671  23.3052468  47.8860140
   7.3913527  24.1185665  47.2970247   6.9137780  10.7536501  25.1081752
   7.4380080  11.3506836  24.5743465   7.2793619  10.8361811  25.9889507
  43.4373665  36.9340158  61.2127209  44.0303135  37.4735880  60.6897449
  42.8812647  36.4958501  60.5685186  52.1272527  68.9689831  19.0495109
  53.0061995  68.7248854  18.7595176  52.2510730  69.2950038  19.9409293
  48.6057377  30.6647754  64.2919207  48.9123869  30.9293699  63.4246349
  47.6556635  30.5944777  64.1988993  21.1287110  73.2748465  14.6505164
  21.5867155  73.1473140  13.8197421  20.2149283  73.0679683  14.4544696
  27.1124077  27.0985723  54.0086746  26.2036109  26.8092275  54.0899181
  27.6260352  26.2925982  54.0618420  67.4175618  38.4751266  12.7329921
  67.8090523  37.8594679  13.3526134  66.5462146  38.6508364  13.0881118
  82.6014197  18.5124993  50.1223087  82.2511667  17.6596498  50.3796053
  82.2451687  19.1224945  50.7682371   2.1057420  54.6788708   2.1394634
   1.2827973  55.1674179   2.1571588   2.7690702  55.3174810   2.4010085
  30.2759411  61.9668178  18.9316654  30.6603538  62.0983605  18.0649757
  30.5271502  61.0750584  19.1722679  40.4422903  52.6160240  68.1313562
  41.3737822  52.8362989  68.1257486  40.3973389  51.7769766  68.5898352
  83.2201097  12.8217548   1.9763517  82.6098464  13.2029718   1.3450956
  83.3995865  11.9450659   1.6365909  26.7315761   4.8140997   3.3878421
  27.1826402   4.1844076   2.8254747  26.1681978   4.2770475   3.9449882
  84.1824035  28.4848738  54.9096823  83.4630051  28.7002182  54.3161154
  84.6159045  27.7367234  54.4990969  79.6480690  52.0075134   9.8433542
  79.7296845  52.5204579  10.6473827  79.0869414  52.5373820   9.2771339
  21.8967342  37.4259806  47.9700375  22.7462626  37.2196174  47.5802326
  22.1070814  37.9721308  48.7274694  80.2347838  79.5956568   5.9782314
  81.0489594  79.7619180   6.4533138  80.4842411  78.9902548   5.2800226
  57.6202618  79.9650888  14.1641521  57.0839940  79.7588138  13.3985805
  57.0948922  79.6749000  14.9098205  40.3287840  52.0052290  55.2735901
  40.3163242  51.8347311  54.3317842  40.1492596  51.1542749  55.6734419
  72.9401428  12.3119223  52.0773506  73.3245569  12.0102084  52.9004097
  72.0205432  12.4740922  52.2877550  27.8335071  36.4775300  60.7885456
  27.0551658  35.9442568  60.6271791  27.4990654  37.3705935  60.8711243
  28.0028534   5.9344828  66.3182163  27.2582722   5.3551382  66.1563730
  28.1830144   6.3361090  65.4682350  58.3799947  10.2132982  38.9017963
  59.0180252   9.8573440  38.2833671  58.4392768   9.6382183  39.6646785
   4.1266791  37.8585857  23.1754398   3.9972059  38.7485737  22.8477382
   3.3937851  37.7148146  23.7741279  39.3636394  44.3345261  69.5917606
  39.6394777  45.2492428  69.5331573  39.5900035  43.9610624  68.7399864
  76.5814874  11.9966453   8.9368152  77.2612999  11.9693846   9.6101236
  75.8413658  11.5297312   9.3246841  28.7287822  54.0294186  13.0633544
  28.8212677  54.8481933  12.5762271  28.5944157  53.3634381  12.3890781
  30.1608984   9.5344299  19.4373702  29.3505756   9.8029608  19.0043544
  30.4940502  10.3361076  19.8405361  12.6093197  45.7092285  66.7893934
  12.8284061  46.0443115  65.9199429  12.9817533  46.3508797  67.3942137
  81.3981854  11.6041841  61.8074989  80.6818329  12.1806612  61.5415096
  80.9854447  10.9579553  62.3804331  56.8476677  68.0789232  51.5639353
  57.6741982  67.7086306  51.2541533  56.4377117  67.3692799  52.0584774
  67.1677600  77.9813055  48.4021758  68.0149185  78.4246568  48.3574771
  67.2819578  77.3142199  49.0790653  60.9615577  21.3729662   0.2777528
  61.1397833  20.6507105   0.8800887  60.0505320  21.2450832   0.0133466
  65.9819375  69.5340208  10.8568096  66.7504465  69.7677950  10.3362607
  65.4322111  70.3173832  10.8374500  76.3355767  70.7920031   7.9077815
  76.4715992  70.1214031   8.5771322  76.2939774  70.3043584   7.0851659
  11.3855946  34.0169024  67.6640272  10.4977453  33.7229204  67.8678226
  11.6807044  34.4577932  68.4607458  17.7599585  43.2163715  56.0422707
  18.1313682  42.3865843  56.3418388  17.3962522  43.6152458  56.8327475
  78.6907160   9.7786838  45.6341171  78.6354774  10.3330493  44.8557472
  78.2656467  10.2897811  46.3228321  82.7056586  51.2880007   7.0308017
  83.0930554  51.5267901   7.8729009  83.4557282  51.0968022   6.4677095
  60.3735683   6.0950369  12.5533008  60.6340159   5.2316898  12.8742790
  59.4768629   5.9739870  12.2410487  20.3952122  37.4591994  34.4814897
  19.8897564  38.2713652  34.4478679  21.2766147  37.7141738  34.2088199
  61.4448129  71.2934188  26.5827083  60.5795800  70.9113292  26.4357089
  62.0576726  70.6095103  26.3126945  11.3169909  44.8583603  52.5510979
  10.3673446  44.9764824  52.5723457  11.5270460  44.4547415  53.3932352
  39.8556590   4.9943805  49.8369646  40.6483078   5.2079082  49.3446779
  39.1401458   5.3257865  49.2943382  42.4234163  36.0867203   6.4714526
  43.0442904  35.4156346   6.1879205  41.5691339  35.6573896   6.4255189
  26.4528835  41.8942515   0.9700202  25.7988863  42.4816034   0.5911588
  26.0701536  41.0212789   0.8824539  45.3420162  53.6807203  63.3875275
  45.9356928  54.1620827  62.8112745  45.5745316  52.7614117  63.2569981
  21.8885064  30.1443982  69.3204641  22.6650786  30.4201818  68.8335228
  21.4851069  30.9623146  69.6111774  51.8879115  40.9130974  16.4590072
  52.6219736  40.3805460  16.7652320  51.1154925  40.5021191  16.8472003
  55.4660546  10.9470644  53.6693478  55.9207069  11.6312494  54.1606855
  56.1673247  10.3995981  53.3161736  58.4590950  15.7560438  13.1341171
  58.6329661  14.9675602  13.6482047  58.5959963  15.4851145  12.2263240
  83.0908320  46.1238140  12.0678710  82.6288293  45.5351299  11.4710235
  82.4034450  46.6780323  12.4374389  52.4070358  31.6511846  62.4045849
  52.9113579  32.0989013  61.7252922  51.5533733  32.0840502  62.3935986
  59.0191884   8.3474964   7.8378391  58.7447355   7.5245613   8.2424211
  58.4065975   8.4741968   7.1133327  83.6538447  31.8586683  57.2275162
  84.1057260  31.0154772  57.2600985  83.8186729  32.1847153  56.3427830
  10.9374166   6.9049102  65.8767557  10.7763112   6.4014959  66.6747856
  11.8817925   7.0610553  65.8786201  40.1418543  29.7715855  61.0947227
  40.3937483  30.6545568  61.3651752  40.9717417  29.3039107  61.0009432
  50.2288411   6.2481731   1.0219383  50.8497939   6.3170809   0.2967452
  50.3011594   7.0857662   1.4795875  78.0350481  80.1851992   9.6213006
  77.3689352  80.4835133  10.2406024  78.8399874  80.1423935  10.1375102
  48.7803268  40.0859022  64.7506428  49.2575550  39.8740745  63.9483881
  48.8531780  39.2971301  65.2880144  74.6995936  10.5784839   5.4847812
  74.7856472  11.5073675   5.6992530  75.4981492  10.1782554   5.8288144
  82.2053992  58.7286381   4.6733140  81.3699900  59.1063468   4.9483775
  82.3183762  59.0284113   3.7713146  72.6212893   4.1713041  27.7756786
  72.3904000   3.9021057  28.6647510  73.2996509   3.5519642  27.5064563
  61.5147220  45.7653693  17.6209163  62.1379458  45.4072426  18.2530307
  61.9913565  46.4750902  17.1903896  75.4901791  42.4182558  57.5231552
  75.8929920  42.0362997  56.7433596  76.0769224  43.1330776  57.7701139
  15.2383506  33.9828706  69.1721010  14.9514437  33.7006474  68.3036137
  15.7127810  33.2297134  69.5240974  15.7568371  51.9157219  38.1394100
  15.6247401  51.1920452  37.5269771  16.6256917  52.2553635  37.9250145
  28.6700511  31.0732770  42.2966480  28.8010073  31.9758964  42.5870991
  28.6447597  30.5625701  43.1058264   9.9805570  22.9791689  60.3749657
  10.8507979  23.3593440  60.2550554  10.1487470  22.0829296  60.6659985
  74.8529217   1.4559072  20.4846858  74.3170045   0.8081621  20.9423351
  74.5243798   1.4464897  19.5856857  10.6089568  20.9386516  55.4062891
  11.1395442  20.1995683  55.1088619   9.9149013  21.0141134  54.7514439
  12.6764882  60.9885788  36.7250156  12.6549208  60.1125193  37.1100926
  12.9163265  60.8421612  35.8099890  17.1034098  29.6952558  68.5039043
  16.8268335  28.7825584  68.5858822  16.8209064  29.9532437  67.6264811
  57.4595362  24.9310255  58.3803034  57.2896820  24.0473676  58.7066936
  56.6567475  25.1745248  57.9193592  42.6257372  24.2865610  56.7300892
  42.2345734  23.8556337  57.4900389  42.9959965  23.5710120  56.2132406
  25.9625577  56.2443272  19.0984344  26.6256424  55.6399814  18.7647914
  25.2961223  55.6778232  19.4872379  31.2969494  56.2763309  57.6078510
  31.5588522  56.8198490  58.3509731  31.5718079  56.7745066  56.8381071
  15.6202281  49.0744829  46.3029289  14.8400104  49.0438843  45.7492542
  15.5082309  49.8648453  46.8311453  50.5960703  50.0153017  59.9083662
  50.1481771  49.2002726  59.6817684  49.8908997  50.6196976  60.1400518
  64.6668826  64.0447001   6.8997716  64.5989906  63.5667042   7.7262973
  64.8868667  64.9397473   7.1580886  60.9205745  25.6501812  68.4860038
  60.5515427  25.4381174  69.3433666  61.0959996  26.5902895  68.5266399
  38.9484726  63.7692861  31.7243957  39.5180105  63.0326013  31.9460964
  38.4772216  63.4809236  30.9427261   0.7929288  51.7800188  67.7228022
   0.8042644  51.0990143  68.3953619  -0.1114967  52.0933485  67.7144337
  37.4425745  50.3936195  64.1580391  37.3390317  49.8460770  64.9363136
  37.0219827  51.2215853  64.3900108  34.5032588  17.7173704  28.0032920
  34.3381158  18.5675567  28.4109020  33.9541236  17.7169317  27.2192764
  30.0601101  47.3552990  63.3013630  30.9202385  46.9354725  63.3140707
  30.2511716  48.2907724  63.2334280  60.8126116  48.7702560  58.6260366
  61.0783577  48.2724333  59.3992043  61.6012430  48.8116884  58.0851364
  23.3005738  27.4554968  61.2360716  23.1060910  27.7564669  60.3484774
  24.1574740  27.8330278  61.4346266  31.0811830  34.8246861  58.3243847
  30.6626296  35.6812787  58.4097862  31.3381505  34.7743940  57.4036932
  43.6253357  21.9101071  48.8829899  43.0688334  21.8421817  49.6588230
  43.3148861  22.6961851  48.4336233  35.4882073  18.9064014  57.1613264
  35.9619689  19.5999932  56.7022943  35.5611992  19.1386616  58.0870485
  18.3611214  39.7398615  66.1518812  17.4357033  39.6487451  66.3788843
  18.8236773  39.2474747  66.8299866  28.6830793  58.5785071  13.5345554
  29.3337220  58.0198673  13.9597797  29.1997549  59.2040936  13.0266952
  36.3863503  65.6045989  33.3823966  36.1161988  65.7673458  32.4786472
  37.3392688  65.6937603  33.3672809  23.1833553  46.7551470  42.3876190
  22.5118923  46.7238379  41.7061615  22.8113651  46.2543249  43.1135893
  66.0587608  72.8129415   1.2956762  65.7643401  73.6537770   0.9456109
  66.5172421  73.0378751   2.1052598  83.3613774  56.2753630  45.1595163
  83.6253548  55.8100128  45.9532404  82.8667600  55.6287384  44.6560669
  44.8181732  76.0436288  34.6145535  45.4832251  76.5829680  34.1867089
  45.2053614  75.1689360  34.6496272  41.7735338  32.0338345  48.6647177
  40.8239460  32.1167541  48.5772896  41.9546556  32.2951174  49.5675802
  81.4530275   9.5391744  31.2779712  81.4779732  10.1827711  30.5698776
  81.6369126  10.0459999  32.0688819  73.2272933  16.1925548  17.8760146
  74.0627644  15.8444494  17.5645065  72.5698946  15.6007952  17.5101184
  32.5604153  44.7764301  67.7684307  31.6732335  44.7066832  67.4159050
  33.0640841  44.1252518  67.2800493   8.0030274  57.1884632  58.0030775
   7.1515810  57.5819778  57.8122425   8.3156049  57.6573992  58.7767839
  29.5322657  30.8480954  69.5049381  30.3952146  30.8080006  69.0926981
  29.0761018  30.0711155  69.1817474  53.8698017  65.3455619   3.4215259
  54.7817813  65.3569631   3.7120342  53.3603345  65.3414659   4.2318725
  84.6623801  44.7047758  30.2280116  84.7433512  45.6384325  30.4228354
  83.7188113  44.5448303  30.2099204  35.7856590  29.2682838  52.3795176
  36.2818128  29.6289754  53.1143427  36.4408141  28.8185263  51.8459272
  42.1497212  15.0722212   5.0875949  41.6151879  15.7927364   4.7538804
  42.8954909  15.0300688   4.4890308  80.9876178  29.3035597  12.8396415
  80.3338645  29.1751856  13.5269164  80.4748009  29.4158214  12.0392322
  52.9022728  47.5212822  17.6866626  53.6945616  47.6969252  18.1942558
  52.2498523  48.1230191  18.0451202  65.8542792  39.7806877  22.5200557
  66.3404999  40.5759758  22.7376556  66.4195667  39.0663713  22.8140449
  79.0838522  19.0960622  57.0110035  79.1363168  19.1206884  56.0555601
  79.4651413  19.9274147  57.2933197  16.7477822   4.0584427  60.8328104
  16.5818751   3.2757804  60.3073120  17.6399517   4.3172401  60.6019640
  63.9543275  25.9539932  16.4267158  64.0791986  25.9260649  15.4781055
  63.5395996  25.1176876  16.6384315  17.4954343  34.7876668  46.0652971
  17.2556138  33.8648510  46.1497402  18.4523702  34.7894669  46.0877132
  32.0302916  25.6583858  54.5058918  32.9244089  25.9847212  54.6073484
  32.1327209  24.8081613  54.0782738  76.8633912  22.0654005  10.7907104
  77.1630738  22.9384607  11.0440635  77.5244425  21.7555374  10.1716565
  23.0619216  29.6021724  54.5222712  23.4626055  29.7337556  53.6629820
  23.2823992  28.6999249  54.7537231  23.3387891  15.3038734  29.1908264
  23.7643901  14.5235580  28.8355731  22.4284688  15.0401300  29.3249130
   0.7381745  40.6743145  61.0717010   1.4493477  41.2389469  61.3744402
   1.1489402  39.8191476  60.9444284  38.8837968  52.4804787  28.5775947
  38.4987437  51.6274504  28.3768176  39.7213231  52.4802605  28.1141471
  63.1672870  63.3078460   4.8839664  63.6679279  63.5672025   5.6574821
  63.1274306  64.0998081   4.3478345  35.3371811  37.1477747  61.7795992
  34.3921137  37.2808051  61.8529415  35.4736090  36.2414384  62.0556021
  79.3544518  50.7965724  39.9930381  79.7334849  51.3328377  39.2966270
  80.1056467  50.5189602  40.5173110  66.1176294  45.3490925  64.4974995
  66.7705077  44.6916199  64.7377348  65.4572600  45.2944374  65.1882648
  82.2499508  30.6464863  39.6362638  81.4727014  31.1883879  39.7721219
  82.9538271  31.2740993  39.4722795  71.2950979  24.4300455   3.8392925
  71.1377177  23.5905117   3.4072685  71.0079882  25.0845856   3.2026004
  12.3103487  29.9936032  69.5790529  13.0672836  29.7275186  69.0570545
  11.6987932  30.3640151  68.9426374  15.1635860  73.6316685  19.6912383
  14.4559060  73.0008129  19.5591735  15.5725442  73.7166266  18.8299846
  24.7924352  38.4971714  55.0376844  24.0649867  39.0544772  55.3141975
  25.5456948  39.0867138  55.0020313  60.4250664  15.0406641  20.6084155
  59.6676091  15.4737610  21.0020065  60.9685598  14.7846311  21.3535976
  75.8476102  52.7244759  47.6176453  75.0847191  52.4201202  47.1261215
  75.5679321  53.5541964  48.0043936  33.1422949  10.0409389  51.7612839
  33.7649488   9.5515019  51.2237120  32.2829413   9.7785556  51.4312840
  29.7822181   5.2995771   0.0839900  30.3862707   5.2526468   0.8250379
  29.5909301   4.3857998  -0.1273251  24.1522479  73.4381342  69.6736622
  23.7233329  73.9277267  68.9718294  24.8830867  72.9939222  69.2437983
   9.1262404   2.9358524  17.1913909  10.0624267   2.7860969  17.0596313
   8.9097134   2.4261850  17.9721546  64.5825624  79.5860767  59.0580750
  65.1158810  79.2145443  59.7607565  65.2174902  79.9656725  58.4506178
  29.6723167  29.2771143  35.1195907  28.9137165  29.4570297  34.5642661
  29.8927537  28.3640188  34.9354839  12.9442048  29.7092605  50.7385445
  13.4196174  29.4088936  49.9639511  12.8628039  28.9290690  51.2870979
  65.4481946  68.8821391  26.0381412  64.5702778  68.5229377  26.1664771
  65.9678327  68.5037617  26.7473983  81.6085336  14.1327137   5.4360341
  81.4057229  14.3557829   6.3445186  82.4844620  14.4905609   5.2913570
  29.7394649   9.7841829  12.9950523  29.9317352  10.5643028  12.4747848
  29.2136184  10.1077265  13.7265205   6.6416568  52.1730995  66.7471027
   5.9758914  52.2225475  67.4330616   7.0611286  53.0334234  66.7579889
  25.7360832   0.4724497  43.4927463  26.5911094   0.1678938  43.7967395
  25.3872196   0.9783357  44.2266464  38.3984447  19.0731442  64.9640179
  37.9448509  18.2349586  64.8749781  39.1211367  18.8917422  65.5648851
  83.0371891  77.0955042  34.6579646  83.7752568  77.6556496  34.4177055
  82.7758538  76.6784243  33.8370036  78.3710025  14.7684425   3.7675475
  78.1375168  15.6435675   4.0771865  78.1527350  14.7779745   2.8356170
  28.4660912  33.7241530  51.3195848  27.7606487  33.9130569  50.7007980
  28.5783553  32.7747393  51.2722635  79.9301159  68.6185789  66.6219568
  80.1241440  68.7042999  67.5553560  79.0960389  68.1498623  66.5927649
  40.9138368  61.4556722  15.2451228  40.8159672  60.8971266  14.4739723
  40.9425448  62.3457269  14.8941135   2.5716600  39.7532988  14.8493075
   2.2592153  38.8676739  15.0344491   2.4879414  39.8432565  13.9000285
   2.3822121  38.6640668  55.8286095   2.8456038  39.1534805  55.1489210
   1.4571117  38.7536430  55.5997038  13.4705822  24.0860075  13.0507373
  14.0268127  23.8390344  13.7895488  12.7986280  23.4050602  13.0186939
  79.4333575  30.3269380  27.5931644  78.5441301  30.0284141  27.7839279
  79.5616958  30.1209730  26.6672420  23.0069248  23.0943626   9.1672468
  22.5202600  23.4073013   8.4047126  22.4150506  22.4723762   9.5903920
  44.5882963  66.2132672  10.5377387  44.2551445  65.6423763   9.8454093
  45.2032672  66.7960910  10.0923633  59.6801026   0.2443594  19.4396591
  59.2928548   0.9543365  19.9517154  58.9752684  -0.0451714  18.8603401
   9.7007696   9.1534799   1.6677141  10.2906887   9.7129864   1.1625575
  10.2382485   8.4014314   1.9162511  66.0195623   5.2042145  20.7336234
  66.7285673   4.5759386  20.5964660  65.8864210   5.6062740  19.8752212
  13.6863816  36.5658164  51.3144588  13.1218839  36.6473794  52.0831728
  14.4063056  37.1744490  51.4803076  59.6863662  70.5537752   2.1139955
  59.0928208  71.0023359   1.5117263  60.2007400  69.9719552   1.5544032
  34.6111905  80.5355028   0.3926133  35.2972930  80.5333475   1.0600662
  34.0237992  79.8251299   0.6506395  20.4138683  47.1520988  17.6829337
  20.8207213  46.5417335  17.0679855  20.1429497  47.8931336  17.1409892
  64.6436821  67.4161915  10.3485822  64.6870290  66.8863348  11.1445808
  64.9209606  68.2891611  10.6265640  40.0405312  43.5998917  54.0659046
  39.3537188  44.2588997  53.9648008  39.5685649  42.7896023  54.2580223
   5.6441569  24.5797610  54.3076229   5.9818423  23.7326455  54.5984793
   5.6733906  25.1306367  55.0898743   1.3406919  20.4124880  45.6869125
   1.6041112  20.4449201  46.6065788   1.7000709  21.2139297  45.3064251
   2.9899041   0.3161091  27.9323100   3.5970680   0.4978985  28.6496162
   2.6933686   1.1796278  27.6448535  54.3560373  62.0664052  43.8280486
  54.3215286  61.8247012  44.7535896  55.2274858  61.7931251  43.5414695
  84.5173147  61.1091137  62.5432158  85.4507380  60.8983850  62.5198317
  84.4777079  62.0439959  62.3415804   8.1940931  36.4723659  64.7909546
   8.9972335  35.9627175  64.8979902   7.7306730  36.0411286  64.0729666
   6.2513319   2.6177067  29.6755885   6.0465876   2.6518673  28.7411594
   6.6570155   3.4641880  29.8629855   6.0509221  33.4011644  12.3550987
   5.9196559  32.4540848  12.3099326   5.4563419  33.7571424  11.6948127
  31.0830878  70.9951142  21.8668556  31.2928729  71.9069318  21.6648387
  30.4357432  71.0483913  22.5699519  35.8148646  45.0116825  68.9489555
  36.7231250  45.2101994  69.1767359  35.5984235  45.6387949  68.2589483
  26.6450540  16.5998405   3.2148885  25.7681076  16.5922254   2.8312921
  26.8627635  15.6752676   3.3331966   9.4966716  47.2728443  48.9902306
  10.1989096  47.7376747  49.4452286   8.9235705  47.9660368  48.6627007
  74.6849591  61.2782669  54.9403858  74.1720456  60.5679893  55.3259468
  75.4097891  61.4094353  55.5516529   7.7466315  33.5867286  59.0707827
   7.2394770  32.8872037  59.4827271   8.5774249  33.1736135  58.8355446
  44.9001980  51.9176722  66.3047600  45.7497168  51.8506670  66.7407179
  45.1126766  52.1473932  65.4001522  17.2142506  64.6349096  54.3751240
  16.3374782  64.4190884  54.6928120  17.0636046  65.0880241  53.5455275
  20.8506584  37.0795321  64.7507334  20.1124907  36.4875412  64.8952579
  21.5858841  36.6588640  65.1965046  45.6712638  78.3861880  20.7621669
  45.3189968  78.7528209  19.9511623  45.2139520  77.5517658  20.8662700
  73.9042698  73.1056909  11.9248390  74.5582043  72.4230007  12.0749664
  73.2877814  73.0106572  12.6508808  12.8243152  14.4440645  21.5741824
  13.0971090  14.8138183  22.4138831  13.5983459  13.9811415  21.2535381
   9.9843681  44.7119761  67.4860001   9.5663977  45.5423307  67.7141190
  10.9074390  44.9340153  67.3640585  30.2328587  37.4320245  58.8205004
  29.8383117  38.2868743  58.6478853  30.5779600  37.5028324  59.7105122
  29.3368769  15.5363321  60.9421682  28.6552000  16.1407804  60.6485891
  28.8882685  14.9443853  61.5459728  11.5631334   6.7411608   4.2840576
  11.2563244   6.1326879   3.6118507  12.1668569   6.2242311   4.8174762
  78.7901924  22.8303903  29.3847751  77.9822920  22.9030317  28.8765907
  79.4892571  22.9421467  28.7405395  39.9237919  61.7962122  67.7164316
  40.5678701  62.2114897  68.2899666  40.4372358  61.1987400  67.1727133
  58.1230198  64.5066837  39.7242927  57.5600945  63.7473849  39.8753261
  57.7760850  65.1818256  40.3074359   6.9067923  56.6146320   9.3160486
   6.1335174  56.9865459   8.8918304   6.7845551  56.8049473  10.2461385
  59.2482853  43.5387707  48.4764099  58.5137701  42.9284430  48.5413837
  59.1385889  44.1260386  49.2242813  42.6063399  70.4549984  17.4281787
  43.5428195  70.2853946  17.3258495  42.5548225  71.0928277  18.1400394
  74.3008566   7.8931135  28.5988832  73.4035063   7.5809896  28.7153697
  74.8440170   7.2175980  29.0049481  25.1886177  61.2324858  67.2206497
  26.0590029  61.3967562  67.5835228  25.2391100  60.3431225  66.8703461
  66.8311761  29.7278017  10.5767536  67.1859632  29.4187111  11.4103126
  67.0830343  29.0544123   9.9448156   4.2328790  57.0563126  67.2213602
   4.4472635  56.9993019  66.2902212   3.9559409  56.1711407  67.4580097
  80.9771191   9.5244684  59.9741650  80.4168259   9.0532579  60.5908251
  81.2719094  10.2952280  60.4591942  17.9248563   6.6328424  29.8083782
  18.4011737   6.2816900  30.5607414  17.1332733   7.0177788  30.1844692
  73.0988073  44.6605921  68.4588146  73.0761576  44.1000366  69.2343760
  72.2386789  45.0802469  68.4414005  67.6033545  53.4514332  59.7820616
  67.9109144  52.5453424  59.7568941  68.3978748  53.9767742  59.6872759
  85.0189398  23.6346477  10.3529262  84.4218204  23.9846605   9.6917390
  85.3254698  24.4053024  10.8308029  19.6149004  70.6501770  56.4827538
  19.0152764  70.8758116  57.1939325  20.0659990  69.8639011  56.7901850
  13.0199043  22.6438087   0.3229379  13.9408914  22.7074474   0.5758428
  12.8645507  21.7051071   0.2183627   8.0920259  53.7927383  39.2714881
   8.8282267  53.5843605  39.8466586   8.3900205  54.5484966  38.7652683
   0.5253034  42.7265758   3.3754348   1.3056045  42.2937633   3.7218952
   0.2123361  42.1404723   2.6864051  43.6933470  72.6034021  57.5540495
  44.5542717  72.5240898  57.9648399  43.6702681  73.4990978  57.2172546
  64.1181408  67.4207453  30.6288432  63.4921848  67.5725607  29.9207687
  63.7461387  66.6917018  31.1251735  37.9970204  69.9735383  20.6833267
  38.7683367  70.0202898  21.2482356  37.4798947  69.2529134  21.0432052
  41.9588757  49.0600538  55.3430271  41.8062115  49.2067242  54.4095325
  42.8194952  48.6428976  55.3823280   1.2484488  39.4201398  49.7187567
   0.9714020  39.3768859  48.8035488   0.4323971  39.5010257  50.2124643
  28.0829215  45.0783634  57.6833344  27.4726844  44.3481731  57.7865791
  27.6827979  45.7961321  58.1741905  10.1682154  10.9519905   5.7198095
  10.8865634  10.6343883   6.2669229  10.5627648  11.6374725   5.1806640
  34.2357532  18.5562939  23.6448860  34.8863403  19.0361112  24.1574764
  34.7425691  17.8955740  23.1728458  24.6420884  45.3878355  68.9180803
  24.8448801  45.8803272  68.1227446  25.2643800  45.7150507  69.5676279
  11.3545410   1.5110296  13.0509281  10.6807581   2.0793098  12.6776885
  10.8649365   0.8307213  13.5132026  67.2199545  23.4017319  15.5368423
  66.9576714  22.5127453  15.7758998  66.5687022  23.6784166  14.8922157
  39.0870944  12.0483297   2.9726266  39.0093509  12.0692152   2.0188188
  39.8352043  11.4749760   3.1394576  27.1010398  12.3007574  46.1306381
  27.7135803  12.5061788  46.8369150  26.3250758  11.9623842  46.5774250
  38.3063404  26.8593401   9.4402694  37.4791328  27.1583885   9.8178052
  38.3560554  27.3006910   8.5923480  56.6001569  79.4438461   8.5937452
  57.2861396  78.7890653   8.4636592  56.5868222  79.5921640   9.5392894
  14.7909490   2.7140516   4.6153879  15.2803747   1.9852203   4.2339467
  13.9014999   2.3763222   4.7204923  56.4998388  44.5783138  61.7279577
  56.2518740  44.1645288  60.9012032  56.7935514  45.4545498  61.4786148
   5.2098864  18.5814881  63.5297155   5.6427973  18.9664197  64.2917204
   4.8685950  17.7447796  63.8454199  17.4314129  67.0582962  60.9757805
  16.6373777  67.2924042  61.4563370  17.5876915  66.1417866  61.2034178
  77.9933927  11.9843382  11.0290527  78.2412026  12.9062742  10.9593772
  78.3171294  11.7135757  11.8881893  71.1592709  74.7566227  13.4237956
  71.7722308  74.8399667  12.6933383  71.2467562  73.8465456  13.7072276
  16.7983190  14.5018238  37.9342555  17.7446739  14.3960708  38.0315589
  16.5238658  13.7417215  37.4212741   4.0340285  35.0787763  40.7863235
   3.3896499  35.1602958  40.0832080   4.8547368  35.3778864  40.3949165
  34.2520801  23.2633394  12.9637336  33.3334104  23.0338234  13.1037235
  34.3459312  24.1290325  13.3612346   6.4727931  66.2276653  67.1114730
   5.5226379  66.3105563  67.1924877   6.6585498  65.3280596  67.3806094
  24.0484881  49.0632629  67.6803923  24.7339654  49.5599127  67.2335243
  23.6314940  48.5527134  66.9863510  19.2289310   5.0602235  67.0016050
  19.7110944   4.2717161  66.7526150  19.6406942   5.7619848  66.4973974
  10.3172294  62.8176826  20.4280090  10.2218954  63.1015915  19.5188617
  11.2284938  63.0136150  20.6458091  64.1545455  34.2680925  61.0738658
  63.9362965  35.0775141  61.5358543  64.6707872  33.7647194  61.7034244
  18.3344594  48.6496109   3.0954265  17.4338714  48.4274238   2.8591871
  18.7243215  47.8172058   3.3625364  11.1084382   8.1220716  14.7256183
  11.5894548   8.0970329  15.5527973  11.7471830   8.4380955  14.0865802
  25.1610414  43.9433235  17.1633624  25.1836483  44.2542213  18.0683803
  26.0138217  43.5292286  17.0309924  68.8082968  79.4364981  45.1789378
  68.6341702  80.3703264  45.2967452  68.1725489  79.1554693  44.5208454
  80.6021068  12.2464126   0.6096601  80.3406785  13.1527609   0.7722043
  80.6079934  12.1662229  -0.3441573  48.0746100  15.5374044   0.3982639
  48.0094496  14.7210115   0.8937358  48.9485011  15.8713764   0.6007718
  41.2388269  35.3233188  12.5845813  40.2893201  35.2225822  12.5173377
  41.5430442  35.3374428  11.6771221  77.3933970  73.9586572   5.6497764
  77.3078572  73.6234717   4.7572707  77.2753083  74.9045471   5.5627345
  26.7952871   8.0929130  44.1646194  26.9601488   8.0870163  45.1074934
  27.1359730   8.9365321  43.8671732  44.1972733  42.3370695  65.0182104
  43.4186840  41.9285822  65.3965902  44.9302244  41.8496943  65.3943491
  41.4953891  26.8078274  13.1747817  40.8130256  26.5951961  12.5380706
  41.0196392  26.9790357  13.9875411   2.1569972  57.5916425  16.2902450
   2.5526338  58.2269494  15.6935119   1.6904550  56.9831375  15.7172775
  12.3365346  10.1181454   9.9924611  12.9861776  10.3050989  10.6701373
  11.7564432  10.8795065  10.0002145  65.6030438  27.8693575   4.5245551
  66.5509126  27.7366251   4.5119476  65.2838830  27.2546619   5.1852464
  34.3470596  17.1832170  60.9632015  33.6174225  17.4178686  61.5366125
  35.0812518  17.7075185  61.2830496  36.0894433  21.0805935  14.0097045
  36.6671411  21.3993257  13.3162307  35.4065172  21.7478079  14.0780544
  62.2040736  79.4335393  32.0456981  62.4170123  78.7250284  32.6530742
  62.8144800  80.1350764  32.2725868   2.4627820   9.6081585  24.4502162
   2.6829068   9.7577852  25.3696727   3.0509297   8.9051050  24.1744804
  19.1930572  60.1553196   9.2402219  19.1227333  59.8741859   8.3279418
  20.0144235  59.7710079   9.5466422  39.5485059  15.3721947  22.8950214
  40.2765600  14.7512955  22.9205512  39.4602624  15.5998939  21.9694900
  69.9948190  56.6936058  16.6349506  70.7871888  56.8685764  17.1426582
  69.5286892  56.0276455  17.1403789  69.9022709   1.4876356  52.2835588
  69.1620194   0.8809175  52.2957611  70.3292643   1.3276090  51.4419508
  18.0621902   9.2151111   9.4420957  17.5621644   8.5988182   9.9772453
  18.6828987   9.6133655  10.0522994  12.1464006  10.0132793   7.0290565
  12.9292385   9.5012230   6.8261003  12.2516481  10.2574533   7.9485845
  11.5712142  43.5890961  63.5560846  11.6911352  42.8870344  64.1955853
  10.7270801  43.9787912  63.7836933  76.1789118   3.6941137  46.9284344
  75.9819018   4.3117990  47.6326227  75.3215014   3.3991804  46.6216946
  46.3608955   4.4063463  68.9916325  45.6082081   4.8836698  69.3407106
  45.9767460   3.7058820  68.4643650  79.2849896  40.8798164   6.0775089
  79.0926287  40.5155891   6.9415473  79.2069361  40.1353306   5.4809570
  18.6066238  18.7823337   7.3456764  18.3794967  19.6390671   6.9842243
  18.0428735  18.1673187   6.8764495  66.2460993  34.2022270   8.6713647
  67.0720778  34.3244594   9.1393899  65.6322423  34.7903675   9.1112565
  46.2811518  62.3585176  61.8731117  45.9881783  62.7645302  62.6889229
  46.6560650  63.0798244  61.3677502  28.5378210  30.2660412   2.9819345
  28.0472127  30.3133959   2.1613883  28.0905525  29.5890135   3.4896850
  13.7933171  42.9241467  57.8040218  14.4650519  43.1172276  58.4580278
  12.9650223  43.0640984  58.2629061  37.7128506  59.9759340  67.6621294
  38.1948996  60.6343794  67.1618176  38.2602167  59.1920328  67.6160812
  38.5793710  21.6406941  63.5203743  39.3261480  22.1569753  63.8237095
  38.6627913  20.8055592  63.9806223  46.6802143  70.0865964  27.1917438
  46.1860179  70.8873944  27.0164584  46.0102235  69.4170741  27.3298835
  40.7170617  10.7760038  60.1575994  41.3448428  10.8726301  60.8736897
  39.8974370  11.1237325  60.5090666  11.1196809  78.0317716   1.1664676
  11.7165141  78.5222582   1.7316675  11.6860347  77.4258689   0.6886005
  34.9826519  46.6969818   5.6572675  34.8814670  46.3134331   6.5284013
  34.1398517  46.5455192   5.2295112  18.8883591  54.8511362  55.7311249
  18.5355556  54.3974590  56.4965868  18.4025717  55.6751633  55.6961060
  18.4493136  49.3470049  64.0657711  19.1387177  48.7203503  64.2854404
  18.2237780  49.7573805  64.9006081  14.0372229  42.6607609  53.2243586
  13.9306700  41.9437456  52.5992441  14.9497163  42.9320478  53.1244040
  55.5616760  51.6932249  52.3360634  55.1681805  50.9786463  51.8352985
  56.4969540  51.4899492  52.3490238  18.0642168  36.0981411   2.8485965
  17.1224920  36.1409229   3.0146026  18.1540004  35.4591745   2.1415662
   2.3376957  17.7013630  26.5463638   2.4074666  18.5922712  26.8893623
   1.8319098  17.2290367  27.2076606  21.4165489  21.2286419   9.9499416
  21.0530273  20.4140419   9.6027850  20.8688919  21.4312452  10.7083988
  41.5283585  41.4850283  61.8723917  42.0196247  41.4447880  61.0518646
  41.6936111  42.3662853  62.2075224  14.3901960  38.8725418  13.5119819
  14.7910015  38.6341661  14.3478965  14.5084659  39.8204655  13.4513187
  13.8761954  17.6679124  56.5052223  14.5239501  17.1408834  56.9730759
  13.7229638  18.4210672  57.0757675  74.7466097  20.6898063  43.0473327
  75.2493058  20.0362390  42.5611495  75.4072616  21.2842363  43.4028911
   9.5159618  15.0199741  17.7874851   9.1490427  15.8822626  17.5923919
   8.7616078  14.4308370  17.7774429  64.9688546   8.8934892   5.4755639
  64.1054282   8.8667291   5.8878850  64.8831997   9.5483154   4.7826766
  23.7249271  17.5481695   3.0124473  23.0493967  17.0553821   3.4783315
  23.9181892  18.2901758   3.5854339  12.9725496   2.8544134  42.2839832
  12.2085277   2.2969002  42.1367359  13.1214992   2.8120226  43.2285785
  64.8644829  52.4324989  61.0857010  65.7462978  52.3508549  61.4489746
  64.9490738  52.1304035  60.1813698  80.1871631  30.7445902  21.5036201
  80.4350279  29.8807281  21.8330669  79.2320464  30.7593340  21.5649890
  26.1758685  22.9312134  42.3336267  25.6573510  22.6137304  41.5943193
  26.8298244  23.5072494  41.9377041  63.6166178  18.3868780  52.6226711
  63.4735762  17.8917398  51.8160725  62.7457415  18.6969270  52.8710222
  64.2737185  33.5553159  46.1053467  64.0077983  34.1161718  45.3766823
  64.8561870  34.1044798  46.6301107  83.0139086  25.1258987   2.8340959
  83.3589671  24.6207565   3.5702991  83.7562678  25.6509441   2.5349998
  44.1130972  52.9767036  50.9984779  44.4352961  53.4380245  51.7728186
  44.2032480  53.6108017  50.2871227  32.5688316  68.5849909  16.6440009
  31.8594943  68.9957456  17.1383190  33.0765574  68.1110148  17.3026275
  56.5733051  57.8815699  59.7418594  56.7422676  58.6942434  60.2185583
  56.4195967  57.2300720  60.4260778  43.0564157   4.8799366   5.2242040
  42.8657285   5.7450908   5.5866718  43.3697645   4.3708128   5.9717559
  20.9038011  23.0766434   1.9728565  20.4125062  23.8980144   1.9583749
  20.4336158  22.5055784   1.3653659  84.5730970  44.2183250  24.1224288
  85.3961156  44.0563625  23.6612987  83.9717338  44.5184559  23.4408759
  43.0022578  15.7710352  62.3002481  42.2020297  15.6136217  61.7991638
  43.6769157  15.2754964  61.8360186   1.0576550  11.1679119   0.6600665
   1.0019342  11.4908212  -0.2392960   0.1640550  10.8997339   0.8740615
  74.2537546  50.6912374  52.9549503  74.7500515  51.2794971  52.3858547
  73.4150124  51.1340427  53.0840683  67.8366028  78.9617328  21.1560535
  68.0085956  79.3133907  20.2825641  67.9122697  79.7180227  21.7378902
  21.6372577   4.0392631   0.7612085  21.7188589   4.9149793   1.1389589
  22.4475090   3.9151901   0.2669095   7.4259138  41.3993359  42.7433872
   6.8077493  40.7612133  42.3871517   7.3179930  41.3334703  43.6921978
  10.8157865  11.8855041   2.9512595  10.2156083  11.1407322   2.9147434
  10.2474228  12.6451105   3.0784988   9.6026719  76.4912367  46.1285305
   9.6609402  76.5015554  47.0838976  10.3381813  75.9458447  45.8495903
  84.5932315  16.3153356  31.8544292  85.3199456  16.9366068  31.8081760
  83.8226626  16.8597025  32.0160579  47.1636247  76.6390757   0.6279849
  47.3155283  76.2613134  -0.2383042  46.9725536  77.5612907   0.4569768
  72.6095473  10.6972303  68.8375616  71.9134032  11.3461103  68.7347412
  73.3189284  11.1733617  69.2691994  26.0632753  75.1817131  64.9318171
  25.9123421  75.2283049  63.9877415  25.5595207  74.4196081  65.2175856
  18.1338588   1.2569326  12.9544734  18.5216323   1.9353670  13.5072898
  17.8738252   1.7176431  12.1567535  47.4377481  31.7029661  16.4686488
  47.2734682  32.1370834  15.6315135  48.3916370  31.6854757  16.5462493
   2.6337676   7.0865049  56.4625788   2.2805648   6.8545904  55.6036854
   3.5778575   6.9537534  56.3771105  27.2622514  50.2284098  61.8424606
  26.4947867  50.1772118  62.4122047  27.4144220  49.3253756  61.5638924
  61.4886485  65.1842837  11.8960094  62.3565637  65.2730135  12.2898197
  61.4399969  65.8981733  11.2602233  73.5564839   4.6724691  63.1610537
  73.7721287   5.5638685  63.4351540  72.7216803   4.4852247  63.5903358
  41.6440097  38.1665176  22.8989791  41.9894115  39.0521044  22.7864456
  42.1005098  37.6456302  22.2382831  79.8316513  64.2870692   3.1820630
  79.1717326  64.9758486   3.2615613  80.6536566  64.7577099   3.0440950
  25.4472457   0.3521528  62.2923279  25.6151767   0.6514444  61.3987637
  26.2876369   0.0039568  62.5902128  34.4613338  68.2963991  60.3801489
  35.3166819  68.5221958  60.7457018  34.6093583  67.4728298  59.9153376
  74.8490797  64.2318706  18.7566757  73.8939225  64.1695837  18.7520599
  75.1293408  63.5682086  19.3869399  45.7978916  46.7208338  62.4841404
  45.6152058  47.0520592  61.6048527  44.9473572  46.7252207  62.9232407
  23.5085845  74.1138935  54.8268318  22.9392052  74.2963600  55.5743217
  22.9294801  74.1654253  54.0664291  51.1136627  59.9294949  65.9886837
  50.6428194  60.6098270  65.5073452  51.9567060  60.3283691  66.2040997
   4.4469253  43.5328239  12.9963874   3.9865533  43.9406532  12.2629260
   3.7741105  43.4181637  13.6675071  60.8911037  60.7742500  68.2848597
  60.9770107  59.9019432  67.9002428  60.2309322  61.2097883  67.7456808
  35.3091709  40.8161205  34.0760040  34.4472114  40.9082741  33.6700916
  35.5709163  41.7120022  34.2883968   5.9947604  77.9509163  48.6773586
   5.5320853  78.6690950  48.2456303   6.8716353  77.9660463  48.2938337
  63.1325041  31.6223898  66.6412592  62.1765934  31.5736093  66.6506958
  63.3902966  31.1208429  65.8678055  17.2706357  53.4718651  16.5986060
  17.3880378  53.1692451  15.6981277  17.5278465  54.3936008  16.5769672
  18.0226175  27.3501772   2.8791999  17.6163665  27.9985374   2.3040342
  18.5169021  27.8691477   3.5136937  48.0451441  55.3582478  49.5798302
  48.9551449  55.0802565  49.6840191  47.5563049  54.8141670  50.1972723
  56.6482340  10.1189890  64.5376015  57.3734080  10.2108469  63.9196110
  56.7419301  10.8654203  65.1294661  10.3209344  66.4648765  11.5611266
   9.9870364  66.4552635  10.6641006  10.2596132  65.5541462  11.8492889
  34.4949174  70.4087782  57.8170872  34.2894459  69.5137691  57.5469494
  35.3655219  70.3464651  58.2100248  37.1369171  50.7772207  59.2153502
  36.9047523  50.3593445  60.0446320  37.8794909  51.3413906  59.4310665
  84.3365929  24.5286983   5.5863141  85.1184962  25.0649160   5.4546689
  83.8700149  24.9576134   6.3036489  17.0587770   4.9646372  20.7075595
  17.2935716   5.6587690  21.3234233  16.1574022   5.1638311  20.4544257
  58.8591385  53.8536596  56.5436172  58.4051704  54.5102358  57.0718670
  59.2851925  53.2838726  57.1839666  70.5934321  26.1612119  60.5773306
  70.9282719  25.8723726  61.4262676  70.4479395  25.3509226  60.0889730
  73.0610072  17.8915300  30.6833577  73.1360184  17.8484716  31.6366410
  73.6429201  17.2010221  30.3658772  14.9980775  27.2761196  12.7247333
  14.2057744  27.5682539  13.1754493  14.6770469  26.7449659  11.9960021
  44.4640295  47.0171398  12.9521465  44.6488182  46.5573734  13.7711047
  45.2133838  46.8174881  12.3910331  83.0116068   7.6838483  65.8725405
  83.1871592   6.9384088  66.4467716  83.4534584   7.4637212  65.0524521
  13.4689943  32.0004267   7.7695941  13.6791126  32.7388185   8.3413076
  12.7224485  32.3028082   7.2524213  36.6246692  25.6159204  14.2432594
  37.5462333  25.8713621  14.2019843  36.6054622  24.8881239  14.8646831
  17.0758525  36.1865276  16.7793464  17.4962703  35.4191488  16.3912677
  16.8554060  35.9140533  17.6700782  36.0146581  21.5701093  62.0959473
  35.3729825  20.8980932  62.3259068  36.7490994  21.4130487  62.6893759
  63.7311099  70.9199852  10.2777910  63.8240752  71.8688434  10.3629732
  63.3832119  70.6365532  11.1232852  76.4204303  36.0598558   6.7673587
  75.5726520  35.8262628   6.3892888  76.7086879  36.8179315   6.2589692
  12.5794641  58.3921760  25.3941631  12.7177183  57.8924698  24.5895385
  11.6668407  58.6767620  25.3455352  55.8544874  57.9880619  64.6028709
  55.6568384  58.9160872  64.4766283  55.0389576  57.6124668  64.9346399
  10.6097046  36.2858862   4.9382305  11.4620677  36.0491890   5.3038549
   9.9975840  35.6682962   5.3383827   5.9089106  30.8312988  49.0922785
   6.4310378  30.2071452  48.5882568   5.3250617  30.2851415  49.6186495
  43.3234739  71.4501381  53.4192324  43.1749201  71.3593531  52.4779987
  42.4622488  71.6639900  53.7781096  70.5812918   0.4779234  60.9906387
  70.9873186  -0.3532324  60.7445621  70.6388270   0.4990472  61.9458723
  68.4763680  37.7325577  21.3549709  67.9140303  37.5652403  22.1112823
  69.3643341  37.5804848  21.6784190  45.0043631  48.3216572  65.5211353
  45.6113911  48.1612492  66.2436485  45.5058193  48.8494921  64.8997116
  25.6737987  37.3249906  25.0398731  25.0566141  36.7125934  25.4402255
  26.3045732  37.5172371  25.7336997  35.8785669  14.0542406  20.0517654
  36.4403049  13.5009903  20.5945396  36.4837543  14.5064730  19.4640064
  12.0596067  37.6236147  12.4340057  11.5790907  38.2432360  12.9830074
  12.8774253  38.0743021  12.2235488  37.6239483  11.3804044  69.0851927
  38.0074959  11.1873712  69.9406815  38.2576310  11.9612875  68.6641693
   9.7533528   9.5966810  18.2277393  10.5366627   9.2053598  17.8410529
   9.4157688   8.9232391  18.8182830  83.5685145   3.6717119  61.1153078
  83.4518706   4.6034326  60.9295225  84.5104586   3.5260191  61.0272503
  83.8502251   0.2405634  62.3846626  84.0966259   0.4116716  61.4756823
  83.0045592  -0.2037344  62.3240042  24.5695774  20.8443445   3.9531898
  24.2479078  21.4323992   4.6365308  25.3807537  21.2515062   3.6491489
  16.1789238  55.7713127  59.0134954  15.7951796  54.9848080  59.4012880
  15.6075740  55.9767151  58.2734966  85.3351498  65.4483986  61.5049553
  84.4186878  65.3081179  61.7429686  85.3332520  65.4715061  60.5480337
  11.2222815  68.7301970  54.9817181  11.4869440  69.4573164  55.5451775
  10.9932327  69.1433811  54.1492224  29.2858028  28.1826782  54.9597073
  29.2534542  27.2675920  55.2386379  28.5000372  28.2981277  54.4254065
   2.9685897  53.2146168  59.4682026   2.7173442  52.3923254  59.8888540
   2.3947352  53.2781982  58.7047338  62.7684689  79.6346474  62.6117086
  62.6574039  80.4597092  62.1393061  62.5501776  79.8469734  63.5191727
  45.6228352  54.0651512  25.7591319  45.9274435  53.1659937  25.8814669
  46.3722134  54.5220137  25.3771114  77.1399199   0.2659692  55.0931072
  76.2493502   0.2765169  55.4438305  77.6828038  -0.0228987  55.8266354
  52.2885370  53.0165863  46.2637234  52.1210814  52.0795393  46.3643885
  51.5566730  53.4402180  46.7122173  63.4055898  43.4802383  11.2698840
  62.7527098  44.0761799  10.9026718  63.0112592  42.6120514  11.1863422
  50.8856964  74.5127773  66.6315699  50.7914162  75.4648304  66.6009474
  50.1349211  74.2141294  67.1447659  56.2458324  56.2614632  68.7465286
  55.7007742  55.6744719  69.2705393  57.0774555  56.3014078  69.2187929
  15.0724451   8.7408584   2.6485824  14.1912500   8.8881296   2.9921531
  15.3322784   7.8937954   3.0108070  67.4576187  43.2502747  54.5241261
  67.2262573  42.7650547  55.3161240  67.5965452  42.5741243  53.8609886
  12.5576692  28.0268850  61.1537790  13.3612352  27.8230276  60.6752872
  12.8585820  28.3144560  62.0157433  40.4587057   0.7027181   1.1266040
  40.6706550   0.2019533   1.9143485  40.4219320   0.0480302   0.4292774
   6.6273551   6.2294378  60.0068426   7.0400195   6.5547075  60.8069277
   6.1605935   5.4403009  60.2818632  22.6975131  68.9463997  55.6568336
  22.9221344  69.6783972  56.2312508  21.9369245  68.5403395  56.0725927
  47.7634001  76.6322517  48.5331392  48.1722403  77.2264338  47.9038286
  47.5722551  75.8423376  48.0274391  31.8224478  53.9216471  68.8507986
  31.5683079  54.4133854  68.0698729  31.4023209  54.3869829  69.5741129
  22.0270530  35.6520838  18.7173080  22.7756826  36.1718553  19.0099143
  21.8451778  35.0614542  19.4482707  53.3531809  55.9129572  59.3438292
  52.4029112  55.9539747  59.4512367  53.5868359  56.7557287  58.9547539
  22.2310758  46.9750452  69.5344925  21.4646816  46.6100311  69.0921879
  22.9558325  46.4127302  69.2610788  20.1243544  76.8739223  46.1056471
  20.1176190  76.0236120  46.5451384  20.8845162  76.8374538  45.5250835
  48.8448178  14.7986688  40.5813980  49.7904312  14.9386301  40.5318356
  48.7488781  13.9828767  41.0728264  48.8118450  45.9708256   1.0397243
  48.7448207  45.7193989   1.9608783  48.6767618  46.9184440   1.0396575
  52.0314789  67.0581293  62.8158236  52.8810072  66.7614079  63.1421518
  52.2455072  67.7160168  62.1543074  26.1151973  13.8840526   1.2646484
  26.2611476  13.4234518   0.4383420  26.3394825  13.2429212   1.9390964
  64.7631645  68.2534838  67.6493931  64.5278931  68.4278011  68.5607052
  65.4395485  67.5781965  67.7016115  79.5096801  30.0415939   7.2708701
  79.3382190  30.8686966   7.7211236  80.4285214  29.8517221   7.4603795
  19.0621810  17.0168962  37.4836373  18.3157926  17.4809827  37.8627872
  19.1066508  16.1950960  37.9724169  63.8302504   7.3390569  57.6284695
  63.2349550   7.3062696  56.8796158  64.5565831   7.8881254  57.3331881
  82.8752063   8.1152242   4.6156883  83.4933708   7.5162214   4.1970014
  83.2561062   8.9833826   4.4835853  82.1522843   3.6040487  32.3097277
  81.7305790   3.6619081  33.1670785  81.4302241   3.6570444  31.6835856
  30.1558820  42.4821037   1.4562368  30.3669349  41.5635723   1.2889337
  30.0121204  42.8569359   0.5872917  72.0809113  20.3598013  30.1248670
  71.1496674  20.1461496  30.0667715  72.5181090  19.5104971  30.1863718
  64.7193705   4.3119230  61.1290646  64.8850571   5.2462854  61.0035944
  65.2081286   4.0861597  61.9205046  81.4966618  42.5781335  51.7439222
  82.3698222  42.6003542  51.3523579  81.0239827  41.9172849  51.2378645
   1.8917232  11.9711675  29.2116284   1.4104419  12.6710691  29.6529174
   2.6879459  11.8631448  29.7318149  42.3559991  48.7749618  13.1160735
  43.1401006  48.2435078  12.9783248  41.6888992  48.3647770  12.5656604
   1.3318197  45.2303642  14.9712180   0.6095711  45.6589741  15.4304313
   1.1365572  45.3606647  14.0432548  12.6625577  17.7855390  30.7943725
  12.6739208  18.0436701  29.8727130  12.3070232  16.8968290  30.7898425
  68.1351948  60.3200769  67.7096081  67.4573183  60.5030537  68.3601713
  68.3114862  59.3840170  67.8041697   5.9820668  31.3245148  20.6286144
   6.0395304  31.7631000  19.7797489   6.2099830  30.4134792  20.4434203
  47.1809474   8.2626003   1.8834924  46.3755695   8.7747568   1.9562244
  47.0184652   7.6628488   1.1553907   9.7682516  28.4285444   2.3003148
   9.7017304  29.1456074   1.6697358  10.6199566  28.0301851   2.1210384
  12.1188152  64.9951029  58.4447670  11.3709450  65.5422401  58.6846924
  12.2732842  64.4491673  59.2156935  48.6213151  60.4170078   8.9347314
  48.4190074  61.1114734   9.5616483  49.3737117  60.7485336   8.4446000
  54.0582561  76.3508987  52.5132895  53.3699560  76.9953346  52.6781368
  54.8455381  76.7381001  52.8960323  28.3817426  34.6116585  33.5436153
  27.6875059  35.1070064  33.9782333  28.6865417  35.1896948  32.8441905
  48.4374749   5.7737054  67.6112652  48.0741881   5.7475557  66.7260695
  47.7732061   5.3507127  68.1553745  83.0994985  24.4661850  12.9687785
  82.5053022  25.1635832  12.6916503  83.9474533  24.7133011  12.5998115
  64.1478979  10.6185045  41.5620136  64.0122949   9.7597303  41.1615705
  64.9800526  10.9228983  41.1999416   5.4570632   0.4509439  59.5119143
   5.7986312   1.2703981  59.1540623   6.1847596  -0.1660452  59.4343185
  22.0871440  16.2397283  54.4194030  21.2361804  16.0751623  54.8256111
  21.9079916  16.2382644  53.4791183  20.7316247  46.4749569  20.4261398
  20.4529993  47.3880524  20.4958057  20.7929412  46.3144344  19.4844913
  66.3230173  34.5300478   3.2923078  67.1641431  34.0747255   3.3300065
  66.1717484  34.8283714   4.1891670  59.6958434  34.1576948  50.9205008
  59.8699080  34.7601499  50.1973248  59.0328895  33.5579767  50.5783463
  10.8838479  20.8404154  30.4822540  10.3758041  21.6358084  30.6418609
  11.7452899  21.0275644  30.8552360  64.2965746  61.2255001  61.6137362
  63.5966110  61.3633585  62.2519159  64.3856955  60.2741051  61.5577650
  51.4243460  77.1601820  54.8706198  51.8083143  77.9619551  54.5157003
  50.5385971  77.1380854  54.5084095   2.7545372  26.3414615  14.6318721
   1.9577400  26.5976232  14.1674136   3.4496275  26.8489736  14.2129421
  26.3657466  20.1314491  44.2708492  25.6452266  19.5466703  44.0360736
  26.2425319  20.3003019  45.2049445   5.1890675  45.5020183  36.3873958
   5.9822217  45.6869453  36.8903255   4.9245922  46.3522095  36.0360240
  75.9316957  75.0886965  59.2856836  76.7265803  74.6058369  59.5120430
  75.9830827  75.8913660  59.8046398  64.4392252  41.6709948  49.5436954
  63.6041927  42.1365309  49.4965172  64.3632603  41.1213064  50.3236341
  26.4602224  20.4910368  20.4655170  27.1808998  21.1196369  20.4240608
  26.4062492  20.1298469  19.5807266  27.9782152  70.0194120  61.1513424
  27.0840478  70.2353287  60.8866262  28.4416056  70.8568096  61.1351776
  27.9168693  14.4735473  18.2456588  27.1346132  14.0531343  18.6028194
  27.9831163  14.1365713  17.3521900  70.3843594  73.8595057  41.7612839
  70.5906963  72.9858303  41.4291096  70.8008957  73.8928652  42.6224566
  52.5620508  68.2742548  33.1096506  52.1672535  68.2487106  33.9812684
  53.5043669  68.3076954  33.2744241  30.1805615  50.4680538  62.0259571
  30.1319456  51.0714340  62.7674389  29.2808986  50.1644659  61.9048214
  73.7867247   0.5750646  43.8702250  73.5701214  -0.3544245  43.7969351
  74.6006571   0.6710233  43.3757257  30.7677674  66.8852472  55.0338411
  30.2423215  67.4951601  55.5516672  30.3226924  66.8445778  54.1873884
  63.2472801  77.0710707  62.5532961  62.9893780  77.9819489  62.4118090
  62.5294781  76.5584040  62.1815872  33.1758968  23.7218517   0.4426622
  32.8431312  23.1007046   1.0904836  32.4060480  24.2232889   0.1741027
  83.2225273  66.0928291  28.8039874  83.2587121  65.6941933  29.6734809
  83.9056871  65.6438583  28.3060455  28.6530643   3.9956655  68.4024906
  28.5756641   4.5287885  67.6112700  27.9294448   3.3719339  68.3427620
   0.2512911  21.6716671  21.4605761   0.5321304  21.9354320  20.5843401
  -0.0725792  20.7778168  21.3493514  63.0126047  78.3958721  49.4921875
  63.6166430  78.2216501  48.7703705  62.1555471  78.4753132  49.0734148
  61.8463508   2.6844591  15.9844207  62.6172534   3.2163280  16.1820506
  61.4905540   2.4505609  16.8416976  40.0514451  46.1822552  17.2203159
  40.1407997  45.2300495  17.2597312  40.5254880  46.4347118  16.4279842
  28.2049982  40.1020664  15.7992458  28.5463659  39.7583240  16.6248035
  27.5504247  39.4598430  15.5248069  63.4246909   4.7558679  58.6019087
  63.5915409   5.6980981  58.6264992  63.7967621   4.4253244  59.4195461
  46.2371349  63.2167959  55.4980564  45.4525042  62.7751017  55.8228493
  45.9718752  64.1306162  55.3941011  38.4358409   1.4626344  21.7980956
  38.8098195   0.6658777  21.4218711  37.5636151   1.2014993  22.0934963
  25.4868404  53.4038204   7.3760127  25.3947679  53.4452766   6.4241552
  25.5943433  52.4718136   7.5658750  44.6596575  71.1900139  44.0381432
  45.2344036  70.6829166  44.6115112  43.8877916  71.3730001  44.5738411
  34.3160001  71.9247288  23.7981510  34.0189353  71.5956730  22.9498004
  33.9995138  71.2788433  24.4297408   3.2750265  59.3869251   8.6563348
   2.3795883  59.7075790   8.7640714   3.4396378  59.4477791   7.7153634
  27.6900093  75.5442756  19.4108104  26.8244974  75.6458420  19.0148162
  27.6579372  74.6896213  19.8406505  61.2904024  55.6820631  43.9506340
  61.9666576  56.2764549  44.2756128  61.0714436  55.1336050  44.7039461
  48.7680041   9.0579118  52.0172596  47.9184162   9.1777506  51.5929127
  48.5536825   8.7976827  52.9131269  78.1439040   1.7788404  17.3978423
  77.6594732   2.6042837  17.3836135  78.0959032   1.4886278  18.3087253
  53.4670973  75.2981615  48.6003542  52.7335835  75.5471563  49.1626644
  53.9503527  74.6483946  49.1107464  74.9830008  42.0178795  68.7717533
  74.4906282  42.5585508  69.3893909  75.0969172  42.5761890  68.0026340
   0.6257491   3.9605512  50.7164240   1.1746650   3.2225027  50.4514551
  -0.1674838   3.8708486  50.1882553  38.2626239  12.6401609   7.2282838
  39.1457883  12.6524443   6.8593549  37.8413049  13.4200710   6.8670844
  81.2871382  38.2119745  32.2490310  81.3800190  38.3423990  31.3053226
  82.1615980  37.9564279  32.5427150  76.6273867  32.5172796  30.2819967
  76.9083821  32.6607694  29.3782902  77.1915614  33.0896177  30.8019757
  33.5929481  59.3259853  30.3630924  33.8185827  59.6767849  31.2246417
  33.6713068  58.3772224  30.4627799  29.6759788  35.8575434   4.3283986
  29.4677059  34.9242538   4.3711852  29.0593044  36.2114233   3.6875295
  67.5231314  38.5978150   9.8848242  66.7528868  38.5523582   9.3183517
  67.1656561  38.6744332  10.7694566  52.1927063  67.3314804  15.8367729
  52.9644577  67.0249885  16.3128852  51.6404811  66.5544456  15.7501697
  47.8697729  63.1664610  42.5947523  46.9472790  63.3712816  42.4421501
  47.8555727  62.4804544  43.2621574  39.3678808  68.4171772  46.3627577
  39.9514127  69.1006422  46.6923046  39.8200917  68.0653715  45.5959654
  15.5136895  67.6199770  62.9578972  14.9190712  68.1974316  63.4366512
  14.9749470  66.8653727  62.7200747  79.9223182   7.6539987  17.9317474
  79.1944072   8.2079977  17.6498508  79.5026777   6.8824476  18.3123206
   9.3194000  63.8068813  29.9327945   8.4514920  64.0385670  30.2633762
   9.9117009  64.4248337  30.3612041  18.8103715  20.8080095   4.9947166
  18.3282844  21.5750307   4.6856784  19.7263566  21.0064834   4.8002719
  22.7168504  32.5627655   2.7387380  21.8137304  32.2473711   2.7051544
  22.9378597  32.7538818   1.8272209  13.9777291  31.1173034  55.1041317
  13.6470795  30.2205539  55.1564741  13.3607900  31.6308737  55.6255388
  32.1710960  62.9954952  39.7873878  32.4201147  63.4095997  38.9611053
  32.8101388  62.2926658  39.9052047  14.2404644  15.1583570  24.1106796
  14.0729515  15.0176662  25.0425433  13.9588539  16.0589737  23.9500045
  10.3955022  30.4080099   0.6267881  10.5837766  29.8939365  -0.1583958
  11.0247962  31.1286920   0.5978250  48.8472406  54.8135895   9.0840148
  49.7853080  54.7184128   8.9190721  48.5589019  55.4734367   8.4533882
  77.8271853   6.8648519  50.6693983  78.4585749   7.1983041  51.3068819
  77.6447474   5.9706773  50.9581852   5.1882569  66.5887874  47.0009994
   5.5685846  66.5010113  47.8750038   4.7925107  67.4603504  46.9984435
  84.3845844  51.2425661  56.1071968  84.9607372  50.7175970  56.6627884
  84.9166870  51.9976044  55.8561802  59.4052278  14.2733183  64.0180540
  59.2243825  13.4372415  64.4475842  59.3745839  14.9175348  64.7253609
   4.8475424  59.6664566  15.2043628   4.5252625  59.6576542  14.3030929
   4.4634024  60.4546017  15.5884075  37.5195551  78.0398512  51.4973354
  37.0307875  77.3853159  50.9984159  37.1743774  78.8793945  51.1936092
  43.9774934   4.9152559  20.5194949  43.7746564   4.0482563  20.8707809
  44.2350189   5.4294676  21.2846755  62.5468302  39.9210072  57.2506952
  61.8304968  39.4324565  57.6561785  62.4645233  40.8059502  57.6061249
  52.2422782  52.2156376   6.9658326  51.8186752  52.6825756   6.2455844
  52.7935211  52.8749317   7.3873615  33.9758150  46.5621704  24.1101360
  34.7061912  45.9449810  24.1532897  33.5321323  46.4675087  24.9530029
  68.9175784  19.4694414  39.0873122  69.5791518  20.0985422  39.3750334
  69.3636404  18.9372339  38.4285140   1.2509351   2.7109136  41.1301708
   1.1026483   2.8482141  42.0657921   1.4357143   3.5848417  40.7861710
  50.5254173  77.2724390  66.8064165  49.9803495  77.4724102  66.0454035
  51.2573433  77.8862095  66.7447138  47.0400429  72.1535015  63.0139732
  46.6603851  71.3870955  63.4437513  47.0074034  72.8415346  63.6786366
  72.4182997  39.7289842  21.5551853  72.2326598  40.6062454  21.8901061
  73.3595143  39.7333092  21.3810348  20.0212471  11.2739033   0.2926826
  19.1608230  11.5956682   0.5616998  20.0365917  11.3960642  -0.6565667
   6.6953222  19.8409885  19.9802493   7.2414128  20.2937645  19.3375968
   6.9321028  20.2384514  20.8182239  12.0663076  29.5216837  65.0100183
  12.9174142  29.2281809  64.6848917  11.6113906  28.7151231  65.2523899
  12.8058486  27.3993768  45.2990437  12.2884326  27.0565595  46.0277271
  13.7146573  27.2470655  45.5580854  80.5472266  27.3125925  61.1106873
  80.6770884  26.5420236  61.6634893  79.9084603  27.0322408  60.4552364
  42.6113216  39.4795030   6.8237590  42.8229991  38.6213440   7.1911620
  43.3780471  40.0187630   7.0175695   0.9709649  61.8755998  69.5911646
   0.7504897  62.7963628  69.4504070   0.7842403  61.4536848  68.7524986
  74.6873882   0.0491651  10.7290553  74.3257597   0.5643114  10.0078916
  74.5105532   0.5734476  11.5101337   5.6315045  34.2185201  46.7954779
   6.2845092  34.3331041  46.1050558   6.1449247  34.1305055  47.5985241
  73.6042356  77.6703739  59.8680592  73.9374828  78.5126781  60.1774073
  73.8259792  77.0540953  60.5661011  61.2873411  48.1547213  69.4958115
  60.7925940  48.9469862  69.2865896  62.1195650  48.2635117  69.0355921
  47.7682590  74.7158384  58.9244843  47.6390076  75.0265455  59.8205805
  48.7053776  74.5289612  58.8686085  38.7222195  78.9851379  61.1550283
  38.6665869  79.0881062  62.1050501  39.2399335  79.7353125  60.8627176
   8.2846933  28.6560335  41.0968256   7.5870614  29.3059053  41.0119152
   8.6216121  28.5487165  40.2073336  83.0667400  72.8138733  50.4812384
  83.0856895  72.9911852  51.4216805  82.4045277  73.4136343  50.1377249
  12.2794668  17.1854061  13.1176662  11.4455906  16.8633217  12.7754020
  12.8975097  16.4736027  12.9515552  27.8150039  29.9202528  32.9997754
  27.5665050  30.6409254  32.4208784  27.0673804  29.3231001  32.9733300
  59.9076282   7.4062242  61.4874935  60.6239902   7.6235857  62.0839882
  59.7310339   6.4800729  61.6527271  60.7048035  67.3230791  55.5923319
  61.1139393  67.4759340  56.4440823  60.1432896  66.5601683  55.7297993
  15.6353622  28.7416067  51.9726706  15.8351760  27.8094186  52.0582628
  14.8408465  28.8649358  52.4920607  83.6382673  21.9537634   5.9466218
  83.8738106  22.8628391   5.7613277  83.8274262  21.8424648   6.8783235
  78.8197695  24.6016016  10.9360373  79.0964304  24.0761556  11.6867733
  79.4491612  24.3860235  10.2478325  50.7435981  75.4022926  14.4953346
  50.5979482  75.1422066  13.5857391  51.6255657  75.0889248  14.6957588
  61.9922352  68.1086826  62.6285410  62.5017643  68.7565327  63.1152678
  61.0806131  68.3227825  62.8268766  27.7178804  40.8495659  20.4707431
  26.7819015  40.6793350  20.3649425  27.8434602  40.9175915  21.4172267
  45.7906394  13.5326662  46.3443851  45.6997066  14.4756212  46.2073135
  46.6283469  13.4361639  46.7973423  17.6722232  22.9269022  22.8677654
  18.4044544  22.6614994  23.4242153  18.0314247  22.9215807  21.9805431
  61.7610537  17.3962202  31.5340757  61.4143406  17.9918947  30.8698511
  62.1668731  16.6887941  31.0329843  32.2318546  42.5165314  30.8838748
  31.7803089  43.0128139  30.2011966  33.1326429  42.4410862  30.5690383
  70.7774244  29.1714138  17.6167392  70.8675931  29.6042293  18.4657192
  71.5505324  28.6109442  17.5503158  20.2687685  68.0608124  19.1666316
  21.1474411  68.4334129  19.0935516  19.8544160  68.5606140  19.8700141
  15.8643353  61.4933681  47.0031881  15.5389571  60.6041241  46.8631697
  15.8826566  61.5946341  47.9548407  77.7606535  73.9684248  67.1248007
  77.3518467  74.7161770  66.6889381  77.0880604  73.2874584  67.1133900
  43.7850229  17.8979009   5.8292865  43.0515663  17.4400705   6.2399768
  43.3744184  18.5813612   5.2996539  17.9999296  15.8393997  15.7956600
  17.7502815  16.7627567  15.8319663  18.5100166  15.7607263  14.9895191
  74.4803884   2.2675546  12.9005813  74.0909222   3.1403287  12.8476238
  75.4243973   2.4252351  12.8859042  58.8196572  80.0553476  53.0477095
  59.4606097  79.4315715  53.3887577  58.8081880  79.8951676  52.1040773
  14.9715055  55.7912479  56.6076469  15.1828445  54.9124060  56.2926769
  15.5266489  56.3720737  56.0873652  46.8621372  60.8619169  14.2828369
  46.0070287  60.4361991  14.3443584  47.3007535  60.6380467  15.1036453
  61.6855777  64.0669344  52.6291323  62.2971464  63.3312748  52.6610947
  62.2454728  64.8424015  52.5917196  81.9523020  73.8857500  39.0019512
  81.4891167  74.6360425  39.3744493  82.3863358  74.2346511  38.2234192
  68.7158698  70.4223074  12.7093791  68.4962887  71.2407412  13.1545543
  68.2617039  70.4776682  11.8686008  28.4796977  64.9709682  12.4153804
  27.8451923  64.2567472  12.4747180  28.2740435  65.5365066  13.1597614
  21.9610476  -0.0574368  56.6083097  22.7960277   0.0307430  57.0679426
  22.1696448   0.1337718  55.6938934  37.5014181  66.5714453  27.4866319
  36.6915507  66.0853944  27.6418829  38.1566627  66.1217676  28.0201817
  66.9880469  66.2453542  29.7655106  66.2746884  66.7304740  30.1802516
  66.5801777  65.4357932  29.4581294  19.2207110  31.4734459  56.2579584
  18.3212447  31.5331626  55.9360456  19.1420066  31.0459137  57.1107483
  29.7190070   7.7667230  41.0604811  28.8150740   7.8720385  40.7637596
  30.1240802   7.2049797  40.3997278   3.4033981   8.2521719  35.4635811
   2.8198665   7.9302937  36.1506891   4.2526296   7.8605270  35.6676698
  79.6440750  16.3713932  32.8231192  79.2472208  16.5282595  31.9663048
  78.9253545  16.0433042  33.3635163   7.8613697  60.1571528  10.1785898
   6.9351350  60.3715495  10.0674342   8.0006539  60.1803962  11.1253166
  12.2102416  21.9052577  16.2969220  11.9863260  22.0338440  15.3752065
  11.4404511  22.2127628  16.7755616  24.4920373   7.3097384  55.5376482
  23.9346075   7.5575209  54.8000097  24.6445489   6.3723320  55.4183102
  73.2705040  66.2412713  57.6487780  73.2039709  67.0210133  58.1999636
  72.5822360  65.6599365  57.9721498   2.6224074  45.8608961  61.4667606
   3.4659520  46.2072611  61.1757326   2.3277704  45.3082943  60.7428503
  31.5486431  28.2496476  42.1191216  30.9258938  28.0150771  41.4310884
  32.0618653  28.9651966  41.7438602  55.3711557  65.9707759  21.4070415
  55.9732104  66.4203689  22.0000219  54.5012414  66.1670432  21.7548347
  45.2518511   6.5269589  53.4552097  44.5297003   6.4079785  52.8383064
  44.8353958   6.5133858  54.3169641  20.9678960   0.3785584  43.2630968
  21.2751961   0.7956231  44.0679932  21.2439466  -0.5342291  43.3458424
  10.3593482  57.7069888  56.5317869  10.1021589  57.8212128  55.6168890
   9.5311059  57.6357136  57.0063019  15.9579234  36.0735942   0.3163623
  16.4845615  36.8442858   0.5283117  16.5040355  35.5686427  -0.2861453
  63.6500226  53.4949807   3.4101199  63.9263402  54.3094126   2.9899024
  62.7717267  53.6823706   3.7413501   7.1340221  17.7494335  56.5490723
   7.9900295  18.1497693  56.7014360   7.1441966  16.9529748  57.0799017
  72.4058945  48.9050446  25.2321243  72.7284486  48.9095745  24.3309212
  71.6811104  48.2798610  25.2239656   3.9542926  76.5644310  33.0475020
   4.5177449  76.5452264  33.8210559   3.9589370  77.4806605  32.7704930
  40.5372285  27.2780494   5.3190278  40.7379316  28.2032613   5.1778364
  40.2364587  26.9653014   4.4658231  28.8973880  27.3406959  37.9364824
  29.6979284  27.6372552  37.5035620  29.1696715  27.1396852  38.8318515
  52.2041112  16.6392839  56.3630676  52.6303512  16.3682699  55.5499840
  52.4389511  15.9595084  56.9947195  29.1864228   3.1968212  39.0289664
  29.5444202   3.7016740  38.2987666  28.2377601   3.2909995  38.9429474
   4.9880251   3.5226035  40.8304262   5.4970008   4.1445714  40.3104925
   4.9250293   3.9283574  41.6950798  60.8999072  61.8171457   5.2749204
  60.1465355  62.3043183   4.9412584  61.6569506  62.3486809   5.0287818
  28.1004190  19.0174723  47.5440025  28.6531782  19.7624433  47.3079777
  27.2074699  19.3197381  47.3781538  80.1057100  13.8817573  66.0629606
  79.8198652  14.5422900  66.6940069  80.3712800  13.1357932  66.6007710
  50.8451878  69.5741133  35.8409881  49.9363576  69.3247799  36.0085964
  51.3517558  68.7903980  36.0540866  40.6193410  41.9355671  26.0266303
  40.1679157  42.4745300  25.3770351  41.3476609  42.4801690  26.3252735
  31.3317466  32.9904437  50.1155233  32.2360516  33.0549431  50.4226112
  30.8017349  33.1343865  50.8994865  71.2041612  75.8664248  61.6382694
  71.3387437  75.7708318  60.6954145  70.3675337  75.4326538  61.8059874
  50.4978048  57.1478347  24.5297336  50.0702988  57.5742344  25.2724647
  51.4244448  57.3662619  24.6290302  62.9824711  78.7008991  43.5273027
  62.7362312  78.0591052  42.8611994  62.1873922  79.2142020  43.6708355
   4.4601494  27.0258689  47.1333265   4.2677975  27.7186751  46.5014648
   4.5518801  26.2353420  46.6014624  60.7305145  17.9497707  48.1828976
  60.2937889  17.1178734  47.9999971  60.1075172  18.4331000  48.7255764
  73.9236159  71.6445891  36.2542629  74.8252423  71.8210379  35.9856248
  73.6688847  70.8740888  35.7466459  59.6214544  57.8390936  13.3480357
  59.2528449  58.5455398  12.8176689  60.4190527  57.5830321  12.8848934
  14.6165608  14.5825104  15.1853847  14.4068848  15.4777650  15.4514407
  13.8507437  14.0700559  15.4445075  47.1973406  48.3366046   5.2192067
  47.7419053  47.7425645   5.7357311  47.2899555  49.1847525   5.6531429
  29.9121944  17.5690454  18.8193893  29.0043108  17.2662443  18.8022994
  29.9732105  18.1844705  18.0887985  24.2703152  17.9398584  43.9668417
  24.8861527  17.3755908  43.4993172  24.1535449  17.5147510  44.8164749
  58.3333551  59.6823577   8.5943651  57.3866807  59.8208431   8.6236953
  58.6901556  60.5252437   8.3142423  51.4984089   6.2361592  60.9802532
  51.2370569   6.1653137  60.0621510  52.2629076   5.6652164  61.0563946
   8.1398808  62.9106025  12.4088477   7.4600731  63.4579400  12.0157718
   7.7811657  62.6569537  13.2592773  77.7010250  16.6314757  40.5419111
  77.6797992  16.8277669  39.6052933  77.3434407  17.4152839  40.9590530
  78.0516238  75.3777228  43.6599445  77.7729769  75.6527359  44.5334148
  78.3676953  74.4822566  43.7802410  51.8868685  14.5085764  53.5193539
  52.3574209  13.7431431  53.1893206  52.5459766  15.2022231  53.5450125
  58.8945103   2.6695910  20.4213405  58.6154175   3.3958834  19.8638105
  58.1898737   2.5751817  21.0622859  38.3924842  12.7104747  44.2192411
  39.1645193  13.0038190  43.7353611  37.9428482  13.5187685  44.4656563
   8.4149337  27.1072030  52.9965019   8.1546938  27.9357004  52.5938892
   7.6213878  26.7911601  53.4285164  71.7115342  43.9358262  10.4663944
  71.5081202  44.7427038   9.9933147  70.9001051  43.4290103  10.4354858
  35.5844425  53.5790853  12.4778556  35.3396045  53.9027588  11.6109561
  35.0205975  52.8182892  12.6175021  47.5641953  75.4906682  24.0379333
  47.7657782  74.5885138  24.2863464  47.9004072  76.0192136  24.7616958
  67.9734201  70.2576397  68.6044741  67.2971065  70.8977363  68.8260746
  68.7820275  70.7681928  68.5629892  69.4693123  29.1045086  20.1683616
  69.7964894  28.2057933  20.2070522  70.2166783  29.6428971  20.4287814
  10.0892460  16.9611454  20.0383735   9.2419434  17.2462499  20.3804636
   9.8780113  16.2385130  19.4472611  36.8526178  17.1768789  21.1373042
  37.6747273  16.8169216  20.8044433  36.6462486  16.6369347  21.9002628
  39.3690680  55.2657417  29.3637847  39.1042220  54.3504421  29.2725944
  40.2804839  55.2236573  29.6532344  39.0610575  17.9840044   8.6731576
  38.8795101  17.7570705   9.5851755  39.4780766  18.8443736   8.7188768
  79.1477524  59.8499362   1.0620164  78.7786614  59.0542881   1.4453506
  79.4513928  59.5797018   0.1954078  54.6577454  26.5407896  49.0987110
  54.7507858  25.5931568  49.1965199  54.4085169  26.6637111  48.1827402
  74.1573178  30.4200206  12.3806285  73.2070242  30.4918538  12.2910785
  74.4823300  31.3018696  12.1991348  51.5239941  65.6638006   7.7912330
  51.6183316  66.5947203   7.9930257  52.3921119  65.2944688   7.9530858
  78.3049769  50.7708321  21.9197059  78.6136980  51.1618600  22.7370310
  78.1032247  51.5188346  21.3575482  62.8337259  76.0005514  46.8469858
  63.0837585  75.8088226  45.9431314  63.4546853  76.6717652  47.1300316
  12.7654636  26.9614887  48.2098103  13.5160422  26.7149258  48.7502480
  12.5484562  26.1658120  47.7239752  68.1010766  62.6740442  59.3735027
  69.0177400  62.4101673  59.2939377  67.7849800  62.7169035  58.4710169
  20.8903544  27.6742391   0.9489869  19.9937450  28.0016891   1.0204028
  20.8042179  26.8381147   0.4910516  72.6080651  65.7979331  53.3898306
  72.5332887  66.6222010  53.8706875  72.6362486  65.1253615  54.0703392
  14.4440329   4.7743726  25.8726144  15.0346482   4.4074950  26.5304923
  15.0255084   5.1360720  25.2038145  58.8857924  45.3462915   3.4208345
  59.0776240  45.8447359   2.6264905  59.4495260  44.5749773   3.3615970
   2.2258015   7.5546926  37.7893400   2.1425015   6.6357988  38.0441475
   2.5424775   7.9943001  38.5784483  25.3722324  59.4405083   6.0370921
  24.7294851  58.7461428   5.8923005  26.0283721  59.0438298   6.6101169
  70.7265074  77.0216326  24.7442842  71.0849805  76.9399957  25.6280613
  71.1706383  77.7850396  24.3752456  31.3122630   8.4138477  65.2700281
  32.2073007   8.3433944  64.9381018  31.1383748   9.3548614  65.2920961
  19.7770428  47.0727746  10.2881860  20.1453577  47.8650216   9.8971366
  19.1394704  47.3944191  10.9255885  78.4354788  18.9179027  63.5117722
  78.6445284  19.6399760  64.1043425  78.2660103  18.1745350  64.0904903
  15.7738153   8.1381697  26.9832992  16.6827289   8.3757013  27.1668434
  15.8054344   7.7150339  26.1252784  80.0463694  23.2586646  31.7791128
  79.4465858  23.3808303  32.5150251  79.4744897  23.1591415  31.0180068
  24.2542601   3.2187387  57.4704456  23.7952161   3.3517820  56.6411018
  24.4063520   2.2745797  57.5112391  26.8568110  24.3564320  45.8359432
  26.9217443  24.7561264  44.9686146  26.5213561  25.0554323  46.3972807
  22.6283841  69.2126612   6.4588737  22.3227691  68.6411862   5.7544278
  23.4374558  69.5970873   6.1214589  39.3978977  17.1077693  20.3016877
  40.0915384  16.5877175  19.8959243  39.4180632  17.9417372  19.8323035
  29.1524709  79.5557673  45.1605415  29.5484508  78.6847312  45.1875257
  29.6492256  80.0240176  44.4895697  42.1147156  18.4410954  63.6260271
  42.0685101  17.5634170  63.2468462  41.7736053  18.3365273  64.5142508
  79.0910565  29.7250954  10.8670902  78.7267100  29.0931503  10.2473068
  78.3602797  30.3084413  11.0717964  64.8150545  27.1990561  63.8754129
  64.8644286  28.0455518  63.4312963  64.0266210  27.2573328  64.4150496
  52.0048987  61.3494305   8.5864925  51.8840276  62.2937421   8.6859845
  52.2597133  61.0474137   9.4583225  27.3645687  23.3938432  39.4785714
  28.0183339  23.1648755  38.8179684  26.9803810  24.2114234  39.1620326
  62.2723255  14.5635408  25.5762004  61.6099451  15.0652117  25.1010036
  62.0235924  13.6492866  25.4401779  35.5834268  45.3755186  20.0801849
  34.9765139  46.1132131  20.1409721  35.9281837  45.2752654  20.9675025
  20.1697850  18.2781994  23.0658484  19.7518396  17.5039899  22.6888156
  20.9765005  18.3843482  22.5616932  35.2170110  34.9113560  50.8037186
  36.1427450  34.8014903  51.0209179  34.8724914  34.0191364  50.7652569
  61.8576752  10.7653121   3.9793491  61.9658028  10.3068356   3.1460809
  61.2600457  10.2114658   4.4816684  30.9351679  30.8639214   3.8088512
  30.9620627  30.1106970   4.3989038  30.0706092  30.8176516   3.4006500
  70.0025259  37.5913523   0.7907295  70.9462534  37.6731325   0.9283017
  69.8080241  38.2127523   0.0891160  42.4447643   3.7306861   9.1296720
  42.4183272   4.6632747   9.3437099  42.3725366   3.2886533   9.9756193
   4.6270860  79.1889572  25.0135970   5.1428188  79.0572474  24.2180443
   4.4989623  80.1363144  25.0618744  19.7077215  15.4404712  13.7183845
  20.4614687  14.9665594  14.0698159  19.7545683  15.2977228  12.7730489
  17.5480187  23.4414864  40.2890539  18.0415392  23.9126086  39.6177053
  16.6778910  23.8399434  40.2705193  52.7762954  76.8034546  33.0689454
  52.7201257  77.6909901  33.4230042  53.1218759  76.2788923  33.7911916
   7.9690135   4.9329227  57.7051020   7.4776882   5.4311556  58.3582449
   8.8746566   5.2230495  57.8140450  19.2034448  76.7091290  51.1185265
  19.4835628  76.7663682  52.0320272  19.9732269  76.3836540  50.6519032
   2.3060120  77.4291305  36.5641141   2.4167956  77.9594145  37.3532629
   3.1726874  77.0563541  36.4024234  32.2364998  -0.0267180  48.1282854
  32.6017284   0.3480438  47.3267937  32.2444940   0.6959755  48.7558889
  57.0135959  75.1682381  48.2643175  56.8737807  74.6528945  49.0587378
  57.1190873  76.0667078  48.5771370  44.8412691  60.1773755  10.0962495
  44.8251246  59.4391958  10.7053947  45.7284020  60.5292515  10.1698064
  60.4384796  47.6413284  63.2271290  59.6194304  48.0925975  63.0228138
  60.9646402  47.7283869  62.4322701  61.9486677   4.7280721   6.5952586
  61.1457478   4.9092321   6.1066579  62.0725452   3.7827233   6.5104007
  30.7005453   9.4256103  50.3924131  30.0206041   9.3666846  51.0635614
  30.9839702   8.5211861  50.2585506  47.9289271  68.8326524  65.6207085
  47.4806566  68.1920884  66.1729431  47.2772856  69.0814648  64.9652004
  54.6494829  73.8059286   3.3970069  55.4005777  73.8275961   2.8040313
  53.9402019  73.4355358   2.8716897  72.7232772   6.4656395  19.7421718
  72.7702194   6.8734670  18.8774729  73.4634644   5.8590204  19.7613800
   1.7188133  77.3797707  49.4116259   2.3850478  76.8713672  49.8741055
   1.2864722  77.8882822  50.0977230  74.8827286  69.6105156  62.4118900
  75.3539951  69.7103641  61.5847445  75.2291591  68.8017199  62.7888060
  22.9515147   1.2067981  50.5488491  22.7098536   2.0882809  50.2645636
  22.1399140   0.7034249  50.4843998  20.8798097  29.6373288  10.2982377
  20.8627950  30.3429369  10.9448146  21.0465192  30.0793080   9.4657134
  68.1105215  72.6852212  39.5448875  68.0750329  72.6373504  40.5002308
  67.5704582  73.4436844  39.3228555  48.0424963  77.8642587   7.2070312
  47.3687552  78.5081319   6.9885492  47.7019369  77.0366267   6.8675041
  82.0547902  76.8922309  15.9422302  81.9447266  77.8422813  15.9032535
  82.0938097  76.6178421  15.0260352   6.4613832  78.1358206  37.7517843
   7.0360793  77.5008304  38.1792688   6.7651142  78.9859621  38.0699635
  58.2737171  38.7148968  13.7873172  57.4388133  38.9562053  13.3861541
  58.1770622  38.9601704  14.7074985  44.7806119  36.1931376   1.5660762
  44.5641278  35.3264479   1.9098996  44.8499142  36.7484296   2.3426580
   3.5409343  36.8097663  66.6184187   3.3503374  35.8772588  66.7200756
   2.9195893  37.1103191  65.9552240  26.9225372  56.4797364  65.5897045
  27.0523466  55.6423102  65.1446247  27.7831949  56.8981347  65.5685949
   4.2651573  61.7648220  56.1851168   4.5297670  62.4110079  56.8398380
   3.7044585  61.1544561  56.6639709  81.4546534  24.7634935  21.1807060
  81.6702655  24.4830322  20.2912760  81.3926080  23.9492941  21.6801667
  68.9694093   3.7856001   5.5891370  69.7483847   4.0119690   6.0972547
  68.5878454   4.6294016   5.3469800  72.0460279  78.5070030  51.1440039
  72.9945071  78.6188612  51.2080956  71.6981013  78.9714331  51.9052410
  41.3432132  47.6333151   4.1205739  42.1562802  48.0448620   3.8276815
  40.7234739  47.7942548   3.4090566  56.5412008  58.6416761  12.9882526
  56.3272988  58.0206350  12.2919845  56.3321935  58.1753842  13.7976455
  14.3657887  17.6466882  47.3974705  13.6038554  17.2595668  47.8285456
  14.9074316  17.9730177  48.1160545  37.0132475  49.6936808   3.2008981
  37.2594880  49.6588014   2.2765683  36.2657582  50.2910058   3.2272577
  80.1861234  75.4519842  47.4299240  80.9967585  75.8773209  47.1502972
  80.2859754  74.5409969  47.1535873  19.3041456   3.5988590  42.0409489
  19.0568805   2.6755527  42.0919132  19.0612257   3.9592916  42.8937721
  29.3092847  12.4656928  37.7584314  29.4510603  13.3908391  37.5578427
  28.9996552  12.4617112  38.6641622  56.2903404  18.1351399  65.0277138
  55.9231091  17.5921321  65.7252169  56.1562538  17.6233602  64.2300081
  43.8649212  66.1463026  26.3623714  43.0079936  65.9779791  25.9704875
  44.3857407  65.3746013  26.1399936  62.7336704  69.7846822  12.6169586
  63.1590282  69.1311840  13.1721591  61.8309652  69.4773511  12.5338744
  34.2967010  39.6482754  49.9735975  34.5135069  39.0789366  50.7118940
  35.0997472  40.1422167  49.8081541  41.9696331  30.3907180   0.9049814
  41.5987110  31.0251212   0.2916440  41.3119602  30.3129888   1.5961075
   0.7515245  46.3900129  12.4061202   0.9056001  46.3224558  11.4638233
  -0.2010770  46.3622514  12.4956512  29.9427891  39.3648362  54.3367481
  30.6753325  39.2469740  53.7319994  30.2565455  40.0103188  54.9701071
  39.3059564  17.3065031  59.2952919  38.9597893  18.1941617  59.3872738
  39.9370265  17.3686326  58.5782671  12.8011716  79.5480664  68.3528709
  13.3974136  79.8807675  67.6820230  11.9386638  79.5687403  67.9382801
  27.6633215  31.0258222  45.1263905  28.6091948  31.1173940  45.2411413
  27.2867513  31.6934109  45.6997585  27.7095358  63.2924895  16.4698600
  27.8291397  63.2833509  17.4195098  27.9835245  64.1697697  16.2023734
   6.3994449   7.6503718  66.1162758   6.0258186   6.7803752  65.9757757
   7.0486039   7.7476168  65.4195929   5.4763953   5.9752601  15.7145309
   5.3030578   5.8958668  16.6525459   4.6450154   6.2680334  15.3412723
  20.0932169   9.6316856  62.3214054  19.6239424   8.8528067  62.6203346
  20.8606339   9.2880988  61.8639660  42.8645992  35.6781459  44.8717737
  42.7119923  35.3988600  45.7745123  43.8086414  35.8289599  44.8240614
   5.1727872  67.4829272  14.5227146   4.5962196  68.2226447  14.7140788
   4.6346574  66.8889193  13.9994525  37.4306469  55.1101283  22.3916339
  37.2259228  55.8176843  23.0029296  36.6781770  54.5210461  22.4464321
  67.0112478  57.3892276  22.6863956  67.5564705  57.4840740  23.4673976
  66.2817632  57.9923753  22.8288555  19.9617517  43.8497496  57.8308916
  20.0769567  44.3107319  58.6618280  19.6967149  44.5315218  57.2135019
  35.5634046  20.4404545  25.9242725  35.4570532  20.1217341  26.8205619
  36.4646149  20.7611465  25.8894587  38.0711246   2.4070881  61.3344193
  37.1943259   2.0657323  61.1585474  38.6623001   1.7375037  60.9903240
  59.0699469  67.7317814  22.5885867  59.3862759  68.0182103  21.7317771
  58.1585204  68.0228643  22.6169776  32.1356535  37.2491741  43.8737249
  31.1922956  37.2752953  44.0338087  32.4691105  36.6164494  44.5098829
  15.2240634  56.0950661  67.1214199  15.2634990  56.1247492  68.0773497
  15.1184940  55.1664162  66.9147825  48.2520580  33.3076239  48.1026316
  47.4455070  33.6451793  47.7130651  48.5049343  33.9722013  48.7434292
   3.8917139  27.5774717  51.7098856   3.9513904  27.5619507  52.6650953
   4.6518040  27.0763803  51.4142466  41.9065189  24.7221255  41.5702200
  42.6047564  24.7530317  42.2242355  42.2615814  24.1793609  40.8662510
  57.8953182  55.9210984   2.4121236  58.8483511  55.8437983   2.3676013
  57.6189672  55.1740722   2.9429864  77.2603571   3.9794230  33.2395577
  77.3575205   3.1525469  33.7118554  76.7610586   4.5381951  33.8351297
  51.9156538  60.2372889  11.7997646  52.6399957  60.2472548  12.4254321
  51.5930401  59.3363480  11.8211841  27.3104334  29.7808766  49.0989399
  27.1718216  29.8875856  50.0400209  27.9537940  30.4529381  48.8738823
  34.2177272   6.3855833  42.8473330  33.8599586   5.5051017  42.9612780
  34.6298170   6.3667381  41.9835854  13.1622422  49.6816587  45.3434944
  12.5343752  49.1029644  44.9109077  12.7548683  50.5470753  45.3070307
  30.8631992  34.4165015  52.3848104  31.0263491  35.2461553  52.8334665
  29.9424696  34.4607139  52.1268702   7.3076407   3.8457483   8.1393813
   7.3386089   4.6588701   7.6352929   8.2258908   3.6284965   8.3001518
  77.7649766  14.4333601  34.0950251  77.5569677  14.5373118  35.0235486
  78.4257007  13.7411046  34.0736318  48.1805277  15.0275075  11.8465662
  48.4319019  14.2351305  11.3720345  48.1309891  14.7528017  12.7621615
  42.6853752  26.1647582  68.0508947  42.4250937  25.5225468  68.7112379
  42.0839930  26.8981838  68.1799555  76.7805846  79.9369497  50.0337076
  76.1386485  79.9460853  50.7436848  76.5027017  79.2158985  49.4688177
  46.2414466  64.3388204   2.9711723  46.7235290  63.8171534   3.6128043
  46.4838313  65.2437715   3.1675052   3.7313223  32.3105669   3.7287596
   3.5181883  32.9674888   4.3915266   3.4821779  32.7177835   2.8991008
  11.1289680  34.0288830  18.9398336  11.9788837  33.6120105  18.7980890
  10.7965779  34.2007327  18.0588019  32.2600796  56.2570349   2.0107984
  31.3087182  56.3549105   1.9712543  32.5738769  57.0985595   2.3418569
  41.8854486  50.8989112  16.9139671  41.9848346  51.2697260  17.7908038
  41.1773955  50.2609114  17.0025634  43.2197475   6.7278636  51.6402626
  42.2827435   6.8659353  51.5017414  43.6434650   7.3115200  51.0109472
   4.3476194  21.0118055  40.8322763   4.3031815  21.9602203  40.7107496
   4.5292559  20.6665826  39.9581718  10.2130342   5.2570659  42.2977066
  10.6124783   4.4679782  42.6637888  10.6104624   5.3469563  41.4315653
  32.2712827  41.2931728  62.7686787  31.7933083  41.0343695  63.5565853
  31.9130063  42.1514320  62.5422764  36.2004232  30.4491186  41.7336178
  36.0443640  30.5123782  40.7913446  35.3478551  30.6283283  42.1301556
  74.7027874   5.3151280  53.3245897  74.4010830   4.4075152  53.2865620
  75.5412102   5.3083682  52.8628159  21.4459825   3.0107823  64.5057344
  21.9041324   3.2452688  65.3127956  22.0259571   2.3829329  64.0748453
   8.9959806   9.0197021  67.5794506   9.2770636   8.2428688  67.0959711
   8.1087047   9.1904223  67.2634983  26.3102174  21.0430026  52.0356035
  25.8828568  20.2495623  51.7130423  26.0292387  21.1123610  52.9480028
   6.2643462  22.0160246  45.4255342   5.7851082  21.3626480  45.9351015
   6.8476027  22.4334621  46.0594034  21.8168224  67.0586977  46.3927984
  21.1178411  67.7089725  46.4621162  21.3606609  66.2332712  46.2290287
  64.6976471  16.7223918  55.4387283  64.6066427  17.5513196  55.9086514
  63.7985039  16.4213502  55.3077602  61.2400798  65.5258689  27.7328539
  60.9047649  64.6551226  27.9463840  60.5229462  65.9496937  27.2613406
  36.2266326   9.5776069  53.4479475  36.6926813   8.7419224  53.4736824
  35.3006363   9.3353063  53.4405756  39.0401196  30.3975296  47.4494076
  38.9782310  29.8542309  46.6637707  39.3354201  31.2496758  47.1286726
  21.9717979  45.8033895  47.0650768  22.1078563  46.7251539  47.2843361
  22.4906158  45.6666517  46.2723827  78.0851455  65.5779503  50.0840998
  77.1398015  65.4293130  50.1056051  78.1831427  66.4379869  49.6754885
  23.0844784  10.9451210  49.7951937  23.4465170  10.9676337  50.6809998
  22.7061224  10.0696993  49.7132635   5.8748776  25.0194407  35.3074145
   5.2101797  24.4604707  35.7098579   5.5824614  25.9115934  35.4939222
  46.0237646  22.3177934  54.1307259  45.1965380  22.1159863  54.5679903
  46.6902494  21.8946290  54.6719837  17.0755720  11.9496560  41.9929695
  17.6405931  12.2170842  42.7178574  16.8586779  12.7668786  41.5442657
  78.7390683  17.3863930  10.2955531  78.8852427  17.8126472  11.1400508
  79.2982123  17.8666729   9.6848773  61.3783693  29.8118877  46.8631840
  60.9312010  30.3301454  47.5322723  62.2253323  30.2437878  46.7520475
  70.0411593  25.6181220  26.5402316  70.7208144  25.9186343  27.1435451
  69.5475613  24.9679653  27.0401191  12.5114645  64.5396469  51.2085915
  11.9572080  64.5421563  50.4281902  12.6433052  63.6122964  51.4057446
  18.4841716   0.5686484  45.7131815  18.2581735   0.9586999  44.8687792
  18.2465303   1.2362423  46.3566685  84.1965816   4.3171161  26.6405391
  84.1043089   3.4254593  26.3048744  84.5121334   4.2040581  27.5371265
  41.5887833   7.7164614  36.8352509  42.1908140   8.4104866  37.1037984
  41.7690754   7.5901818  35.9037042  33.3102441  23.4743953  29.2949986
  32.4062490  23.7006497  29.0762877  33.8316369  24.1869164  28.9252782
  84.9113209  32.2398281  35.9349108  84.5108888  31.5380907  36.4481854
  84.5392929  32.1380472  35.0588584  40.7465363  36.9753122  52.2705364
  40.6583261  36.2301493  51.6762447  40.9218311  37.7205062  51.6959143
  40.3484297  40.7802582  68.9665794  40.2958059  40.6335735  69.9110079
  41.2331200  41.1173773  68.8254881   6.1106528  57.1801529  69.5187330
   6.4928139  58.0564628  69.4711351   5.9900249  56.9215093  68.6050701
  52.0756054  14.3007994  58.6891079  52.5745344  13.5264266  58.9491987
  52.2421694  14.9375999  59.3840694  77.5314496  32.3183721  21.0496711
  77.3591397  31.3831753  20.9403705  77.5033877  32.6725668  20.1608562
  16.7839551  32.0075893  46.1235762  17.0626080  31.6898465  45.2647257
  15.8977532  31.6620779  46.2308121  48.5699129  22.5215554  35.0031805
  48.6254215  23.4610677  34.8286343  48.0437994  22.1747541  34.2826533
  17.6887393  13.5503089  22.6140308  17.3449051  13.6185884  23.5047340
  16.9099283  13.4977198  22.0600271  60.7124006  44.9621905  20.3672695
  61.2402021  45.7404641  20.5460166  61.3529073  44.2776452  20.1739311
  10.8746828  72.7884827  47.1190548  10.0743784  73.2021520  47.4425077
  11.4252747  72.6919154  47.8960705  50.5702769  49.3798129   4.4661855
  50.7728683  48.7453614   3.7786865  50.2267300  48.8510768   5.1863574
  31.9688368  36.8124509  55.4494762  32.2139955  36.8044877  54.5242357
  31.6470957  37.7005529  55.6043673  71.9353472  33.9668773  13.6363029
  72.4346529  34.7759161  13.7475776  71.0367524  34.2069821  13.8623809
  80.9121463  15.8429396  45.5805588  81.4842734  15.1325107  45.2903986
  81.4924642  16.4402640  46.0524368  50.3840433  43.6454083   0.6510734
  49.8650848  44.4401256   0.5272197  51.2231957  43.9576505   0.9895372
  15.1159061  74.2924182  65.9407902  14.3284858  73.9586268  66.3706493
  15.6414665  74.6567104  66.6530466  11.5567816  72.7810190  51.4522839
  12.2643865  73.1984542  50.9610891  11.7317976  73.0093811  52.3652220
  21.6928625  30.3709674  59.2904711  21.8099999  30.6806111  60.1885986
  22.4424887  29.7962475  59.1355801  45.3651992   7.2354168  22.1054649
  45.8225910   6.4469332  22.3975562  46.0411827   7.9129690  22.0910453
  28.3023310  47.7892876  33.1663752  27.3703766  47.6252365  33.0222344
  28.6212134  48.1148529  32.3246217  18.4807503  18.1348193  64.4954109
  19.2691803  17.6928914  64.1802788  18.6776471  18.3557415  65.4057169
  39.4293594  22.3509812  67.0708752  40.1836872  21.9720602  67.5221395
  39.7820425  22.6677871  66.2393188  38.8807154  27.3678923  61.4760113
  38.5800862  27.2963262  62.3819494  39.1842484  28.2720804  61.3950968
   0.4230125  51.5029621  20.9832978   0.5802532  50.7857180  20.3692389
   0.2219325  51.0687685  21.8123174  49.0593100  14.6590745  57.5583172
  49.9926090  14.4981539  57.6972151  48.9566851  15.6016886  57.6893854
  33.4809780  30.5449605  23.1740069  33.3782935  29.6212673  22.9449320
  33.1909895  30.5995727  24.0845871  60.9593259  65.6987790  20.8126640
  61.6183936  65.4864124  20.1517772  60.3034197  66.2117891  20.3406047
  47.9890891  66.7589575  63.0872191  47.3235973  66.5137917  62.4443764
  48.6785277  67.1764690  62.5708956  30.5727863  13.9262676  18.5151112
  31.1061239  14.7137666  18.6229408  29.6898484  14.2560005  18.3479893
  57.4521685  20.8797097  42.7560043  57.6685619  20.0936961  43.2575893
  56.5764809  21.1223221  43.0569077  51.9733953  48.4576082  69.1683102
  51.3925743  48.0069351  69.7813129  52.8468847  48.3541107  69.5458603
  68.9048325  39.7634958   5.9594583  68.4948431  39.8092894   5.0957202
  69.5918023  40.4295751   5.9341192  69.9231380  31.7302012  61.5129328
  69.6356612  32.4774384  62.0375538  70.1962632  31.0765338  62.1566343
  39.6275805  36.6342590  17.8082370  40.3158199  36.6925956  18.4709262
  39.7674357  37.3989366  17.2497176   4.1905829  25.2954555  18.6494136
   4.2416850  26.1502218  18.2216346   4.6546957  25.4142213  19.4781029
  57.8776829  60.1314221  67.1540689  58.1599970  60.0032173  68.0596590
  57.8913325  61.0805831  67.0310259  43.1972885  30.0589657  47.5751305
  42.5401974  30.7061601  47.8312635  43.6224222  29.8113990  48.3962297
  31.7541790  28.6449957  62.6647234  31.4392209  29.4001412  62.1679449
  32.3646045  28.2062054  62.0722055  13.5105194  53.2844267  57.5269318
  13.0972637  54.1440568  57.4463940  14.2595018  53.3220635  56.9320869
  61.9302485  27.7018493   9.7546386  62.4509571  28.4145111   9.3842172
  61.5565882  28.0694670  10.5555534  27.0890498  25.4402614  67.3285818
  27.8139830  26.0175443  67.0888948  26.5772581  25.3519726  66.5245247
  17.5912046  12.9931736  25.6008148  16.6627812  12.7655816  25.6504512
  18.0202055  12.1875679  25.3123903  36.8941927  21.2336230  42.5504971
  36.4092898  20.9877110  41.7626953  37.5820470  21.8198299  42.2351408
  46.6370153   4.5170325  38.9666390  46.6537189   3.7361419  39.5199585
  47.3844242   4.4097513  38.3783364  24.0534425   4.0511343  34.1040564
  23.9032078   3.1084722  34.0329957  24.9466825   4.1266811  34.4396877
  33.6859487  47.9207526   2.1002149  33.3668153  48.1484125   1.2269687
  34.2713260  47.1774558   1.9550418  26.3905048  23.9435482  31.7009997
  26.4284229  23.1517267  32.2374845  25.7745171  23.7289548  31.0004711
  50.2931404   7.9125148  32.0286012  49.7179365   7.1554714  31.9178772
  51.0733891   7.6972538  31.5176129   3.9075965   0.8224312  55.0617743
   3.4285849   0.4802027  54.3070126   4.0291899   0.0636122  55.6324244
  32.7194929  12.9633224  35.3460574  31.9057250  12.4889719  35.5163717
  33.3695006  12.5301731  35.8993244  56.6457783  73.2209877   1.7615747
  57.2137295  73.0018143   2.5002431  57.1194874  72.9035238   0.9927797
  40.0511169  37.7052760  54.7340822  40.1202631  37.3779202  53.8372612
  40.0432682  38.6579442  54.6413708   6.2183846  65.2236650  33.6908650
   5.9864772  65.6316660  32.8566074   7.1755398  65.2158270  33.6957717
  23.5623141  76.6871003   8.8582515  23.5538556  76.3168554   9.7409057
  24.0686398  77.4950627   8.9422750  32.4395156   4.8799825  57.2507954
  33.2708120   4.8524445  56.7770672  32.4805379   4.1347051  57.8500509
  81.1162999  40.0074196  67.4774647  81.9797280  40.0937557  67.0734024
  81.2182075  40.3969765  68.3458519  63.4035074  58.4482423  14.7102832
  62.5463067  58.8606457  14.8168849  63.6036884  58.0853788  15.5731201
  84.7048085  56.5070991  17.1467399  84.1017335  56.5083555  17.8900623
  84.6473067  57.3935405  16.7901611  40.1146126   4.7003347  27.8378415
  39.8293328   5.2061117  27.0768976  40.8955431   5.1573467  28.1501150
  50.3305817   8.7832665  48.9134121  50.7557201   7.9294920  48.8324165
  50.7024622   9.1613734  49.7102642   5.6138950  77.3035673   1.1287546
   6.3131337  77.4804405   0.4994582   6.0137229  77.4663333   1.9830798
  39.9637485   8.0618209  40.9869957  40.0260782   8.7846708  41.6113615
  40.7232428   8.1731105  40.4151440  12.2927094  12.8098309  52.7444267
  11.5097821  12.7398121  52.1982098  12.3999631  13.7498105  52.8899240
  60.9836804  37.4010355  22.5421142  61.8525707  37.8025133  22.5332450
  61.0345899  36.7349658  23.2276725  18.3961105  42.1723938  32.5068521
  18.5180998  42.8815651  31.8756413  18.8954043  41.4405870  32.1443653
  21.2986517  12.3858035  47.8843546  20.8627748  11.7688870  48.4722853
  22.1321154  12.5780296  48.3140278  61.9812874   0.3839201   5.7844924
  61.5774048   1.1417526   5.3616475  61.2440113  -0.1765829   6.0263442
  35.0141811  10.3799403  62.5919342  34.4064236  11.0999608  62.7605534
  35.5387616  10.6783128  61.8489552  51.2055098  58.2780806  18.8582515
  50.6464611  58.1220953  19.6194076  50.7075940  58.8906411  18.3168792
  36.3382602  29.3270588  64.0831137  35.6404829  29.8463583  63.6835289
  36.4616942  29.7172570  64.9484110  65.3691040  50.1312170   8.3711719
  65.2328836  50.3949539   7.4611616  66.2195813  50.5037967   8.6037778
  46.5682030  36.3243675  48.5373259  46.1753225  35.6161833  48.0270767
  47.5091171  36.2353587  48.3856916  31.6578348  66.4129476   1.5250396
  31.0544135  65.9983901   0.9083890  31.1388611  66.5400223   2.3192357
   2.8225893   4.0989369  61.7482376   2.2596505   3.3248675  61.7360592
   2.7611899   4.4537187  60.8613396  61.3210665  68.4785036   0.6156635
  62.2262346  68.4154538   0.3108215  61.0527622  67.5708870   0.7587623
  20.1486492   1.6909145  61.9877434  19.6849716   1.6300093  61.1525631
  21.0597491   1.8550424  61.7444515  29.0224409   4.4155243  36.5608692
  28.8924646   5.2691233  36.9740367  29.6170926   4.5905304  35.8314896
  24.2996397  72.3302893   8.9426898  23.8466876  73.1282143   8.6699628
  25.2293785  72.5477914   8.8755369  77.7752757  11.9491994  53.2046890
  77.5874883  11.0106421  53.2135296  78.7077564  12.0088530  53.4124231
  65.3519440  30.5571055  40.5281734  66.1844778  30.4720902  40.0635338
  65.5627537  31.0760474  41.3043737  14.5741963  38.0020189  32.5927448
  14.2092800  37.8177214  31.7272377  14.2756772  37.2744513  33.1384206
  18.6100888  17.6243770  51.0831356  18.1016517  16.8378246  51.2807703
  18.1679535  18.0118477  50.3277445  37.4998140  43.8043070  30.2010274
  38.1467247  43.2957077  29.7120857  37.8782439  43.8957644  31.0754752
  50.3328120  48.2349304  11.6481971  50.1770054  48.7971602  12.4070548
  51.2850295  48.2214026  11.5516185  23.0381489  24.9210215  41.3961506
  23.3639026  25.8021045  41.5800238  23.5460520  24.3522811  41.9747734
  18.9350375  56.3840944  62.1837271  19.6988865  56.0621029  61.7050964
  18.4977778  55.5924982  62.4974323  36.4837360  19.9550128  31.8389988
  37.2451115  19.9072683  31.2608480  36.4872169  19.1211486  32.3089886
  41.0157776  35.1143503  50.3962564  40.4699373  34.8169518  49.6683502
  41.6675806  34.4219041  50.5053568  20.5374146  23.6951637  42.7849483
  21.3284326  24.0598512  42.3880529  20.4265833  22.8445840  42.3601389
  34.5296144   3.8058338  55.9655142  34.1659856   2.9226846  55.9018469
  35.4778743   3.6755607  55.9576035  24.3269205  18.6206579  25.7168412
  24.8637366  18.5819376  26.5083981  24.6206665  19.4127154  25.2667427
  13.3970177  36.6151285  61.0615778  14.2928755  36.8393636  60.8098125
  12.8811598  37.3851490  60.8224392  19.7603571  21.5661240  40.6355524
  20.3338218  22.0807290  40.0676155  18.9145029  22.0117569  40.5889225
  69.7626686   4.1982809  49.5619678  69.2463446   4.4796389  48.8066673
  69.1149330   3.8727522  50.1870298  24.8893272  15.0698189   5.4254674
  24.3616946  15.8435945   5.6232261  25.3418972  14.8725514   6.2455272
  11.5792727  40.6671286  38.8083959  11.2177944  40.0602531  39.4543576
  11.8012238  40.1148081  38.0587864  13.9204335  43.2546234  60.6007910
  13.1525934  42.6835060  60.6227064  13.6342382  44.0575361  61.0362864
  27.9552603  17.6688218  59.5823431  27.4681067  17.1214175  58.9665031
  28.0090880  18.5226727  59.1530752  16.8548751   8.6993158  54.9013615
  16.2565446   8.0815756  55.3216362  16.7603219   9.5062995  55.4073906
  63.3549558  66.1484341  25.0809097  63.7819158  65.4322294  25.5510043
  62.8035365  65.7130984  24.4307899  26.5508151   6.2207395  11.5712130
  27.0524144   6.7385918  12.2008622  25.6909204   6.1158341  11.9784045
  56.4455854  26.7946676   1.9569253  56.6465293  26.2850646   2.7418851
  55.4988610  26.9305424   1.9954252  45.0454760  18.9842427  62.7697706
  44.1173220  19.2105353  62.8293943  45.3499556  18.9808702  63.6772490
  67.4881411  21.0359764  21.1064339  66.7825413  21.2900949  20.5116391
  67.2340584  21.4065599  21.9516206  68.4244261  20.8352608   9.0177297
  68.7762521  21.6656107   9.3386220  68.9231417  20.6558794   8.2206535
  25.1054072  51.0107327  17.7060962  24.5527720  50.7931995  18.4567678
  24.8678231  51.9116879  17.4868608  77.2637601  57.4554572  20.4952621
  77.2763033  57.0274291  19.6391845  76.3609834  57.3585258  20.7983017
   5.2302700   4.5974305  36.6578650   4.7475368   3.8228938  36.9464707
   5.6550115   4.3255529  35.8442879  16.2364876  21.5126204  54.0202570
  16.9362772  21.7030597  54.6449661  15.9565163  20.6235361  54.2379236
  34.9390125  34.4592357  47.3410606  35.0602603  35.1992416  47.9359722
  34.8039937  33.7076020  47.9181623  55.0653219  23.6566830  53.1136322
  55.8065081  23.2573605  53.5690641  54.2984009  23.1969643  53.4552765
  81.4172864  20.2839518  40.1471043  81.1788505  21.2104416  40.1154995
  81.2403378  20.0217795  41.0505342  23.7699676  12.1161830  34.3516183
  22.8242111  12.0723236  34.4925308  24.0938544  11.2602079  34.6320391
  49.1705608  25.9576488   9.7451329  48.9387894  25.8651280  10.6692278
  48.9969826  25.0955248   9.3671882  32.9819608  36.4470029  41.4062452
  32.7528286  36.6848111  42.3046780  32.2441387  36.7566729  40.8809328
  16.5903187  26.1912107  43.5170984  16.1697447  26.1414123  42.6586866
  15.9939766  26.7216039  44.0455818  39.9771963  72.3961572  12.8524017
  39.8956167  73.2735399  12.4785327  39.1987919  71.9315294  12.5450897
  29.7092772  24.2504168  41.2496471  29.9270844  23.3185291  41.2301874
  28.8680506  24.3092775  40.7967663  28.6009801  71.2623195  41.8231249
  28.8213934  71.3515971  42.7503157  28.2010711  70.3953795  41.7544031
  47.9097973  58.1173031  29.5866203  48.4406411  58.8979499  29.7448158
  47.0642399  58.3172206  29.9882316  37.2673010  73.9928846   4.8023414
  37.7005445  73.3583526   5.3732204  37.3570829  74.8281960   5.2610635
   9.1808820  11.2301409  65.3751707   9.3565226  10.5196023  65.9920311
   9.8728341  11.8698049  65.5432940  82.4438825  24.6933818  32.0259047
  82.1536303  25.5723715  32.2695541  81.6350922  24.1878057  31.9453859
   9.9612045  33.9064384  51.8798399   9.2278409  34.4954276  51.7023563
   9.7357595  33.0978656  51.4198208  81.1161744  55.9103088   4.7513007
  80.9668766  56.6109053   5.3862094  82.0610367  55.9228079   4.5986032
  10.8092536  74.7982202  54.6755695  11.3293732  75.0961743  53.9292908
  11.0184158  75.4167501  55.3754997  40.1055502  64.5308236  10.1602125
  41.0228371  64.7617082  10.0135564  39.9154650  63.8700561   9.4942664
  54.1430950  20.3610110  44.0174770  54.3857765  21.2758589  43.8746738
  53.2198286  20.3165150  43.7688112  46.1471272  41.2204027  60.1064444
  45.8695507  41.4599991  60.9906244  47.0985746  41.1360836  60.1687002
  33.3470798  13.4825945  49.0097189  33.3390093  13.7784111  49.9200249
  34.2757630  13.4015703  48.7924290  23.6328769  35.3658223  49.3136501
  24.2032695  35.7335401  49.9886799  22.7480435  35.4757357  49.6618176
  53.9270889  54.4911794  13.1206703  54.4108449  53.7339942  12.7906989
  54.0474068  54.4572667  14.0696716  66.9037008   5.0283152  50.7564020
  66.7050362   5.8546704  51.1967421  66.2304068   4.4232342  51.0675049
  13.3043551  18.2320476  42.9794836  12.4645293  18.6173129  43.2294750
  13.8574743  18.9828217  42.7635431  23.9341640  27.6650143  67.1260881
  24.1992044  26.7454934  67.1476316  24.4919825  28.0903840  67.7773428
  52.9512358  35.9520721  63.1846666  52.2304153  35.6377769  63.7304449
  53.0299854  36.8806267  63.4033394  37.4969316  34.8742008  46.0428286
  37.3526645  34.6064448  45.1352310  36.7175817  34.5712042  46.5086985
  20.2933971  25.2617973  16.7346477  19.8887674  26.1252779  16.6515064
  20.6978027  25.1036543  15.8816146  16.3190317  20.8026528  51.3226795
  17.2433543  21.0259867  51.4321327  15.9001625  21.1170363  52.1238899
  68.4250021  41.5728331  59.0490103  69.2225885  41.9397449  58.6676121
  68.6968899  41.2500000  59.9081278  39.7457337  41.8217039  46.9427967
  40.2994680  42.1753979  47.6388645  39.6097660  40.9061670  47.1868134
  27.2646260   5.7359171  48.5829735  26.9115925   5.6371582  49.4671965
  27.1438694   6.6633165  48.3790636  54.6518803  65.9143066  38.2255793
  54.5333529  66.3946962  39.0449739  55.3782940  66.3598585  37.7896476
  32.3498154  46.1150026  63.3744192  33.1209636  46.5202379  63.7710905
  32.2247243  45.3043509  63.8678026  41.5418528  60.7292561   3.8806199
  41.9324194  61.5978984   3.7849664  42.2886692  60.1428549   4.0015792
  23.7316084  37.5043321  37.2896981  23.4468341  37.8205419  36.4322901
  24.6750760  37.3731732  37.1953559  39.4321370   8.4950089  28.1176925
  38.6435318   7.9592484  28.0322933  39.6498609   8.7455606  27.2198892
  34.3659496  63.2995176  38.2544565  34.8224711  64.1071892  38.4900045
  33.8141894  63.5441971  37.5115418  40.1256453  44.5198790   6.4765453
  39.2521058  44.4184698   6.0985517  40.2408813  45.4661874   6.5628814
   7.6732570  44.6325970  47.5666523   8.1888956  43.8959408  47.2384930
   7.8151035  44.6214294  48.5132170  25.0118793  79.8816163  60.3669786
  24.3103565  79.7217321  60.9982777  24.6564211  79.5776187  59.5318365
  18.4747481  66.0549355  65.9207964  17.7575469  65.6489658  65.4339218
  18.4496403  66.9758129  65.6608105  67.4248706  67.3241929  12.1861743
  68.2283222  67.8293041  12.0614242  66.7201029  67.9515652  12.0251178
  48.5765587  57.4526827  26.5635490  47.6749312  57.2058968  26.7694568
  48.6683499  58.3386890  26.9139861  14.3326759  27.3954129  64.0911579
  15.1122355  27.7606463  63.6726809  14.5914543  26.5106177  64.3488503
  79.7263765  50.0986338  52.3566914  80.0973129  50.7690382  52.9304504
  79.3950367  49.4284344  52.9544163  82.6896951  26.2201542   7.3839282
  82.3067639  26.8283266   6.7516946  81.9465325  25.7100052   7.7059364
  42.9110813  49.0137196  61.0628986  43.0561161  48.3221436  61.7085886
  43.4825134  48.7816238  60.3308964  56.8559572  17.6451057   5.0364446
  56.2605211  17.1593708   4.4656991  57.5791421  17.0394796   5.1990842
  31.2426305  20.3784108  26.1934280  31.5349317  21.2886143  26.2416244
  30.6448436  20.3580737  25.4461193  71.5298843  31.3015056  56.7536926
  71.5084219  31.4801168  57.6938343  72.1367550  31.9518399  56.4001369
  80.8402434  66.3275242  56.5948057  81.4557433  67.0578384  56.6583347
  81.2898687  65.6821108  56.0493612  22.3216343  36.0354233  42.0243263
  21.3769794  36.1168861  41.8930769  22.6692462  36.9000983  41.8058491
  50.4446316  21.7705154  47.6865149  50.0366831  20.9056735  47.7296305
  49.7280550  22.3820686  47.8560734  46.4743137  41.1758041  65.8372068
  47.2564840  40.8612633  65.3838778  46.5236759  40.7759905  66.7055082
  35.1039735   0.3407043   3.8155126  35.3948585   0.2780384   2.9057359
  34.5838062  -0.4504973   3.9556932  63.6956726  59.9733440   1.4498758
  64.2052161  59.4230954   0.8550453  63.2247125  59.3527154   2.0059776
  44.3413067   0.7663140  34.5696044  44.3702030   1.4756796  35.2116299
  44.9715662   1.0257390  33.8975143  73.8214827  42.3145533  10.5181766
  73.3139610  43.1166649  10.3946054  74.2228270  42.4156380  11.3812733
  48.9553738  21.8333292  54.2427015  49.6921301  21.9732094  53.6478424
  48.6753464  22.7150011  54.4886065  78.8736664  67.2380380   6.8976020
  78.8446509  66.4121298   6.4146280  78.4820973  67.8773836   6.3024997
  58.6309778  63.0304484   4.7146606  57.6788913  62.9751066   4.7965431
  58.7901555  63.9033560   4.3555927  61.6703081  63.5192680  15.0153708
  61.4833117  64.0187073  14.2204964  62.6112413  63.6298370  15.1519120
  63.7678753  43.4932540   5.0525235  62.8279673  43.3318094   5.1346397
  64.1643130  42.6226778   5.0866699   9.8829800  27.9777241  68.2866383
  10.0642443  28.9169145  68.3226633  10.3771186  27.6673555  67.5278664
  46.1302567  49.7496891  63.2912874  45.6522417  50.4056358  62.7838755
  46.8496370  49.4820213  62.7193785  20.3842425   0.1258141  67.3264503
  19.9688876   0.8761475  66.9013500  21.1057997   0.5042925  67.8287840
  45.2537060  27.6219368  37.2857618  44.6042347  27.1146822  36.7988181
  45.5022860  27.0548725  38.0157447  27.6947252  24.1831106   7.8217601
  27.2955982  24.9855512   8.1579446  27.2668926  24.0381616   6.9778537
  42.0436621  19.8991632  58.8480949  41.9789028  19.8709607  59.8026848
  42.8172445  19.3733299  58.6448717   1.4371328  54.9973392  53.6955404
   2.3561531  54.7596025  53.5725927   1.3065724  55.7531452  53.1228781
  13.2812683  12.5342459   1.8709754  13.4833566  13.2458252   2.4784707
  12.3955814  12.2602648   2.1091413  30.3245211  28.5649681  44.7783279
  30.6153560  28.5317111  43.8669872  30.2906585  29.4989777  44.9849987
  41.9859266  37.2996092  65.0198936  41.3206148  37.1408606  65.6895113
  41.4997864  37.3031354  64.1953421  49.5947695  57.9619455  56.4487171
  49.2950535  58.4969425  55.7137442  49.9724054  57.1832228  56.0398102
  46.1090374  34.1143894  46.7367077  45.2603388  33.6744213  46.6879797
  46.2054348  34.5436621  45.8866119   9.7981393  30.8177614  68.3144617
   9.5271397  30.8652091  67.3976517   9.3149507  31.5237045  68.7438869
  73.1825063   4.5988458  12.7523231  73.4317885   5.4832691  13.0204391
  72.6587830   4.7270054  11.9614314  15.0032941  22.4892658   3.1940889
  14.3313257  22.0645899   3.7273263  14.7426836  23.4099621   3.1689882
  71.5146799  80.3399906  45.1813984  70.6761594  79.8942424  45.3014994
  71.7248280  80.6920452  46.0463428  25.0569034  33.6901617  68.2797432
  25.4480481  32.9314256  67.8466654  24.9590421  33.4206104  69.1929770
  36.5267563  43.6103678  58.0295181  37.3223186  44.0833807  57.7854395
  36.7774558  43.1020546  58.8008785  58.6187374  72.7121762   3.7831783
  59.0615164  72.0034627   3.3163785  58.4851967  72.3700194   4.6671104
  10.6165494  69.3602262  29.6487331  10.3729571  70.2810023  29.5535254
  11.1075629  69.1587708  28.8521433  19.4730321   2.3380321  19.4742107
  18.6595813   2.0702690  19.9018001  20.1059238   2.4121898  20.1884746
  25.5277578   1.7803615  17.4589252  25.0346891   1.0128063  17.1691417
  25.4030553   1.8009371  18.4077453  11.3135338  37.6685929  65.8868074
  11.1577749  37.6043582  66.8290615  10.9054875  36.8830967  65.5224943
  18.5697269  28.6086273  45.0386858  18.8855636  27.8352404  44.5714045
  19.3487859  29.1522193  45.1561975  15.2911512  10.8646768   0.9734630
  14.4709436  11.3459343   1.0824680  15.1950780  10.0969166   1.5369748
  62.9452311  52.0000402   9.7093629  63.4625064  52.7083806   9.3260717
  63.3557140  51.1995963   9.3822145  63.4939575  13.5874987  66.7993116
  64.1019773  13.1828547  67.4180222  63.0723953  14.2860270  67.2998857
   4.0382227  41.1563444  56.0739136   4.1976461  40.3154421  56.5025139
   3.9044333  40.9340096  55.1525545  24.8076582  35.7814908  57.9281712
  25.5523276  35.8121896  57.3275423  24.5727205  36.6991925  58.0654955
  79.7219942   3.5930866  25.6340217  79.0702818   4.2938846  25.6143283
  79.9240349   3.4279531  24.7130775  19.3274498  21.0249138  45.3041840
  19.1243398  20.5204296  46.0918856  18.6792421  20.7368255  44.6614838
  11.3029898  79.4587900  28.4829903  11.2049378  79.9234754  27.6519156
  12.0054687  78.8284495  28.3235240  46.5985500  76.8926696  10.5544471
  46.7701100  77.8318481  10.4856014  47.0308815  76.5134935   9.7892379
  23.9551902  24.9379110  66.7593098  24.3480802  24.0699697  66.8517590
  23.2390618  24.8115826  66.1368656  19.0573764   9.5659393  38.2554984
  19.7420835   8.9826566  37.9280996  18.2447362   9.2025197  37.9036832
  42.0000744  35.1138115  35.9853530  41.3503981  34.4749498  36.2786245
  41.4988375  35.7458472  35.4700661  34.4722788  78.1468133  26.1995506
  35.3695278  78.1046728  26.5303039  34.3535082  77.3247151  25.7238578
  16.4592496   9.3810839  13.3936691  17.4042312   9.3078083  13.5273551
  16.1718074   8.4848636  13.2193279  50.0402008  54.2647306   2.5509118
  49.8751270  55.2068237   2.5129413  49.2546688  53.8685397   2.1738099
  40.4312002  77.2957257  33.7735080  41.0999631  77.9783897  33.7191200
  40.7686912  76.6811971  34.4251918  43.9275551  35.9224319  52.6418591
  43.6318254  35.2831578  51.9937038  44.5335627  36.4871049  52.1621370
  34.7113562  32.1689701  49.0716219  34.4647741  32.3235011  49.9835157
  35.3608084  31.4671302  49.1147661  36.0140610   7.7072084  35.2348423
  36.5915442   7.8530830  35.9841537  35.2660465   8.2830632  35.3932571
  30.7181096  54.7408199  66.4312696  30.5657005  55.5575800  65.9559679
  30.0094032  54.1630840  66.1480904  38.5890436  34.9245119  54.3261814
  38.2308960  34.9307585  55.2138329  39.1436386  35.7036519  54.2861891
  38.9128280  13.1351662  37.7301121  38.6505246  12.2204471  37.6265764
  38.1693888  13.5493994  38.1682205   0.3905359  41.5475321  36.8088508
   1.1622358  41.6246700  37.3698854   0.1281942  42.4518442  36.6367245
  72.9255555  23.6529583  10.6892394  73.1568036  24.3417543  11.3123893
  73.7457786  23.4527391  10.2382612  44.4725561  35.9546375  63.6465454
  44.1596842  36.4688182  62.9022598  44.6144962  36.5989685  64.3400288
  80.5433724   2.4061531   0.3617477  79.8858807   2.5397295  -0.3209639
  80.9339736   3.2704967   0.4904937  76.4241276  11.0155290  19.9333476
  75.9157632  10.9506172  20.7417964  76.7220400  11.9248909  19.9101161
  36.3025951  37.1407056  31.5028930  35.5142355  37.2541261  30.9719896
  36.1010146  37.5816011  32.3282480  44.6267605   9.9140888  66.1542654
  44.3636131   9.6181315  65.2828312  44.8782444  10.8293402  66.0305691
  63.3654785  47.4303818  39.5852757  62.9810286  47.0141220  38.8138103
  64.2404604  47.0481539  39.6526527   6.8903273  27.5781846  37.5951099
   6.7583960  28.2019663  38.3090591   6.0197848  27.4623156  37.2143650
  29.9123955  22.9664588  57.6563692  29.7931719  23.6262512  56.9732189
  30.3751278  23.4272289  58.3562231  78.4022271  52.6492492  32.4526214
  78.7141882  51.9375960  33.0116081  78.6187922  52.3680703  31.5636539
  46.9358587  30.2948022  55.6140280  46.8803406  31.2243819  55.8354568
  46.0350132  30.0426912  55.4111814  42.4060575   6.4303583   9.4045352
  43.2416240   6.8894953   9.4897079  41.9085590   6.6927236  10.1790618
  13.5381430  34.7003722  45.2167702  13.8373297  33.8270855  45.4699373
  12.8382224  34.9030495  45.8374548   7.5020820  21.6287804  39.2038155
   8.2571316  21.1327076  38.8875198   7.8242528  22.0860291  39.9805760
  41.5197897  35.5104756  59.8509836  41.7948389  35.1580238  59.0046024
  40.5653906  35.4378343  59.8419523  32.5428939  54.9077272  13.0659664
  33.3716059  54.4333601  12.9993188  32.2595310  54.7690248  13.9696801
   7.6053518  38.8633251  17.6141357   8.0493420  39.2859507  16.8789554
   6.9695908  39.5124769  17.9152024   7.6676702   9.5085096  51.3885212
   8.4866756   9.2004609  51.0004902   7.9331762   9.9273336  52.2072554
  40.3327084   7.8774738  54.0973043  40.8790922   7.1878314  54.4742584
  40.5424500   8.6571252  54.6114922   5.2657715   2.7951282  20.7721900
   5.8202163   2.7699894  19.9923229   4.4515411   3.2006830  20.4742145
  46.2443256  23.2557297  49.4798899  45.5276346  23.5202003  48.9031363
  45.8374691  22.6615834  50.1105165  40.8909035  43.3843803  67.5298357
  41.4782953  42.6732254  67.2739935  40.4258585  43.6122561  66.7248297
  40.8674669   4.9663284  62.6784182  40.2124691   4.5198154  63.2149220
  40.3601122   5.3984690  61.9913387  36.7369580  35.5608940  66.6617775
  35.8236456  35.3282547  66.4945364  36.9042778  36.3051510  66.0835743
  32.4263525  32.6483321  59.3058729  32.0246148  33.5111046  59.2035913
  33.2413363  32.7029252  58.8068247  30.4357386  25.8911777  56.5963507
  31.1330724  25.9122086  57.2517252  30.8805585  25.6610537  55.7806206
  82.1231686  60.6122259  29.7530650  81.9320141  60.6063132  30.6909656
  81.5884959  61.3254003  29.4041538  52.1033096  15.5461514  60.9646416
  51.4543581  15.6365228  61.6624451  52.7883434  16.1749482  61.1917400
  31.7170811  16.1463690  50.0820017  32.6710129  16.1500847  50.0030661
  31.5545511  16.0144734  51.0160351   4.2813746   3.8957542  24.5015716
   3.3332507   3.8356632  24.6185493   4.6029154   4.2508692  25.3302669
  50.1039505  21.8449211  44.2575598  49.2697048  21.4155602  44.0680456
  50.4219770  21.4114046  45.0494909  43.6025333  18.7017798  26.4789414
  44.1487122  17.9448545  26.6910386  43.2586193  18.9931226  27.3233771
   4.9358100  37.9027557  52.5769901   5.6386489  37.7383924  53.2056713
   5.3779238  38.2810664  51.8169594  19.6248168  38.2473040  53.9258242
  19.0698355  38.9977670  54.1380310  19.7243327  38.2844019  52.9745340
  57.8211308  70.8977270  69.1969395  57.6462555  71.3180971  68.3549547
  57.0256281  70.4000568  69.3859768  53.6891842  17.8615487  62.0689964
  53.8897181  17.8881264  63.0045795  53.0552340  18.5669851  61.9397926
   2.0343989  78.8891888  38.8864803   1.0943049  79.0527010  38.8109183
   2.1300620  78.4201384  39.7153783  10.7731074  23.2968235  57.1269751
  10.1441210  22.5782132  57.1918297  11.5983123  22.8723788  56.8922186
  45.2308750  47.5360537  49.4779062  45.7405519  47.4914074  50.2868986
  45.6705570  46.9276905  48.8839340  42.0053673  56.9677305  66.5628242
  42.6400805  56.8774605  65.8520317  42.3727989  56.4500380  67.2792149
  37.0696632   9.6570820  18.2103538  36.1662332   9.4012207  18.0244064
  37.1157876  10.5777162  17.9523944   7.9920999  10.8643574   2.7793836
   7.0901696  10.6663317   2.5273132   8.5143796  10.1837915   2.3547839
  39.1950917  39.3085670  59.9326134  39.8217344  39.6728396  59.3074274
  39.7166538  39.1215920  60.7131577  38.7102103  35.5606961  68.6036682
  38.9652348  36.3988614  68.2180929  37.9849434  35.2567768  68.0579138
  55.0965309  60.6471252  47.1391010  55.9184599  61.1216354  47.0145988
  54.5478868  61.2469339  47.6445246  21.2830011  14.4832367  20.8348083
  20.9125034  14.8003429  20.0111484  21.0163061  15.1343340  21.4837932
  54.1887371   5.6757683  42.0291423  54.5133487   5.2311605  41.2460899
  54.7304527   6.4617151  42.1002387  46.1805201  72.7121115  29.3736124
  46.3979244  73.5358000  28.9371490  45.4272079  72.3754930  28.8883924
  41.8363571  51.9011211  52.2669125  42.5682640  51.7639303  52.8683472
  42.2241020  52.3516512  51.5166378  81.4384460  50.1823759  56.7869759
  81.3100338  49.2432880  56.9206095  82.3182869  50.3539610  57.1226597
  58.1092202  74.4983486  10.9014987  58.7506544  73.8412217  11.1716461
  58.4854971  74.8906187  10.1136016  73.1530905  32.5664544  47.3980093
  73.9719152  32.9535174  47.0882702  73.0234385  32.9444528  48.2677984
  81.6560078  74.1191959  43.6538696  81.2062645  73.4170675  44.1239691
  82.1232700  73.6733866  42.9473591  65.0372516  79.2048482  -0.2014065
  65.1667224  79.0672354   0.7369613  64.1571294  79.5748619  -0.2700282
  60.5269951  31.9557184  16.0863208  61.2130884  32.4233908  16.5625572
  59.9278600  32.6424688  15.7936763  63.9639664  56.2752819  68.1875086
  64.0412855  57.1432638  67.7914572  64.5715952  56.2943840  68.9268684
  51.6223717  51.2424612  62.7456188  52.3021126  50.6874657  63.1279278
  51.4909267  50.8886194  61.8659878  31.7210905  12.7029699   2.7351093
  31.6458885  13.3464664   3.4397268  31.8471424  11.8679565   3.1857776
  42.1360342   7.0171350   6.7730951  41.4761726   7.7071756   6.7048787
  42.2229949   6.8610090   7.7134609  82.3822880  69.0282393  43.3414650
  81.6525555  69.1589260  42.7359486  82.2942829  68.1198454  43.6300898
  54.7494316  53.8485956  47.5136566  54.8335123  53.2788372  46.7491102
  53.8167953  53.8258266  47.7279234  65.0783721   8.1274742  13.4136390
  65.5590049   7.3323435  13.6438464  64.2647640   7.8104729  13.0214977
  34.5694828  26.2270927  54.8831320  35.2437496  26.8972564  54.9948359
  35.0568867  25.4279828  54.6828938  55.7443523  46.4087343  56.1625528
  55.3220320  45.5982208  55.8780479  55.0424957  46.9127226  56.5744162
  53.3744060  17.3262396  64.9276924  52.5240694  16.9082441  64.7918892
  53.5189186  17.2737779  65.8724642  51.3408661  50.2867842  47.7168608
  50.7737875  49.6236563  47.3232603  51.9050741  49.7955704  48.3140326
  52.2037792  38.2651401  47.1020031  52.3116779  39.0493608  46.5638733
  51.4101601  37.8501296  46.7641163  63.5503292  29.2249990  51.4064455
  64.0622425  28.4541917  51.1614227  64.2052984  29.8925471  51.6104794
  39.3719888  31.0380888  64.6673107  40.2687502  31.3551092  64.7747612
  39.4255996  30.1005054  64.8525000  66.2330818  22.1666932  59.6352530
  65.9372807  21.2611699  59.5416641  66.9201088  22.1266890  60.3005552
  44.0334129  61.2633181  49.1423368  44.2354631  62.1983814  49.1749382
  43.7292719  61.0530710  50.0252438  29.6434204   1.4231438  14.8914909
  29.8454277   1.9257253  14.1022968  28.8553421   1.8368095  15.2437019
  56.0489798  29.8196244  57.7177525  55.1174450  29.6467566  57.5814009
  56.4731836  28.9737844  57.5733995  56.9413519  66.2600803  41.3751221
  56.3552427  65.7100487  41.8948984  57.7000999  66.4030266  41.9408941
  12.0338636  72.3092393  10.9298705  12.3563295  72.2704176  10.0294589
  12.5782876  71.6826014  11.4064788   3.5489802  49.6409760  18.5769939
   3.7126069  50.2111391  17.8257465   3.8484435  48.7776057  18.2921409
  83.7161922  74.5960712  64.5819902  84.1722679  74.7971821  63.7648153
  83.4851551  75.4514790  64.9441099  58.3936492   3.5441774  16.8381404
  58.6290637   2.6239580  16.9564914  58.5345260   3.7094587  15.9059047
  45.5981016  56.5303707  54.1555262  46.2626362  55.9358072  53.8075066
  45.1760817  56.0338688  54.8566818  45.3949690  68.1640768  18.9944851
  46.3066101  67.8903484  18.8933849  45.0127220  68.0499411  18.1243753
  61.2714720  57.2347450  69.0872192  62.1569347  57.0124245  68.7995386
  60.8909988  57.7080297  68.3473063  58.0117273  60.6983614  64.3167114
  58.5841894  60.4047632  63.6079693  58.2172775  60.1155186  65.0476551
  83.7501431  56.9129610  57.4163914  83.3049393  57.3732424  58.1278515
  83.2500744  56.1045122  57.3042679  55.7490396  50.4004622  66.8653345
  56.1993647  50.6511259  67.6719332  55.2540827  49.6158695  67.1012640
  14.4669715   9.0450996  15.2383041  14.4029991   8.0913824  15.2889156
  15.0761549   9.2063850  14.5178127  57.2272062  75.5682039  42.7722406
  57.7281141  74.7793150  42.9795456  56.5482998  75.2688265  42.1675110
  73.5759020  54.4272614  52.6992846  74.2691422  54.3969011  53.3586216
  73.7480164  55.2302742  52.2075796  43.1212425  33.4997749  51.3092804
  43.0275774  33.1049919  52.1762323  43.8556528  33.0323339  50.9113216
  79.2424332  74.7751502   8.5150146  78.8471257  73.9323429   8.2922172
  79.0588509  75.3330759   7.7592038  57.0670605  29.5443821  68.0561113
  57.2986412  29.1504073  67.2150517  56.3550758  30.1497364  67.8490925
  33.5091249  13.6717647   0.9409808  32.8742687  13.5488981   0.2352237
  33.0354396  13.4241146   1.7350387  84.9498450   1.0074510  49.2489481
  84.7327553   1.1434736  48.3266640  85.8994137   1.1206522  49.2907095
  69.1641569  51.2212181  40.9064913  69.4858170  52.1089745  41.0635090
  69.4898462  50.9992409  40.0342035  56.9612885  51.7242908  68.9831018
  56.3978577  52.3960114  68.5989571  57.1134138  52.0232725  69.8795938
  62.1532774  45.4766178  57.1629620  61.9754362  45.9159803  56.3313580
  63.0887747  45.2762222  57.1327066  37.1264195  29.8570323  66.6937256
  37.2834468  29.1337800  67.3007488  37.7366590  30.5400014  66.9719219
  72.0945446  20.6686252   1.4652585  71.2425605  21.0861009   1.5920066
  72.6858989  21.3907617   1.2530088  28.8396970  15.9073109   9.3266725
  29.4283477  15.7092470  10.0550174  28.6368934  16.8372053   9.4286870
  63.4988642  69.6007919  42.4826336  62.7043247  69.9159718  42.0518160
  63.1880808  68.9494562  43.1114483  41.4087152  14.5292521  54.0604877
  41.7410851  15.1787400  54.6801090  40.4569244  14.6203268  54.1055632
  13.2400119  35.6114936  32.6781464  12.8341556  34.8129845  33.0156279
  13.5622406  35.3680468  31.8103123  55.2660465  25.9536505  62.3047590
  55.7770538  25.1452398  62.3444891  54.3605995  25.6712389  62.4337482
  15.1463071  40.5919880   4.1954326  14.7975675  40.4159206   5.0692844
  15.9035198  41.1570019   4.3491077  74.8895631   0.8050102   4.0032482
  73.9997969   1.1527342   3.9429616  75.4197881   1.4131492   3.4882116
  49.8636818  73.1002998  51.8033552  50.4420090  73.6912537  52.2855854
  50.4526043  72.5884533  51.2489080  53.4147882  61.1390352  25.0984859
  53.2867193  60.4188776  24.4810677  53.9039373  60.7491970  25.8230495
  35.1781297  37.6028752  51.6979456  35.1499367  36.7868328  51.1984301
  35.6729436  37.3834777  52.4874115  68.2863474  50.9625530  59.0892124
  69.0363407  50.4264069  59.3466806  68.0120945  50.6016588  58.2461405
  49.1912937  44.1879225  63.2810640  49.6634340  43.6592054  62.6378107
  49.2978621  43.7135553  64.1055965   6.1462325  33.6699104  67.8881550
   6.1436385  34.4902039  67.3948574   6.2249964  32.9889297  67.2201014
  53.0546331  67.9182339  51.7286348  53.5906172  67.8853941  52.5210190
  52.5796986  67.0871735  51.7261171  72.6504647  62.1342806  23.3816242
  72.1802365  62.4462561  24.1547965  72.0192181  62.2188763  22.6670646
  53.2479239  63.5965538  63.2710457  53.4805059  64.4754076  63.5706472
  52.2956371  63.5575008  63.3596563  58.9888430  79.4610643  50.3115320
  58.4469557  79.4380951  49.5228243  59.5973349  78.7298250  50.2054405
  64.2965137  78.8061456  21.6830348  63.3713709  78.5919575  21.8032932
  64.3939124  79.6748285  22.0730781  82.1877480  38.0458570  61.9583368
  82.2194195  38.7125754  62.6444244  82.9158020  37.4585152  62.1613312
  68.5101938  43.0765676  64.3139076  68.7622452  42.9704189  65.2312040
  69.3359184  43.0314207  63.8318634  60.7877493  53.4987020  46.1314917
  61.4694166  54.1700888  46.1031628  61.0625458  52.9078102  46.8326092
   1.3908963   8.0726804  41.7957258   1.3152843   8.6790361  41.0589409
   1.0629420   8.5667219  42.5471258  60.1456070  67.9719496  36.7233372
  60.0369120  67.8571749  37.6673961  60.3933382  67.1044254  36.4035439
  25.6740355  61.4523268  38.8022733  26.4789510  61.6299438  39.2888904
  25.1630473  62.2577524  38.8823867  73.8904524  61.4445543  43.2322311
  74.1243172  60.5176020  43.1843328  74.0482473  61.6845083  44.1453362
   3.5033088   0.9826364  39.7991681   3.5379129   1.7628278  40.3526306
   3.1112628   1.2868299  38.9806366  55.0108147  67.7438641  53.9513636
  55.8694839  67.3830652  54.1721487  54.9536896  68.5536718  54.4584894
  74.1885376  37.3701549  65.9879065  74.3717813  37.1572161  66.9029522
  74.7858000  38.0901980  65.7853127  53.2546139  16.0644543  42.5236368
  53.1630468  15.2613997  42.0108509  52.9831982  15.8165407  43.4074354
  58.8903093  38.2238078  63.7619305  58.3003950  38.0744982  63.0230522
  59.1905832  39.1257977  63.6502075  15.4936147  60.3189707  56.5125656
  16.2062430  60.1936960  55.8859062  14.9311626  59.5539331  56.3917303
   0.7684569  56.8932645  22.1595382   1.1994891  56.6029863  21.3556766
   0.4236560  57.7604679  21.9466972  38.7999749  80.3336239  29.8833060
  37.8706384  80.5494118  29.9607992  39.0743732  80.1317120  30.7778263
   9.7632376  22.7968019  11.0252475   9.2365400  22.8897470  10.2314042
  10.1841346  21.9418901  10.9346961  68.3330237  19.9301233  44.0504694
  68.2757722  19.4572248  43.2202196  68.9432274  19.4148054  44.5780468
  66.7509948  64.8159627  13.6458206  67.0746242  65.6235913  13.2467746
  67.2906863  64.1255550  13.2607173  77.7422857  35.3202176  62.6702690
  77.1059275  34.6184564  62.5331116  77.8804064  35.3365684  63.6173105
  20.9668533  44.3454784   1.3391256  21.1028568  44.7988933   0.5071639
  21.8494979  44.2002148   1.6798066  35.0981943   5.0984758   7.9909944
  35.7321922   5.2326864   8.6954498  35.6001894   4.6754879   7.2943496
  63.9513779  56.5045500  43.7178183  64.8880672  56.3375187  43.6131954
  63.8878441  57.4535990  43.8250971  19.9841873  26.0472578  11.7988967
  19.2386714  26.0365957  12.3991775  19.9024765  25.2338117  11.3010501
  57.7797508  45.2898693  50.6138563  57.5938034  45.2370262  51.5513325
  57.1074438  45.8775425  50.2690792  49.2267942  66.4044523  42.1495295
  48.3937788  65.9535646  42.0116234  49.7505713  65.7885313  42.6619053
  82.9745102  15.1028621  65.2266836  82.0857430  15.4582632  65.2304316
  82.9337311  14.3621767  64.6217442  45.0168133  38.7040973  59.6289921
  45.0159979  38.3418727  58.7429762  45.2470636  39.6256423  59.5107841
  77.2386633  18.1537523  66.6939545  77.5113903  17.8603449  67.5633049
  76.5268122  18.7712278  66.8619490  60.8770037  70.1516008  24.0017223
  60.7680511  71.1025620  24.0074039  59.9934626  69.8101139  23.8639760
  50.4616070  29.4928598  60.1052141  50.0715113  29.6286511  59.2417192
  51.0151434  30.2617788  60.2415657  84.5491219  17.6264393  18.6237216
  84.5529747  17.8886306  17.7031386  84.5939827  16.6705680  18.6007059
  66.1216784  53.1153488  68.8975096  66.7059946  53.4965754  69.5528507
  65.6373787  52.4399376  69.3723822  44.2048645  74.8528624  31.7358279
  45.0250196  74.8644352  32.2292233  44.2870426  75.5789471  31.1175370
  63.5640764  61.2933588  68.0005884  62.7243662  61.4332247  68.4382629
  63.4731960  61.7409515  67.1593809  37.4710846  41.2381315  67.7525330
  38.3295250  41.4760780  68.1028032  36.9855881  40.9112215  68.5099316
  45.2147102  60.1205206  54.7858715  45.1281643  59.2609453  55.1980257
  45.2291489  60.7368660  55.5180836  46.0624504  65.5253839  61.4990854
  45.1329613  65.3493357  61.3531780  46.4684534  65.3941870  60.6422377
  33.2140498   7.7713956  63.3729219  33.6362605   8.2220354  62.6415634
  32.5771957   7.1884813  62.9595613  66.2639713  67.8968668  57.7634335
  65.3449535  68.1629944  57.7347422  66.5737867  68.1974030  58.6177921
   7.1833568   5.8668127  50.7573462   6.5493016   5.4170503  51.3158464
   6.9406037   5.6130399  49.8668957  67.3759127  28.1686950  49.5188475
  66.9639874  27.8830719  50.3343010  66.8622828  28.9283323  49.2443132
  27.8246109  32.7146095  35.7696056  27.9256479  33.4004587  35.1095771
  28.6966506  32.3279184  35.8486366  27.5170032  45.6041282   4.7743844
  26.5877763  45.5603355   4.9998855  27.6343528  44.9255699   4.1095304
  54.4265567  72.8311876   5.7628965  54.5644437  73.0752973   4.8476743
  53.4756528  72.7699427   5.8538007   6.9572536  22.5183195   3.2870197
   7.8198687  22.4528545   2.8773307   6.5169064  23.2199138   2.8073358
  22.5570337  44.5484775  16.7993163  23.4844820  44.3433422  16.9175720
  22.0957176  43.8246578  17.2229957  75.0901352  11.8775930  39.8869276
  75.0876461  11.8025961  40.8411837  75.9182965  11.4802827  39.6176147
   8.4948081  17.0297515  51.4304066   8.2705420  17.7227795  50.8094025
   7.8714198  16.3282728  51.2418842  83.8505350   1.8376913  25.2058005
  84.2450510   1.0491933  25.5784345  83.0687462   1.5228452  24.7520280
  82.4042461   3.9843077  23.2294082  82.7168558   3.3103460  23.8329601
  83.2019494   4.3760198  22.8737926  64.2665625  16.8484867  38.8951850
  63.7358189  16.3265276  38.2934356  65.1402140  16.8502581  38.5040760
   8.4553628   2.4447717  50.2327585   7.8481107   2.8708257  49.6278191
   8.0267434   1.6199007  50.4610443  21.4044671  14.8388662  43.8638210
  21.2316280  14.0941991  43.2877731  21.5397029  15.5759897  43.2683468
  32.0753471  36.8901867   1.3010310  31.9854394  37.2246546   2.1933746
  32.9900733  36.6150326   1.2394046   9.3316954  80.1310062  43.4350967
   8.6741722  79.5323658  43.7893820   8.8228804  80.8386612  43.0394077
  83.8170052  40.4377794  63.0058336  83.2940865  41.1594486  62.6565790
  84.4363213  40.2302217  62.3061132  55.4511499  54.1599274  58.3252525
  55.1550102  54.9792910  58.7217093  54.9324894  53.4826088  58.7593794
  13.3639757   4.0359920  33.6129855  12.8312532   3.5789484  32.9621791
  14.2161123   3.6018652  33.5726070  74.3158852  78.8554053  18.0294799
  75.2093827  78.5577349  18.2006263  74.2797314  78.9711456  17.0799922
  75.9342991  30.7460203  66.7508554  76.4503085  30.4396810  66.0051203
  75.0726115  30.3485574  66.6253138  83.5654484  27.9843225  67.3604631
  82.8950297  27.5717439  66.8159008  83.1935440  28.8345136  67.5951815
  62.9421531   6.4876451  49.5796824  63.7877213   6.9315996  49.5152855
  62.8086745   6.3617315  50.5191278  71.4459848  55.9828997  39.7940493
  70.9796572  56.5081358  40.4443550  71.8829679  55.3016472  40.3050947
  75.5598831  63.8793993  64.2274475  74.7031116  64.2621708  64.4162655
  76.1431980  64.6324825  64.1334343  64.0445042  46.1864233  66.6661644
  63.7001276  45.4223871  67.1286440  63.3512878  46.4268541  66.0514498
  49.2461920  61.6532183  60.8888483  49.7190571  62.0690727  60.1679516
  49.5882893  60.7596445  60.9157991  69.8856640  69.0272379  59.4849253
  70.7796812  68.7391281  59.6692181  69.6463680  68.5661602  58.6809540
  66.3370705  32.9880095  68.0169630  65.7963848  32.2769094  68.3608055
  67.2340107  32.7328038  68.2328272  49.8540155  38.8852876  16.5617275
  49.1960231  38.4438127  16.0247135  50.6062976  38.2934851  16.5534019
  45.7448045  34.6891111  18.1444835  45.7883922  35.2501053  18.9188289
  46.4807741  34.9722332  17.6018714  17.3538009  38.4398168   0.4433584
  18.1961528  38.5603136   0.0050020  17.3504249  39.0959925   1.1402511
  44.2133514  10.5645651  10.0868940  43.6003582  10.8494371   9.4091653
  44.7243349  11.3475174  10.2921008  65.1569223  79.8103046  69.0013266
  64.6294928  80.1616955  68.2839870  65.5560398  79.0189457  68.6398220
  67.0178223  79.6729898  31.0989261  67.9310560  79.3963242  31.1743736
  66.9800234  80.5053616  31.5700531   2.8653960  55.0052337   5.8438920
   3.5228162  54.6402315   5.2516031   2.6091342  55.8326868   5.4366063
  54.6176815  62.8553867  69.4648361  54.2082119  62.1735334  69.9974155
  55.4196596  62.4512577  69.1335630  21.2993258  69.0467787  62.6592064
  21.8374270  68.5857439  62.0156813  20.5258673  69.3255377  62.1690035
  16.3416104   4.9678983   3.1305480  15.5392795   5.1869192   2.6567075
  16.9256215   4.6118345   2.4609290  56.4088345  56.9586849  55.4421663
  56.6781902  57.2075081  56.3263416  55.4918194  57.2274351  55.3866005
  53.1645481  50.3649277   4.8687648  53.0992309  51.3068146   5.0262832
  52.2590057  50.0553650   4.8888587  62.4185658  70.3411627  50.9527016
  63.2348108  70.8387423  50.9037971  62.4501085  69.9127483  51.8080950
  22.0781064  22.0335245  19.8075724  21.3752413  21.4624453  20.1175380
  21.7346692  22.4205852  19.0022981  -0.0224572  70.2336740  63.1409407
   0.7369250  70.4299021  63.6896372  -0.1710397  71.0366678  62.6415825
  44.0601110  62.4232674  30.6226635  44.1355944  61.4838934  30.4550123
  44.2918062  62.8345585  29.7899628  63.2458401  63.1012058  34.1324949
  63.9353609  63.7650061  34.1198587  63.6361361  62.3421621  33.6991906
  42.9521942  37.8174567  54.7455645  43.1584692  37.2997952  53.9672947
  41.9956350  37.8301907  54.7781420  70.0263309  57.3740435  47.3948956
  69.3703032  57.6869345  48.0177593  70.6611300  56.9010830  47.9330111
  16.4016204  78.6049275  26.0073661  16.6884046  78.2685403  26.8563842
  15.4620223  78.7535838  26.1136150   7.1479670  23.6954683  12.7189349
   7.3748938  23.3620733  13.5870265   7.9744951  23.6887449  12.2361945
  79.8010302  40.7742691  50.3361177  79.0636396  40.1790190  50.4708815
  79.5007849  41.3774347  49.6562099  49.3231718  40.5797142   9.8537731
  49.5955745  40.0907749   9.0772676  48.7324516  41.2536377   9.5174455
  51.9345999  21.1353469  34.6450305  51.6889858  21.9427967  34.1934466
  52.6026344  21.4067078  35.2745771   0.9347647  67.6273918  62.8630781
   0.4874629  68.4722137  62.8137493   0.5690783  67.1200895  62.1384048
  70.3927040  58.1583405  51.7604065  70.8109331  57.4422121  52.2383928
  70.8980465  58.2333231  50.9509373  78.9066267  59.9105692  56.5767813
  79.7965050  59.6961546  56.2968302  78.4029627  59.1151571  56.4039326
  67.7589332  10.5493345  31.1573148  67.8523623  11.2548437  31.7974401
  68.4028160   9.8944177  31.4269996  42.8542662  75.6230497  44.9936914
  43.2127571  75.0694609  45.6874180  43.4516382  75.4996252  44.2560291
   6.5519290   3.9473428  68.0696106   7.3161798   4.4085016  67.7239323
   6.0630946   3.6775198  67.2921324  66.4387846  63.2095098  68.8651419
  66.0419559  63.8180447  69.4883919  66.6205359  62.4235678  69.3803978
  29.7810260  48.6959404   8.9030122  29.5112459  47.9631275   8.3494424
  30.5297605  49.0786308   8.4456634  77.5881767  36.1284471  52.0317554
  78.3527088  35.8249640  52.5212669  77.0231533  36.5275741  52.6933336
  82.8648472  17.7640605  33.7968540  82.8259563  16.8859065  34.1757536
  81.9838715  18.1174219  33.9203334  49.6293251  37.2804111  21.6998004
  50.5467931  37.3473924  21.4352321  49.1909830  37.9866070  21.2250614
  83.9169312  40.0436163  48.8116121  83.9637756  40.4606581  49.6719122
  84.0644836  40.7573509  48.1910944   9.8409384  64.4697571  66.9732046
   9.7657126  65.3543520  66.6153383   8.9400786  64.2143059  67.1717596
   2.1128373  11.8395128  42.0480585   2.7978711  11.1820497  42.1692514
   1.3817411  11.5244379  42.5795269   9.3165702  68.7191105  44.7746706
   9.3838996  69.6086979  44.4277859   8.9208812  68.2142878  44.0641642
  23.0093948  63.2284969   6.4096402  23.7776128  62.7180237   6.1537217
  22.8264514  62.9521126   7.3076200  31.8351340  49.0558672  69.4520521
  32.0017743  48.1448317  69.6938753  32.3048592  49.1742992  68.6264849
  15.3509943  13.0797237  17.9126739  14.9555961  12.2448248  17.6620006
  15.8947078  13.3218998  17.1630382  54.7906171   2.3396482  29.8541617
  54.0795409   2.3478212  30.4948902  55.3889262   3.0250635  30.1516008
  83.1860161  58.7899876  67.8894949  83.2294369  58.0988503  67.2286844
  83.5851097  58.4021473  68.6683035  80.3747749  42.4248743  63.7594175
  79.9454403  41.5794468  63.6284447  80.9870625  42.4985218  63.0273628
  61.3734627  75.7794428  65.3593826  61.1471272  75.0049639  64.8444223
  60.6156969  75.9193420  65.9272337  50.6649971  46.1343336  65.5619478
  50.9592438  46.4263487  64.6991730  49.7384691  46.3727713  65.5923796
  41.2195961  19.8898453  24.0497493  40.9643070  20.1202720  23.1564617
  40.3911678  19.8101610  24.5226001  44.0930835  20.4734367  23.5626506
  44.6578208  19.8192495  23.9741706  43.2037012  20.1631302  23.7327766
  66.6554403  66.2017107  65.4362965  66.3825893  66.5082169  66.3010740
  66.5711927  65.2493286  65.4821634  69.8887587  51.0717869  50.1946115
  70.7943821  50.8019876  50.0420380  69.5480299  51.2709713  49.3225670
   0.6421489  68.7284803  52.8468752   0.2398127  69.3004179  53.5005140
   0.5352324  67.8461838  53.2023430  82.4454880  48.9853954  45.8187342
  83.2962322  49.1805124  46.2116814  81.8707943  49.6834230  46.1329222
  51.1548138  62.4664497  55.0079060  51.3143158  62.4244404  54.0650225
  50.2269173  62.6887512  55.0841904  35.3243613  32.1256447  67.5463629
  36.2604928  32.1215248  67.3466730  35.0431323  31.2233543  67.3946762
  17.9352574  73.1306748  34.4491386  18.8017993  73.2560352  34.8359489
  17.5081926  72.4920706  35.0201320  38.4639017  33.2037348  22.3444652
  38.8935987  33.2180256  21.4892577  38.4812395  34.1151422  22.6364803
  67.6511669  55.5142546  24.5728874  67.7229404  55.4800892  23.6189938
  68.1223583  54.7383404  24.8764753  32.3837590  69.9159241  24.5050716
  31.7012620  69.6187258  23.9033222  32.8052974  69.1108036  24.8055983
  50.8275663   0.5415620  48.5570002  50.9306346   0.6186952  47.6084948
  49.9564229   0.1623048  48.6732054  15.7218856  71.5515614  41.9862890
  16.3933200  72.2255468  41.8807268  15.8323115  70.9821320  41.2248516
  11.1413436  13.1673517  64.8045206  11.4069657  13.8748159  65.3920269
  11.8526178  12.5292864  64.8610592  68.1801891  78.3121777  67.1569729
  67.2316027  78.4354925  67.1222401  68.5348701  79.1990232  67.2197294
  43.2891083  78.5385561  54.9157524  43.6262226  77.9450655  54.2446709
  43.3020496  78.0214834  55.7211685  16.0119716  51.9870037   5.2878379
  15.7013122  51.9138187   4.3854188  16.9564716  51.8434185   5.2283859
  47.3409319  51.4887810  61.0899067  47.3613787  50.8881474  60.3448915
  46.4093447  51.6177893  61.2680578  14.9552779  14.8473634  53.4514141
  15.8123927  14.9592104  53.8625956  14.4492107  14.3407049  54.0865707
  76.1796651   5.2402681   4.1543960  76.9517443   5.4422325   3.6258745
  76.4684890   4.5436138   4.7438764  24.8004142   3.2275242  -0.0159646
  25.0927011   2.3879474  -0.3707982  25.4824773   3.4740204   0.6087446
  61.8653488  78.7886143  56.7298889  62.0860004  79.3193483  57.4953079
  62.6913118  78.6987734  56.2545586  81.3328838  71.7904091  62.8812265
  80.6592751  71.9827747  63.5335064  81.4681530  70.8451843  62.9481983
  33.0493585  21.4478916  16.0146140  32.5323764  21.6812652  15.2435684
  32.5614540  21.8169540  16.7508029  61.9531298  72.4921799  53.5376453
  61.0800076  72.8503513  53.6976576  61.8283415  71.5432072  53.5481310
  45.3792524  45.5387783  53.9927673  46.2018585  45.1360226  54.2708683
  44.7153282  45.1407480  54.5557976  14.3367044   5.9743971   1.6168975
  14.2338172   5.5023378   0.7905769  14.2145483   6.8947071   1.3838004
   8.9898257   5.9505644  62.2683764   9.5770936   5.2158537  62.4460077
   9.3535333   6.3640299  61.4854383   3.7255626  14.5229520  54.4202900
   3.5255199  14.8196306  53.5324860   3.5532146  13.5815611  54.4027710
  47.1342807  48.2305090   2.5116062  46.3790374  48.8124416   2.5964736
  47.5097518  48.1955288   3.3913946  82.3179709   4.2511930  43.5974789
  83.1499277   4.5544805  43.2340288  81.7598997   5.0288763  43.5997629
  72.4269674  35.1202625   1.4363098  71.8603740  35.3155989   2.1826648
  73.2519136  34.8359197   1.8298101  44.7932196  69.0625858  49.8535490
  44.6348763  68.4000731  50.5260324  45.6061316  68.7853956  49.4309664
  73.6865473  29.1250110  56.8743324  73.8204765  28.2722425  57.2879505
  73.1006145  29.5910978  57.4707174  59.1490936  68.6970806  59.3394852
  58.4237385  68.1643295  59.6654606  59.2424011  69.3962812  59.9865150
  67.3015547  52.5605392  62.8799295  67.6534557  52.8943062  62.0547009
  67.9470634  52.8192711  63.5376549  49.1585533  41.5470260   2.4949741
  49.4484941  42.1994156   1.8573522  48.4983818  42.0009464   3.0187702
  52.3998308  77.4760342  50.0128126  53.2291842  77.3620272  50.4769230
  52.5896454  78.1302404  49.3403435  72.6807772   2.0470705  24.0146971
  72.2148453   2.8587808  24.2153621  73.5292422   2.1448126  24.4468808
  77.6999174   1.5247526  34.5183468  78.0441080   2.0276537  35.2564907
  77.6550805   0.6249418  34.8417044  36.6967622   3.7935203  17.0283031
  36.1126796   3.6786932  17.7778911  36.9447938   4.7175735  17.0572757
  21.6752378  20.4815620   0.5232953  21.0698835  20.6513542  -0.1984740
  22.3348037  19.8967642   0.1501798  66.6892158  14.1265955  62.9682350
  67.1896993  14.7757139  62.4738693  66.5051209  13.4329500  62.3348331
  33.1622640   9.6647686  31.8074035  34.0750734   9.8454756  31.5830135
  32.6810161  10.4268497  31.4851283   8.9379901  73.2832432  50.9684277
   9.8782748  73.2025146  51.1283350   8.8513964  73.2293272  50.0166798
  39.2828790  32.8647178   9.2748689  38.7446872  33.6440939   9.1364812
  38.9052478  32.2062439   8.6917447  66.6184955  35.8238687  51.2209415
  65.7087474  35.7721605  51.5140533  66.9302898  34.9192419  51.2469578
  52.0046798  59.4270462  15.9473228  51.0809413  59.1995376  15.8416080
  52.0220558  60.0123924  16.7044830   3.3889680   2.4062719  57.5006914
   4.3008809   2.5833883  57.7315187   3.3564572   2.5175180  56.5505362
  21.8743030  43.4209675   4.5229482  22.7599994  43.0939049   4.3654632
  21.3250677  42.6370376   4.5178937  61.3439361  27.0805830  13.2182979
  60.5796043  27.6368994  13.0681705  61.0996143  26.2326902  12.8473281
  82.5414359   6.3172617  61.2666225  82.4449049   6.8786420  60.4973650
  81.7847048   6.5281667  61.8135309  73.1519209   0.7220354  33.8323927
  73.8005005   0.7463541  33.1288433  73.6251246   0.3609361  34.5820045
  35.8584023  45.7627869  62.1569729  35.7393813  45.2499771  62.9564047
  36.5402150  45.2969360  61.6728783  35.1140237  62.2413111  47.9543114
  35.8336544  61.6234303  48.0830908  35.3216410  62.9748154  48.5331917
  32.0343256  46.4676714  22.2749162  32.7564049  46.4947033  22.9026937
  32.4224615  46.7611885  21.4506412  51.6215229  54.0517902  65.1424551
  51.8681049  53.3725119  65.7701588  52.0017099  54.8553324  65.4974318
   5.6032294  39.9146032  39.5268035   5.3765506  39.2158818  40.1405096
   5.1206797  39.6984386  38.7288976  47.2590733  32.8449011  68.7259436
  46.6382408  32.1180296  68.7755156  48.0851603  32.4760580  69.0386200
  32.1053545  14.1192001   5.2313518  33.0331604  14.2455620   5.0327586
  32.0697395  14.0674871   6.1864900  80.2939079  43.0217880   5.0375747
  80.3399728  42.7559227   4.1191911  80.1365874  42.2072643   5.5151080
  84.9562454  59.4702005  22.1711230  84.0392685  59.6415806  21.9566131
  85.0914574  59.9078703  23.0115962  32.0237255  58.6082363  23.5287905
  32.4776626  59.1784000  24.1493440  31.9663167  59.1259098  22.7257037
  18.0293422  61.9959263  22.1461582  18.4852224  62.2185067  21.3344573
  18.7032275  62.0552568  22.8233528  38.1595087  35.7556462  57.1755838
  37.4045515  35.9707999  57.7232885  38.7854815  36.4601517  57.3430967
  41.2893062  59.3613760  43.2122135  40.4944472  58.9532606  42.8688907
  41.4773898  58.8793520  44.0175151  67.3459331  16.5267319   7.2510576
  68.0316059  15.9148115   7.5187158  67.7634422  17.3871082   7.2919559
  12.9667573   2.8955354  63.1902027  13.3109241   3.7449255  62.9139519
  12.7780061   3.0052175  64.1221762  43.8541842  69.2696095  47.0429659
  44.0883827  68.3630753  46.8440151  44.1358089  69.3964291  47.9489660
  13.6451125  72.7034235  68.3677197  13.2596195  71.8372774  68.2357550
  14.5152879  72.5263834  68.7250519  69.4719116   4.2958731  18.2614707
  68.8473598   4.8327202  17.7736663  69.0863029   4.2126650  19.1336059
  73.4677683  64.8100785  25.8430194  73.0399691  65.4029898  26.4608192
  74.0819870  65.3660945  25.3636264  38.7968627  30.8441299  16.4753150
  38.5989563  30.4852957  17.3403644  38.0826608  31.4571756  16.3011932
  57.8744888  54.4192314  45.9193039  58.0072498  55.0295210  45.1939392
  58.7570953  54.1375542  46.1599159  64.5992804  58.9632845  67.6924658
  64.1658640  59.8153257  67.7415657  65.5238152  59.1554785  67.8491068
  68.9426804  62.6045418  38.4835553  69.3254566  62.8143311  37.6316762
  68.4720564  63.3986664  38.7367749  65.1495444   0.0312318  50.0431490
  64.6001445   0.6801691  50.4827738  66.0450302   0.2836408  50.2681494
  64.7570753  37.1354747  65.5581760  65.3541565  36.9041228  64.8467016
  64.8647547  36.4328599  66.1992455   4.1921239  10.2110853  51.9201899
   3.3130365  10.0006475  52.2350693   4.0458636  10.7741823  51.1600780
  43.7944547  34.0412611  13.3111572  43.8369361  33.1179851  13.0621719
  42.8596775  34.2472118  13.3087444  80.5167996   7.9660501  45.8331394
  80.4226385   7.3260774  46.5386868  79.7742783   8.5592451  45.9471703
   8.9372653  53.3857632  31.7736721   9.7753352  53.7602043  32.0450854
   8.8723963  53.5942125  30.8416986   8.7941938  57.8171639  27.7512836
   8.5650258  57.9470650  26.8310451   9.5755677  57.2647731  27.7278613
  75.2738892  15.6214609  21.4266014  75.6231867  16.3363542  21.9587183
  75.1852595  14.8896112  22.0371580  51.7465583  28.1200403  15.8050727
  51.9205181  27.7797693  14.9274730  52.3714820  28.8371462  15.9121322
   4.3057351  12.8149213  62.1236324   3.8688283  12.5469961  62.9320621
   4.0413861  12.1580877  61.4794922  50.1921940  61.9403791  64.3571138
  49.8746777  62.4029827  65.1326275  50.2047396  62.6061487  63.6694908
  48.7072269  14.8888010  16.0385703  49.1425840  15.7346052  16.1448860
  47.7812854  15.0747627  16.1943912  52.2640411  37.1018308   0.5813169
  51.5556184  37.0828623   1.2247514  51.9247047  37.6415342  -0.1326848
  26.2362091  28.9121050  11.0271930  27.1879760  28.8918156  11.1269855
  26.0049383  28.0240578  10.7549571  28.7768286  79.5669222  26.3703036
  28.9554137  78.7838125  26.8909574  29.5812720  80.0823212  26.4292645
  45.9247343  16.3603014  21.0930633  45.1050178  16.1113685  21.5200614
  45.8281795  17.2960752  20.9163284  41.6620199  25.6187767   7.2684907
  41.2701074  26.2709564   6.6877174  40.9430543  25.3403610   7.8357648
  83.7733208  11.4858904  53.4784079  83.4592472  11.8093958  54.3227577
  84.4549405  12.1072282  53.2223606  19.7707883  14.4984049  10.8899783
  19.0026895  14.2217869  11.3897132  19.4099704  14.9289316  10.1149415
  14.7301393  15.9875765  59.6190310  14.5647245  16.7750539  60.1374388
  13.8654571  15.7195367  59.3080521  71.4960276  14.8642053  57.3863363
  70.7022654  14.7531881  57.9096460  71.3821923  15.7112302  56.9552660
  54.0864420  72.4049568  65.2547789  54.0673161  72.9954672  66.0078764
  54.2929506  72.9714775  64.5113850   9.0668969  31.4389887  50.2612400
   8.4934001  30.8121004  50.7020950   9.1197019  31.1222543  49.3595076
  66.9164562  74.4725990  49.0471268  65.9695053  74.3508482  49.1156340
  67.2719097  74.0220881  49.8132372  29.6596900  46.8493122  14.2817973
  29.1760103  47.4526066  14.8460006  29.1320936  46.7912430  13.4852409
  41.9110203  71.2513018  49.1216564  42.7584839  71.6300392  49.3553066
  41.6732883  70.7124281  49.8761988  45.8051054  59.9613804   3.9833211
  46.0389749  60.6536049   4.6016740  46.3511173  60.1313919   3.2157277
  36.8675900  69.0315390  47.5249529  36.9555831  68.2187128  48.0227470
  37.6114798  69.0252352  46.9226122  41.5610353  13.1362480   9.6984195
  40.6166402  13.0098432   9.7899007  41.9262783  12.8188938  10.5243205
  35.3810935  11.6325559  50.5041838  34.5225196  11.3069334  50.7744789
  35.9375339  10.8539285  50.4854870  29.4906370  18.8379186   0.2445697
  29.8544685  17.9850334   0.4821538  28.9476768  19.0837473   0.9935664
  59.7121994  37.8565496   1.6490316  60.6217281  37.6186222   1.8289804
  59.4599811  38.4131759   2.3857688  14.9277597   0.2146616  56.5928030
  15.4258256   0.8078661  56.0304213  14.8780303  -0.6016312  56.0953903
  64.6141998  56.0125202   3.1458520  63.9164726  56.6373199   3.3434247
  65.3131286  56.5458053   2.7672433  69.6475554  58.5747623  36.4609337
  70.3197002  58.1444645  35.9324431  70.1391125  59.1048956  37.0882773
  72.5710297  50.3065634  49.6109867  73.3687592  50.6716394  49.9938440
  72.6386547  50.5092955  48.6779499  36.0284988  29.1855234   7.1205949
  35.5580465  28.9261621   6.3283586  35.4734794  28.8819450   7.8389453
  36.2143461  25.4231542   7.4087190  35.7615081  25.0449079   8.1624412
  35.5408851  25.9287065   6.9536399  40.5377428   9.2789978   5.6956863
  40.3023330   9.9899572   6.2917947  41.1838666   9.6658653   5.1048517
  75.1548862  64.6473885  56.4106798  75.8712769  65.2791214  56.3480091
  74.4520283  65.1252079  56.8510389  76.0503379  54.5320171  23.3808803
  75.4196731  54.9319023  22.7820491  75.9071819  54.9807781  24.2141628
  40.2341072  31.1774296   3.0217742  40.8351223  30.9208292   3.7211847
  40.1710836  32.1295494   3.0974531  50.2821008  30.7634872  24.8641681
  50.9823076  30.4198593  24.3093108  49.7223035  30.0070757  25.0393676
  15.9083467  10.4215421  61.9940186  16.2545924  10.3965940  62.8860521
  16.2363057   9.6195211  61.5872860  34.0114837  11.8454542  67.3437452
  34.7477965  12.3010912  66.9357300  34.4162421  11.2670602  67.9901648
  42.7844763  79.3938541   8.2286268  42.7759027  80.2936840   7.9023302
  43.4839916  78.9665127   7.7343702  76.8575083  32.2953405  40.2870512
  76.5320765  31.4443483  39.9935603  76.0860478  32.7375784  40.6413221
  60.3887108   0.0311120  60.2520561  59.8854950   0.3708490  59.5120715
  61.3029364   0.1575120  59.9981975  50.0382185  27.7674890  49.4166851
  50.3728867  26.9371486  49.7554541  50.4725695  28.4352064  49.9474621
  60.9847347  27.2497219  30.1605796  60.6874744  26.4301628  30.5557918
  60.1792518  27.7335066  29.9778652  42.1809053  64.1522598  67.0093727
  42.5331163  63.5806513  66.3271379  42.7070332  64.9496174  66.9489670
  27.9472248  39.0092415   2.6225709  28.7844459  38.7044281   2.2727393
  27.4853746  38.2083172   2.8704595  16.2637824  64.6159697  67.7200222
  15.7303542  65.1508904  67.1321821  17.0448607  65.1448679  67.8825283
  12.7782302   6.3619413   9.2014718  13.5180335   6.7709531   8.7524331
  12.0152383   6.6065778   8.6778057  49.1240875  63.8620609   6.1913013
  49.0268556  64.3450588   7.0119714  49.6909706  64.4150585   5.6536483
  44.1097108  41.4846176  12.3872852  44.6963731  40.9809727  12.9515552
  44.4810621  42.3668331  12.3823165  27.1003776  77.6910333   1.0913276
  27.7860599  77.9591946   0.4796457  27.3438029  76.8019609   1.3492441
  53.7608767  57.2545958  38.1269908  52.8109407  57.1371031  38.1200957
  53.8858891  58.1838226  38.3197117   7.9294114  26.0626306  47.2748995
   8.0964427  26.9206514  46.8848705   8.7633996  25.5989065  47.1997213
  84.2328835  66.7607307  42.5758553  84.1157722  67.6691389  42.2978020
  83.6583900  66.6668701  43.3357048  17.4527399  30.5726427  16.5217780
  17.5114194  29.6859735  16.8775939  18.2988874  30.9698910  16.7278289
  34.2970424  25.0188341  37.4959087  34.9319224  24.6621599  36.8746710
  34.3082099  24.4039240  38.2293963   5.1040845  26.3796034  29.4799924
   4.8963885  25.6740656  30.0926185   5.6834130  25.9739294  28.8349771
  24.0918273  66.0275126  40.1685524  23.6896151  66.0313463  41.0371399
  23.3720320  66.2283659  39.5704079  67.4647808  55.6147003  41.5511894
  66.6517878  55.6417847  41.0466671  67.1889973  55.3807497  42.4374437
  62.1392918  76.9666862  41.3765669  61.3780212  77.5220776  41.2085152
  61.8227339  76.0754347  41.2292910  39.9575321  47.8534263   1.5855026
  40.5751411  47.6508564   0.8828306  39.1144983  47.5353092   1.2625026
  68.0791890   6.3371076  56.5783787  67.6368295   6.1870660  55.7428932
  67.7543627   5.6412210  57.1497440  38.5777240  19.4698896  48.0270004
  37.9672008  18.7353220  48.0894423  38.1144862  20.1223554  47.5017118
  46.3929502  42.0106071   1.8790721  45.8768884  42.5895923   1.3181066
  46.6511051  42.5610489   2.6183986  77.6483250  73.1377411  55.3506994
  78.1957769  73.7088585  55.8895445  76.7805862  73.5407543  55.3796768
  31.0803657   9.7497835  34.1124225  30.2895026   9.5297708  33.6201143
  31.6969733  10.0596513  33.4490871  74.6236706  47.3945856  43.0411291
  73.8694525  47.7828026  43.4846067  74.2515087  46.9530869  42.2777128
  55.2360240  46.9802231  10.4056739  55.5848590  46.0915417  10.4748248
  55.7403556  47.4857754  11.0430812  13.4964328   0.7224931  66.3208675
  12.7916722   0.7933321  65.6770325  13.0601506   0.8287420  67.1662140
  11.9397884  26.4700212   4.4860655  12.3814969  26.9574251   3.7906823
  11.4539724  27.1353235   4.9734908  51.2720351   1.8590440  12.7454114
  51.2186961   1.5235605  13.6403048  50.4653983   1.5569582  12.3279035
  74.4445597   3.9838113  43.0637693  74.2335307   4.0955343  43.9907074
  75.3156792   3.5871019  43.0625725  25.8203654   4.9513044  51.3325357
  25.7102256   4.3907442  52.1005678  24.9820666   5.4049673  51.2449217
  12.0224004  18.5585584  54.8483562  12.5709539  17.9360571  55.3256464
  11.4502864  18.0106916  54.3109989  71.4594460  64.8336458  66.9712782
  70.9536648  65.2982044  67.6380634  70.8644104  64.1575718  66.6471148
  38.0748105  67.0580578  51.0851192  37.7567053  66.8833733  50.1993799
  37.4583340  66.5992880  51.6558361   8.7877649  78.5001183  60.6254625
   8.7671620  78.4849548  61.5823221   9.2336351  77.6886702  60.3826046
  72.3362290  11.3280382  44.9927187  72.8735720  12.1082391  45.1297426
  72.7095782  10.6734075  45.5828905  19.4281856  28.5877079   7.0923995
  18.6041872  29.0264219   7.3040342  19.4308750  27.8046364   7.6428747
  21.9867425   8.8983144  40.3291178  22.4755101   8.0808820  40.2334499
  22.3312764   9.4655218  39.6393323  84.5545279  11.5059652  33.3320332
  85.1779210  10.8597078  33.6636424  84.8939978  12.3462572  33.6400962
  52.6252643  24.1696829  23.9399242  52.2086612  24.5672315  23.1753158
  51.9715110  24.2448610  24.6350478  32.9405360  13.9221372  51.8450117
  32.3851066  13.2302656  52.2042370  32.6407199  14.7201910  52.2802687
  62.5531054  63.3524084  37.7891350  61.8777084  63.3224249  38.4667563
  63.3787107  63.3472586  38.2734680  81.0891806   7.2233572  54.1380501
  80.8139359   7.4046983  55.0367069  80.7943236   7.9850282  53.6389160
  16.8535142   7.2725286  49.5433187  17.0280509   7.0880785  48.6204195
  17.2877936   8.1097784  49.7065306  65.9796619  79.0667725  41.1570454
  66.5268612  78.3609390  40.8126593  65.1017332  78.6882257  41.2036467
  73.6826502  25.1189508  46.9021273  73.2513653  25.5378999  46.1573362
  74.6120058  25.3137388  46.7813540  44.4695335  18.5661306  68.3570337
  45.3596168  18.4789457  68.6981773  43.9067702  18.4392061  69.1208601
  63.0037872  22.4898762  11.6765689  62.3606483  23.1844181  11.8187522
  62.5827018  21.7003006  12.0164108  10.5728739  52.5270796  41.6483068
  10.5213088  51.8064022  42.2761583  11.3999099  52.3848724  41.1878538
   8.7403697  54.0755224  29.1102529   8.1965846  54.7986078  29.4227958
   8.5989684  54.0612793  28.1636620  23.4631340  57.1610779   5.3090429
  23.9071123  56.6420788   4.6384000  23.6805812  56.7245334   6.1326789
  55.4641143  28.3417648  12.3485278  56.1024181  27.6286262  12.3333549
  54.6943084  27.9651541  12.7749061  68.5743618  68.8633537  52.7309608
  68.3439112  68.0599594  52.2643900  68.1521559  68.7736559  53.5853195
  21.7210428  34.2910808   7.9150676  21.0481540  33.8671058   7.3824357
  21.8946401  33.6688942   8.6214542  43.7303257  50.8828068  56.6251802
  43.7485647  51.5360641  55.9257841  42.8541565  50.5008698  56.5733910
  57.7168083  65.2288723  23.3016396  58.2083750  66.0219908  23.0882072
  58.3059978  64.5116806  23.0676985  68.5833645  57.8275871  54.1209698
  68.8302565  56.9058418  54.0457010  69.1657734  58.2820177  53.5122585
  79.0848910   2.6479616  61.2878752  79.5418106   3.0536451  60.5510712
  78.2215678   2.4240484  60.9403610  59.5708942  67.3112583  49.5756721
  59.9222946  67.2912788  50.4658127  59.2737675  68.2132244  49.4556618
  74.3156910  74.1139889  47.2155762  75.0038767  73.9670801  47.8644609
  74.1013432  75.0430584  47.2999334   8.1165904  52.1514082  50.8829308
   8.1354064  52.9918098  51.3407612   7.7007884  51.5508938  51.5015793
  56.3567214  19.5277204  40.4744768  55.6762748  18.8614931  40.5712223
  56.5646796  19.7896852  41.3713360  32.2593522  76.1582565  35.7598090
  32.4538493  76.6843176  36.5354776  32.5490832  75.2755404  35.9902525
  76.4751101  33.8499975  53.8901901  76.1447287  34.7008204  54.1786003
  77.0701075  33.5751104  54.5877934  81.8799769  10.3254213  23.3321476
  81.9935929  10.4147043  24.2783785  81.9073378   9.3815031  23.1756401
   9.2304343  76.2996197  48.9553690  10.0645941  76.2362862  49.4205618
   9.0004557  77.2276497  49.0012789  48.3501850  18.3523359  62.5790882
  47.5059556  17.9053487  62.5181580  48.1765758  19.1186132  63.1258154
   7.8558985  28.4022802  15.1312923   7.7577034  28.7636894  16.0121917
   7.3451940  27.5928396  15.1461982  76.5952301  54.4483995  49.9686861
  77.2459412  54.7545910  49.3369818  75.9026957  55.1084709  49.9381781
  57.8198767  57.5540972  66.3499594  57.9945898  58.3766747  66.8072081
  57.1843958  57.7866793  65.6729746   3.4631019   5.6012239  58.8707781
   4.0436273   5.1521291  58.2563353   3.3304505   6.4673700  58.4855080
  34.9404788  70.6439495  31.4063764  34.2655253  70.1247454  31.8435216
  34.6121478  71.5423679  31.4420509   2.6381320  78.2049894  65.1063585
   2.3538035  77.4375963  65.6028414   3.5130614  77.9764938  64.7924757
  58.0058150  28.1770506  65.5128717  57.7249293  27.3235120  65.8427382
  58.1839805  28.0281343  64.5842600  56.0288230  23.3657545   5.3413486
  55.6942932  22.4760050   5.2288055  56.3868705  23.3765310   6.2289953
  23.9395277  24.0679306  19.6134090  24.0728895  24.4799322  20.4670429
  23.5325281  23.2253689  19.8150825  59.8734283  53.4531403  68.6821938
  60.6046486  53.4354258  68.0647469  59.1201115  53.7168598  68.1538057
  61.7073536  71.5489054  40.5456829  60.8594322  71.5413666  40.1016045
  62.3141527  71.1699200  39.9097610  52.9589073  60.2569431   6.1586856
  53.1484119  61.1290878   5.8127260  52.5270072  60.4204983   6.9971036
  45.8932201  31.7038292  20.5202483  45.4202215  32.5108332  20.7233619
  46.7539588  31.8232149  20.9216308  32.8605991  17.9988374  25.9681463
  33.1599193  17.8841962  25.0662088  32.2978454  18.7725248  25.9372282
   0.7279605  54.1884041  35.6044936   0.8826846  55.1226139  35.4647017
   1.3091773  53.7533903  34.9806428  83.2667828  67.6665831  56.1490059
  83.6661434  66.8011570  56.0607910  83.8722515  68.2566452  55.7001638
  84.5694351  54.0692282  65.3177977  84.0852070  53.4649706  65.8804941
  83.8918400  54.5374537  64.8300791  32.1119075   3.9976396  20.3655744
  32.0950847   3.2046976  20.9014750  32.0104461   4.7131338  20.9932685
  83.6257193  32.6643699  20.1331615  83.5725138  31.9922346  19.4537258
  84.5542596  32.6996893  20.3629398  75.5197141  50.5426258  17.6439189
  74.5764373  50.5951828  17.4899768  75.6088791  49.9376053  18.3802795
  60.9932899  49.2529917  45.1518965  60.1953936  49.7209072  45.3981686
  60.6834698  48.4132147  44.8127604  78.5617638  62.3725605  65.1302052
  77.6244402  62.1897030  65.1951885  78.7173653  62.4959707  64.1938353
  31.5798431  15.7949056  56.0169029  32.4911170  15.7401647  55.7291269
  31.5167194  16.6451826  56.4519548  78.6057602  32.3083200  59.9402475
  79.4880711  32.5443926  60.2266550  78.6200892  32.4346342  58.9915228
   9.1048090   5.4710573   2.3626136   9.3690959   5.5637831   1.4473056
   8.5112087   4.7201485   2.3656177  61.8754768  78.0300426  29.6442676
  62.1978617  78.5105181  28.8817453  62.2332621  78.5041189  30.3949165
  50.4291765  54.5770592  13.7709522  50.9649889  54.5794433  12.9777717
  50.0932113  55.4710144  13.8357257   6.4285903  33.3205213  29.6423745
   6.1631494  33.1334867  30.5428147   5.8001905  32.8406801  29.1028452
  72.8002310  77.3927450  43.2593489  72.6540041  77.6240492  44.1765976
  73.2494211  76.5481949  43.2939863  53.7277309  53.9559883  18.7037658
  54.5623962  54.3986172  18.8574886  53.8516799  53.0785793  19.0657329
  56.0979740  38.9824814  16.0097026  56.1436931  39.5943970  15.2750587
  55.4004375  38.3723348  15.7701492  46.8359272  33.1571668  14.2955016
  45.9430305  32.8420299  14.4357013  47.1111433  32.7413887  13.4784221
   1.3300281   3.8511362  68.8032436   1.9588332   4.5313444  68.5620928
   0.7236915   3.8123884  68.0635929  42.8892665  46.3743486  59.4431925
  42.0499854  45.9153261  59.4766998  43.5001807  45.7306280  59.0845156
  27.5202422   2.6969900  27.4190497  27.7593188   1.7707624  27.4535775
  26.5639167   2.6961412  27.3782420  42.3721210  44.3947262  13.3723449
  42.5383750  44.2835850  14.3084239  43.2422773  44.4824451  12.9832935
  65.3396606  63.0350399  59.9462509  66.2798834  62.8580332  59.9759245
  64.9573135  62.4009991  60.5529070   0.1224631  77.8813410  63.4502983
   0.9606475  77.8605270  63.9120913  -0.1605684  78.7938786  63.5086870
  12.0370727  20.3966417  40.4629993  11.4299874  19.7136774  40.7480288
  12.4861770  20.6673231  41.2637901  70.1659974  52.5848466  69.0957366
  70.9607895  52.0870298  68.9041290  69.4644793  52.0869142  68.6760121
  69.2021639  78.5875303  54.5631552  69.9951548  78.7969954  55.0566339
  68.4906919  78.9608970  55.0833845   4.9092424  43.2755804  53.9511871
   4.6342349  42.6634216  53.2686472   5.2940029  44.0102148  53.4731722
  71.4743419  41.6850028  55.3567362  71.5509267  40.8533655  54.8890352
  72.0188231  42.2924505  54.8559570   5.2237523   1.8220569  23.2257962
   4.7854838   2.4912889  23.7514186   5.2039218   2.1674675  22.3333097
  52.6170621  68.3328019  42.1908283  53.3825354  68.2563970  41.6212273
  52.7327583  67.6405177  42.8416681   2.6894058  59.1772066  62.1932650
   2.6214923  60.0870929  62.4826193   3.2283128  59.2167220  61.4031696
  38.3965646  35.1743672  11.6513728  37.8973757  34.9710725  12.4423885
  37.7907835  35.6795199  11.1090755  21.2420176  18.0781655  33.5490035
  20.4965650  18.5394863  33.9333343  21.4587234  18.5839252  32.7657508
  17.0347448  11.6778880  47.6035953  16.7909976  10.9938866  46.9799281
  16.3160082  12.3085862  47.5603867  14.2858566  76.0387434  21.1750674
  14.8738636  75.3358273  20.8986807  14.8491872  76.6490291  21.6509295
  70.5693477   4.1788423  56.0475111  71.5164095   4.1316232  56.1781883
  70.2424711   4.6307838  56.8254137  82.0608945  50.1256523  66.2766266
  82.2377152  49.2339096  66.5762329  81.1070223  50.2016769  66.3006544
  61.9571172  47.0501278  21.3843250  62.7694069  47.2096501  20.9037303
  61.5703236  47.9185633  21.4958667  81.1943431  44.8049245  24.2454934
  81.6511030  44.5976339  25.0607443  81.7934008  44.5188628  23.5559082
  79.5367342  10.0866437  49.4579363  79.7651052  11.0119224  49.5470381
  80.2953616   9.6931481  49.0267992  60.5333177  63.0386374  39.7788048
  59.7136925  63.5329399  39.7682309  60.2604065  62.1237848  39.8480558
  17.5143779  61.8381975  17.9826880  17.7021946  61.1365733  18.6061311
  17.2231306  62.5701461  18.5264313  18.0543531  55.1119862  46.3696241
  18.2303728  55.2395306  45.4374313  18.0716861  55.9946261  46.7395973
  69.8843037  37.3636747  16.7350005  69.6040188  37.9674892  16.0471916
  69.7023856  37.8293530  17.5512695  74.7200972  14.1794860  50.9449863
  75.2111596  13.5977554  50.3647470  74.4472045  13.6188400  51.6712379
  85.1635642  59.1415201   7.5850636  84.9850554  59.6942554   6.8242413
  84.4957585  58.4568916   7.5456977  52.4968815   3.6331689  24.8688960
  52.3190451   3.7234342  25.8050871  52.6293325   2.6940191  24.7397184
  24.5743752  25.9980035  43.8888407  24.1962147  26.8130660  43.5588360
  25.0219035  26.2512445  44.6961927   6.4262980   2.4468528  54.4483566
   5.7720023   1.8346015  54.7849226   5.9137058   3.1637245  54.0747547
  58.2420000  31.2393999  64.9073774  58.1350788  30.3064114  64.7220898
  57.9129179  31.6785896  64.1231263  81.0737915  78.5237233  48.6155605
  81.1091537  78.1117229  49.4788313  81.3163609  77.8258477  48.0069876
  21.5236105  63.8682566  43.2197714  20.8579410  64.0718136  43.8767958
  21.0242380  63.6328493  42.4378204  21.1411632  79.5439980  64.7674131
  20.2613557  79.6492710  64.4053459  21.1600937  80.1291006  65.5247307
  49.7289432  61.0103295  40.0955296  49.9196685  61.1583290  41.0217857
  50.3097499  60.2925692  39.8431110  17.6548160  51.0274873  42.2907925
  17.9228557  50.1210842  42.1397257  16.7874969  51.0906110  41.8907833
  74.4087362  11.3959265  37.2291660  74.7104788  11.5708566  38.1205606
  73.7851334  12.0984304  37.0452046  33.1364846  35.5336714  45.8794785
  33.9184761  35.1937222  46.3143969  32.7426124  36.1239243  46.5218925
  58.8049923  40.9532846  16.5863609  58.9781462  41.4528386  17.3842906
  58.6120688  41.6177420  15.9249114  79.5851517   7.6834673  33.3982921
  80.0652790   7.3155200  34.1401291  80.2424049   8.1788319  32.9095578
  53.6718069  40.6811774   4.8339795  52.7243887  40.6374099   4.7046851
  53.8938652  41.5976645   4.6697425  53.1464481  28.3613133  20.5628705
  53.1478691  27.5286603  20.0907326  52.6700020  28.9612365  19.9890065
  17.3879623  14.6197236  50.6060553  17.8844047  14.1705513  49.9219322
  16.5425134  14.8128128  50.2008820  73.8050257  46.4889316  20.9563732
  73.1146132  45.8259420  20.9536170  74.1994034  46.4276538  20.0863456
  26.9105649  13.7849963  66.1540985  26.2366843  14.0396249  66.7844009
  26.4351082  13.3052671  65.4758406  82.5524959  12.1350133  26.3676620
  82.1503130  11.2712920  26.4596748  81.8451774  12.6958871  26.0493040
  12.2598280  67.1712218  38.2483745  13.0483402  66.9888983  38.7594914
  12.5663293  67.7104900  37.5193477  29.9312605  42.3077832  20.8713794
  29.8808445  43.0571494  21.4647937  29.0243019  42.0174394  20.7746267
  61.5711125  18.8311845  64.5223761  61.6454943  19.6075660  63.9674622
  61.6782983  18.0950671  63.9199860  58.4995222   3.7276208  14.2130589
  58.0793333   2.8686824  14.1695070  59.3123436   3.6219704  13.7186944
   5.4340662  66.2367807  31.3266516   5.9147752  66.9799934  30.9622550
   4.5606316  66.5829776  31.5096664  82.5976009  53.0797587  53.0178404
  82.1648450  52.7354489  53.7991238  81.9785185  52.9116664  52.3074102
  49.5690454  60.5284486  47.5281429  49.0934814  59.7068796  47.4052811
  49.4124759  61.0188136  46.7211342  32.9672813  14.6951723  24.5094275
  33.3911872  14.7577953  23.6535001  33.6877441  14.7444880  25.1377034
  79.0240201  39.4162079  46.6444970  78.5251578  38.6804201  46.2895561
  78.4284504  39.8303159  47.2690297  56.1205148  75.4570762  33.8431215
  56.9888950  75.2043126  33.5296607  55.9799413  76.3314904  33.4799814
  10.9728206  47.7505765  55.3037643  11.0360206  46.8449054  55.6070757
  10.5429758  47.6880560  54.4507933   9.9996996  19.6236873  19.3439007
  10.7099843  19.0676236  19.6640909  10.0803030  19.5900643  18.3906925
  60.8156239  15.8985976   1.6895294  61.6149269  16.1416630   1.2223386
  61.1255037  15.4802875   2.4927854  40.9958552  63.2426552  21.9449519
  41.4567219  62.4059729  21.8833732  40.8321988  63.3576230  22.8810214
  50.7787431  72.7007906   8.7958199  50.1461191  73.1935547   9.3185073
  50.9289528  73.2468889   8.0241686  21.1448444  78.3156964   8.4749860
  22.0149864  77.9168510   8.4726489  21.1387552  78.8726568   9.2534393
  11.6483331  10.9647155  20.1060891  11.7132521  11.8232703  19.6878791
  10.7287729  10.7184803  20.0060368  28.0724168   7.9017723  61.2691402
  28.2345152   7.7347666  62.1976137  27.8791142   8.8381827  61.2243986
  17.1549571  31.6985631  54.6132851  16.2377918  31.5348339  54.8329067
  17.1236336  32.3962379  53.9586878  17.1855940  79.5734011  42.6772261
  17.6699508  80.3906291  42.7945614  16.4272274  79.8184553  42.1470785
  71.6520448  78.7516532  48.1030130  71.9021220  78.7955678  49.0259218
  70.9649963  79.4115232  48.0093718  11.8737161  32.5527000  55.8774805
  11.1109734  31.9766092  55.8267593  11.7901886  33.1281900  55.1171732
  19.9714054  68.5866390   9.0596503  19.7400821  68.4879003   9.9832153
  20.6163372  69.2938660   9.0485603  46.9990730   7.3239714  35.3291035
  47.9364777   7.2058469  35.4825664  46.8424654   6.9157505  34.4775987
  71.5522034  76.1650992  58.9351749  71.9588656  75.2994136  58.8971472
  72.2841246  76.7680294  59.0655518  29.3396521  10.0975025  41.9085312
  29.1285563  10.1144719  42.8420067  29.7101951   9.2270893  41.7625475
   8.8694316   8.6429560  13.4203672   8.0548984   8.4209323  13.8714480
   9.5599198   8.3341408  14.0069604  35.7465334  76.8294404  60.5806923
  35.0918741  76.3520319  60.0710535  36.1710281  77.4058772  59.9452734
  24.7228622  10.2524662  61.8704414  24.9857569  10.0222266  62.7615690
  24.7266698  11.2095940  61.8593407  33.3804004  30.2282796  11.3933086
  34.2230343  30.0352971  11.8043517  32.7721532  30.3219829  12.1264457
  40.7945633  14.7211003  29.8852611  40.9096813  15.0020790  30.7930207
  41.5013695  15.1561475  29.4084072  36.9326687  14.4784558  34.9567127
  36.6643929  14.7862172  34.0909529  36.1642265  14.6194267  35.5097532
  34.0315689  76.8698306  52.9943371  34.3651498  77.7190573  53.2837677
  34.2356409  76.8382535  52.0596790  80.9453387  50.8491693  47.1278524
  80.7175703  50.3105054  47.8856087  80.7930870  51.7483125  47.4187040
  83.3974738  79.7542898  56.3004780  83.7676854  80.2535046  57.0284605
  84.1128869  79.1888266  56.0094976   3.3859504  78.9779241  60.1123810
   3.7456478  78.1001780  60.2404833   4.1307343  79.5010696  59.8159838
  20.1763071  77.4939273  61.9694757  20.1399625  78.4422202  61.8443727
  20.8813966  77.3628239  62.6034307  39.9956369  12.1166635  27.9266834
  40.8893585  12.4581587  27.8970957  40.0050211  11.4829040  28.6439657
  75.4862614  72.6837669  43.2212543  75.6561894  71.7586789  43.0435801
  75.1184792  72.6943157  44.1049147  14.7014289  59.9165432   9.0688705
  14.6780830  59.7483591  10.0108861  13.8158136  59.7139923   8.7673854
  17.0185351  22.9142499  60.6464195  16.5280592  23.2240629  61.4077854
  17.4175179  23.7038851  60.2810144  82.4527019  14.7163856  56.4227629
  82.9163353  13.9902222  56.8398523  81.5503883  14.6331596  56.7312002
  81.3128296  19.9096227  13.6063802  80.5054832  19.4485068  13.3787918
  81.0217482  20.7758522  13.8912475  16.0838795  10.0288916  23.9549279
  16.9798541  10.2003169  24.2448807  15.5854630  10.7890081  24.2549896
   3.4289993  74.9655519  43.4096575   4.0827526  74.7381155  42.7485132
   2.6912273  74.3836723  43.2270622  56.0657274  68.0290363  25.5344319
  55.5463750  68.3794592  26.2581086  56.0668638  67.0824824  25.6767941
   3.4868398  21.9227910  53.8481331   3.6259133  22.5557828  53.1437063
   3.8177341  21.0963774  53.4963036  85.0040500  28.3705688  48.7148237
  84.5368490  27.9196978  48.0114985  85.8759454  27.9755640  48.7148333
  55.1170404  57.4855552  45.3008556  55.1028417  57.8888617  44.4328833
  55.9702898  57.7252779  45.6624174  59.1906500  74.9331154   5.3601407
  60.0578213  75.2382149   5.0933790  59.0247774  74.1696229   4.8071527
  52.6064457  70.0099287   1.8760332  52.7783073  69.1106925   1.5966231
  53.4663356  70.3541932   2.1174958   3.8477958  62.6690660  29.5466495
   3.3301080  61.8958161  29.3223357   3.2655038  63.4073625  29.3675184
  30.2960014  11.5258372  28.2497907  29.9112058  11.4258480  29.1205168
  30.3796411  10.6308925  27.9206848  17.5360216  70.4739694  59.0128183
  16.8385185  70.0058208  58.5539484  17.1204198  71.2782929  59.3235826
  28.5896873  19.8559010  12.1015453  28.8764715  19.4285047  11.2945020
  27.8295350  19.3477046  12.3846292  10.4204726  37.3353624   0.8445669
  10.2592480  37.2697115  -0.0966706  10.8469605  38.1850457   0.9558214
  23.5695052  16.2514055  19.0153110  24.2119670  16.1246967  19.7134674
  22.7781391  15.8193827  19.3367577   7.3964638  25.9756875  67.7991438
   8.2544369  26.3571429  67.9851770   6.7755634  26.6794968  67.9872036
   2.7512039  72.4599437  48.1824684   2.9919399  73.2202003  47.6530457
   1.8420304  72.6217077  48.4343910  40.8571672  13.7725961  43.4036589
  41.4225292  13.1195688  42.9911566  41.3346672  14.0412736  44.1885424
  10.1643361  63.7239406  43.1677437  10.8919061  64.2229376  42.7964306
   9.4453682  63.8523934  42.5490236  12.3549473  23.3681512  52.1267319
  12.4920702  23.6805081  51.2323809  11.5844023  23.8469148  52.4321461
  45.0929414  20.8467046   3.1624841  45.1146745  21.2583486   2.2985935
  45.3188585  21.5515653   3.7694120  52.9921770   0.0043234  67.0074987
  52.7627230   0.9151847  67.1916533  53.1638575  -0.0137745  66.0659933
  28.2495761  12.1141434  40.2810621  28.0619240  12.7460670  40.9751034
  28.9580750  11.5752363  40.6329727  74.7455059  18.2370261   9.7647523
  74.5149027  19.1657476   9.7877311  75.4325758  18.1444387  10.4247474
  29.0381527  20.3594685  58.8231945  28.7751460  20.5231714  57.9175138
  29.5974851  21.1029148  59.0482855  85.0883217  69.8421774  68.5322189
  85.2418895  69.4041345  67.6950979  84.1414685  69.9796794  68.5604382
  37.6664734   5.8027464  33.9462757  37.5557137   5.8427471  32.9963470
  37.2866511   6.6209829  34.2663622  44.3553257   1.0466589  15.7138050
  45.1054573   0.4521829  15.7253826  43.5925150   0.4691915  15.6840551
  50.5701351  19.7797406  10.5449116  50.7739353  19.4110405  11.4044213
  51.3193130  19.5420718   9.9985844   6.7913521  78.2387503  45.1984644
   5.8927811  78.0827766  45.4891014   6.9521392  77.5602982  44.5426559
  18.6459041  10.3175080  24.8537564  19.2545903  10.8447123  24.3362737
  19.1955817   9.6484160  25.2616811  47.1499872  10.3946829  34.9674821
  46.9777393   9.8117942  35.7069445  46.3699102  10.9464920  34.9107099
  14.1191220   9.0825599  52.2415733  13.7516594   9.8565817  52.6682949
  15.0406492   9.0811342  52.5004482  36.6116023  16.9304585  29.4045997
  36.7629480  15.9853816  29.4169831  35.8314896  17.0409918  28.8610554
  16.6390550  24.3990970  10.0538146  17.1257019  24.7816730  10.7839119
  16.7486894  25.0255656   9.3384492  59.9262718  45.5985031  54.1449785
  60.1595525  45.8558593  53.2530212  59.1185659  46.0780201  54.3291187
  30.9245183  62.2367982  23.6419677  30.9645461  61.6131739  24.3670368
  30.2911441  61.8562822  23.0334663  78.3245988  65.4577587  36.7723107
  77.9637833  64.6320198  37.0951080  77.9477806  65.5583356  35.8981681
  32.4946846  70.6535766  45.2138090  31.9959463  69.9897597  44.7375345
  32.8306545  70.1942919  45.9834957  42.9852064  79.4652245  31.0759068
  43.4254045  80.0855123  30.4947853  42.2361989  79.9508605  31.4214182
  51.8883247  77.1086163  28.6034393  51.2735410  77.5505702  28.0178189
  52.2607387  76.4045225  28.0725980  54.5691919  14.5988500   0.9031272
  54.7915459  15.1201034   1.6745447  55.1692867  13.8538587   0.9363581
  29.1753745   5.2982944  33.9487457  28.4395194   5.8369666  34.2395759
  29.1606188   5.3679001  32.9941940  71.9926262   8.4171098  47.8925180
  71.2352991   8.8218296  48.3154678  72.5971317   8.2309973  48.6109638
  33.4619784  12.7812052  10.6103098  33.8390923  13.4972835  10.0991833
  33.7189651  12.9699242  11.5128481  36.9675159   7.5810856  27.0706558
  36.4588165   8.3014953  26.6985464  36.6717529   6.8067437  26.5919614
  11.2230647   6.5950352  36.3345909  11.0331607   7.4142623  35.8773875
  12.0230544   6.7760181  36.8280387  54.9980831  -0.2444692  29.1036057
  55.1137829   0.6356002  29.4618273  54.0819263  -0.2722274  28.8277102
  29.4058431  65.2117215  45.4613209  29.4671072  66.1552165  45.6106329
  30.2472080  64.9759517  45.0704861  12.4648130  12.8721762  24.7769976
  11.7315578  13.4857690  24.7314525  12.0536339  12.0159888  24.8957705
  24.5048870  66.9402192  63.9507246  24.6214880  66.0613439  64.3115759
  23.7569774  67.2982059  64.4289589  43.8064241  10.9684432  49.0986395
  42.9364014  10.9081089  48.7041140  44.4030857  11.0377538  48.3533716
  51.8529987  23.9074421  52.1378803  52.5802231  24.4822359  51.8991566
  51.2310362  23.9955282  51.4156389  80.5126271  12.0681727  44.7812843
  80.7614535  11.3127077  44.2487526  79.7950083  12.4765956  44.2970896
  12.6849735  13.6361825  46.3832283  12.4477756  12.9809177  45.7270288
  12.7129769  14.4611883  45.8986521   4.9905777  13.3178020  22.2585058
   4.3317249  13.0486941  22.8986049   4.6710512  14.1556847  21.9237137
  84.8871822  63.6366914  27.7203560  84.4294567  63.8728855  26.9135547
  85.3691549  62.8401707  27.4978948  15.5992579   2.6225457  33.6987758
  15.7562220   1.8804806  34.2826724  16.4216352   3.1122932  33.7074780
  56.8204843  48.9601258  12.1371555  56.5756260  49.0439139  13.0587100
  57.1871220  49.8141531  11.9081497  41.3434124  30.6413484  52.2044754
  40.9240961  29.8372030  51.8982792  40.6291103  31.2755775  52.2657681
  13.8947904  54.6667004   8.8180584  14.7552884  54.2566109   8.7308824
  13.2753956  53.9764023   8.5812587  79.1822767  -0.0079309  42.6132441
  79.0242624   0.3643559  43.4808064  80.1338291  -0.0974067  42.5606871
  15.1618308  13.2378554  20.7372689  15.2847403  13.0278659  19.8115110
  15.3131217  14.1814971  20.7909584   3.3505731  71.3110141  10.9739780
   4.0199952  71.0883145  10.3270530   3.7133651  72.0607523  11.4456844
  67.8825461  28.0967848  16.0086822  68.3141147  28.5576324  15.2892398
  68.5539280  28.0306713  16.6877364   6.1407781  17.3879349  53.5291672
   6.7068893  16.7040336  53.1713581   6.3643569  17.4216068  54.4592810
  30.3302050   2.6622051  33.8088083  29.5744061   2.8999424  34.3459105
  31.0847807   2.8071362  34.3796325  79.7451014  74.8279713  63.0244780
  79.9349279  75.7295761  62.7650404  80.5563731  74.5188955  63.4276485
  52.7426004  10.3843606  53.4548569  52.3066092  11.1817276  53.7554359
  53.6766911  10.5828726  53.5204268  18.5195529   5.9758753  15.5421615
  18.4096825   6.5529305  14.7864044  18.2301855   6.5008461  16.2884212
  19.6380949  43.5922909  30.2605677  20.5342007  43.2818937  30.3904819
  19.7376943  44.5046568  29.9887204  36.0779874  23.8349394  16.3413238
  36.0144459  22.9774205  16.7618656  35.2131235  24.2264167  16.4637470
  76.4604521  26.0325599  47.0511770  75.9844780  26.8061590  47.3532104
  76.8951225  26.3174725  46.2473631   8.7234200  77.2225661  52.7328873
   9.0274776  77.1194760  53.6346340   9.4822920  77.5671856  52.2621632
  28.4957385  28.5360432  64.3474007  28.7405920  27.9114938  63.6645985
  27.8862977  29.1353083  63.9164782  20.8190417  15.2961838  30.4548120
  21.0963130  14.4937778  30.8969617  19.9096382  15.1306558  30.2061844
  34.4730867  77.2685833  45.2725410  34.1137994  77.8868867  45.9088182
  33.8609708  76.5327404  45.2816391  54.0615511  35.2172589  60.2811193
  53.9514685  35.3715539  61.2193680  53.2809591  34.7254682  60.0260639
  39.9012470   3.8670707   5.0374067  40.2266884   4.7601557   4.9246305
  40.5348492   3.4535158   5.6237119  25.1477528  48.5676670  37.6296091
  24.2423058  48.3689070  37.8681278  25.4292870  49.2147255  38.2763553
  44.9251795   3.6026677  26.7800450  45.6501627   3.4846622  26.1662793
  45.0983810   4.4473004  27.1957707  28.4403003  71.2630651  67.5750256
  28.4727825  70.3896127  67.9652262  27.5680078  71.3188032  67.1848583
  22.5302982  32.3538804  32.5626945  22.9315066  31.7406869  33.1785345
  23.0140948  32.2249651  31.7468786  42.8824329   0.6950644  54.3402433
  42.8188086  -0.2391142  54.5389748  41.9896173   0.9523463  54.1101933
   1.7702569  76.1818607  23.2739139   1.8773998  76.6073189  24.1246414
   1.6470183  75.2559433  23.4830070  78.2603354  77.4116586  47.8338528
  78.0245180  78.2009606  47.3463869  79.1782398  77.2574649  47.6104450
  61.9314766  22.1104813  49.3607998  61.9091606  22.9483604  49.8230696
  62.3722887  22.3049259  48.5336924   7.0223845  75.2949921  40.2791548
   6.1960615  74.9475578  40.6148767   6.9663728  76.2378905  40.4341936
  82.2525020  73.6886833  33.7946415  82.7609415  72.9262094  33.5183215
  81.9740100  74.1001544  32.9764938  54.9792624  14.1054964  56.7790937
  55.3259897  13.5143745  57.4473667  54.6404362  14.8524463  57.2725439
  46.1359011  32.6123766   8.8293123  45.7128202  33.1361554   9.5096683
  45.4619371  32.5013171   8.1587362  47.1595287  10.2749622  62.9857445
  47.7508783  11.0173488  63.1098509  47.4652433   9.6180642  63.6112452
  62.8693104  12.2555637  45.8249855  63.7860775  12.4483633  46.0214567
  62.9040861  11.6786003  45.0620079  31.7310190  30.6783557  68.1674051
  32.2351289  29.9038482  67.9179239  32.0464492  31.3678598  67.5831795
  36.0091805   0.5522589  22.6445341  35.1543188   0.9758995  22.5672436
  35.8076191  -0.3790507  22.7354574  80.9891075  13.3118284  47.5024700
  80.5961666  13.1069314  46.6540337  80.2425313  13.4346497  48.0887938
   7.6358991  31.6841022   2.8559303   8.4614425  31.5790085   3.3288574
   7.7861552  31.2551151   2.0135354  49.3924392  77.3962657  42.7552319
  49.7258581  76.9108928  42.0005989  49.5985473  78.3107970  42.5618887
  14.3281377  66.8865202  56.6126251  15.0954355  66.9493852  56.0438204
  14.0080656  65.9934638  56.4852142  40.4217720   3.8334057  42.1533728
  40.5547047   4.4606453  41.4426470  39.6472764   4.1549653  42.6148748
  50.2289581  24.8505783  50.1940823  49.4654560  24.6131873  50.7203341
  49.8958111  24.9017644  49.2981863  19.4916928  28.0767417  35.3841686
  18.9715147  28.5900903  34.7660112  18.9198065  27.3507452  35.6333852
  27.6752830   1.8145938  31.6949272  27.1474409   1.1983369  31.1871457
  27.2643971   1.8262640  32.5593734  22.3683643  78.2398095   6.0527276
  21.7177606  78.4593739   6.7196130  22.4275851  79.0248408   5.5082559
  43.4475374  21.4334631  34.5076227  43.4013748  21.2928700  35.4533172
  42.5631237  21.2446308  34.1939545  28.0490160  15.0586390  36.1233997
  27.4925280  15.8013964  36.3576317  28.7762904  15.4479730  35.6378865
  15.1784195  78.6861339   4.0445015  15.3303064  77.7440367   3.9695671
  16.0471786  79.0769801   3.9510661  -0.0603162  56.2169609  60.3978348
   0.7747949  56.0495172  59.9610519   0.1807726  56.4496098  61.2944841
  50.2381563   6.1590731  28.7569523  50.9499931   6.4184922  29.3419480
  49.8897219   5.3564149  29.1449785  58.8393879  12.5796902  28.0966902
  59.1102982  13.2320881  27.4507666  58.3597231  13.0806243  28.7564015
  29.7804713   1.4003237  41.9326687  29.1821098   1.6806859  41.2401438
  29.2214370   0.9454298  42.5625801  36.0235572  13.3595872  48.5085773
  36.4605427  12.9714358  47.7505398  36.1501598  12.7214885  49.2107391
  52.7900219  18.6210120  37.0861506  51.9766760  18.6803710  37.5873280
  53.4649611  18.9375579  37.6865578  37.6390791   3.0751231  32.7907944
  37.2652698   3.8609666  33.1894779  37.6675940   3.2719672  31.8544865
  22.3180021  80.3763225  51.5258598  22.9668392  80.9972196  51.1946106
  22.5430406  79.5469754  51.1042261  10.7672776  70.0943444  52.0415258
  11.1915983  70.9470383  51.9461536   9.8717512  70.2368257  51.7349911
  62.9342766  68.6114619   3.6117423  63.4549869  68.1810818   2.9336083
  63.4456183  69.3841169   3.8520870  36.5815568  45.3280878  36.3866663
  36.1080742  46.0380650  36.8202305  36.9992638  44.8473549  37.1012640
  23.6051822  11.1746633  55.0776386  23.9133883  10.6455803  55.8133793
  23.7369633  12.0792985  55.3613710  28.4264112   5.1444018  28.4542489
  28.2512212   4.2602682  28.1319952  29.3813181   5.2086109  28.4703875
  78.9787979  69.1085766  37.2187829  79.7007651  68.7340019  36.7141151
  78.2303257  69.0810559  36.6227436  44.4640207   6.3153905  39.7025609
  43.9943981   5.4839188  39.6366692  45.3859043   6.0654777  39.7650671
  49.5437384   7.4975133  16.9308078  50.2370071   6.9568354  16.5522861
  49.2376804   6.9987786  17.6883185  30.6640625  25.7490039  44.5726538
  31.1815262  25.8359861  43.7720919  30.6333399  26.6342902  44.9353600
  22.6448597  73.8362275  38.1996202  21.8090786  73.4987483  38.5218215
  23.1080688  74.1206316  38.9875174  13.5906732  12.3133397   5.7740098
  13.4655929  12.5153375   6.7012548  13.6491513  11.3584411   5.7426709
  22.0847893  23.3435607  55.5514145  21.6601110  22.5296044  55.8222532
  22.8925729  23.3743310  56.0640287  38.7295127   7.9194772  14.5596123
  39.4264364   7.2710353  14.6598732  38.9441013   8.6019886  15.1955068
   5.1005448  76.7432261  18.1460726   4.4788898  77.4174560  18.4202790
   4.6082104  76.1992768  17.5312901  33.6051440  43.3793163  22.2546577
  33.7528777  43.0784941  21.3580465  32.8755617  43.9948606  22.1836233
  73.3210260   3.0470097  53.4116840  72.7693647   2.6621494  54.0926981
  72.7586013   3.0795395  52.6378298  36.9187427  41.5646744  59.8543978
  36.8779492  40.7811832  60.4027653  37.2080564  41.2442780  59.0000677
  44.4854116   1.8353680  48.5997534  44.3349314   2.6840067  48.1833410
  44.3474913   1.9985908  49.5327950  25.3806067  26.2898064  46.9471359
  25.4978824  27.1152925  47.4172974  24.7363138  25.8081460  47.4659061
   2.8837901  41.7063475   4.2071155   3.2120067  41.1270142   3.5194528
   2.4712239  41.1178780   4.8393553  33.7908697  14.4996428  60.7741642
  34.0807748  15.4115880  60.7508373  32.9446316  14.5058203  60.3268671
   8.3403063   1.0404395  19.2582846   7.4646527   0.7140331  19.0511096
   8.3817363   1.0247741  20.2144599  19.8632969  74.2688362  46.8765736
  19.2061676  73.9166258  46.2762737  20.6483234  73.7489966  46.7041445
  47.2416242  60.7438451  64.1225964  46.7400476  61.0774118  63.3786971
  48.0935653  60.5124694  63.7526090  11.5235008  58.5548458  33.0822444
  11.0656799  58.0117879  33.7238979  10.8674277  58.7343512  32.4087620
  20.2480674  10.0609958  57.6297569  19.3239725  10.3078496  57.5931358
  20.6574821  10.7437491  58.1612253   1.2939349  25.3340220  19.1521072
   1.6651690  26.0293818  18.6090684   1.9733933  24.6602273  19.1759908
  22.2429156   8.0396670  34.7756052  21.9837785   7.1996701  34.3968105
  21.5333962   8.6375606  34.5403719  31.2336588  17.4574184  14.3839383
  31.1238790  18.0998218  15.0850081  31.8362641  17.8750694  13.7685812
  22.3997021  20.1257420  53.0850887  22.1625710  20.9334660  52.6294804
  22.9606462  19.6577203  52.4665976  83.2251871   1.0029345  41.4151096
  82.6330531   0.8917193  40.6713104  84.0342014   1.3386664  41.0290909
  15.8049072  75.6131227  30.4256821  16.6438354  76.0687561  30.4951572
  15.8228792  74.9689392  31.1334515  58.9403152  14.5918965  39.6527219
  58.4465551  13.8239753  39.9403501  59.2969704  14.9633408  40.4596043
   8.2232726  22.0957017  57.9358530   8.4795535  22.6159739  58.6973476
   7.7964491  21.3231421  58.3062649  47.8652763   1.6331309  44.0048170
  48.3116531   1.0493365  44.6181393  47.0493555   1.8669134  44.4473696
  40.4361868  37.0331001  34.7740078  39.5167065  37.2848034  34.8601961
  40.8623934  37.8060269  34.4036460  37.3036504  24.3738556  39.9682617
  37.7960253  24.3352365  39.1483188  36.4478827  24.0039015  39.7514033
  65.6340195  79.1980186  52.4587440  66.5171136  79.3879178  52.1420193
  65.6284137  78.2512085  52.5992823  56.6209899  50.8923618   3.5740518
  56.1931692  51.6915123   3.8815545  56.4947139  50.2642349   4.2852067
  18.9018476  22.4851894  25.6904435  19.0975273  21.5530896  25.5948853
  18.8612139  22.6256418  26.6364098  50.3755283  11.1682105  32.1006656
  50.8153009  11.0112298  31.2650871  49.6789408  10.5124342  32.1316195
  83.0674362  40.7494020   6.3955081  83.3706665  41.3114834   5.6825197
  82.4867249  41.3089323   6.9111896  30.6521678  14.0888691  26.8778300
  30.7370281  13.8382292  25.9579325  30.5487275  13.2590604  27.3436069
  48.9104652  21.3588309  40.7841063  48.7515974  20.9645867  41.6417599
  49.5550537  20.7837129  40.3718233  22.1989512  28.7488627  35.8657265
  21.3411236  28.5535145  35.4886317  22.0561242  28.7232590  36.8118644
   0.7797040  77.9412807  59.4721413   1.0941352  77.5498978  58.6571646
   1.5687622  78.2796199  59.8953962  22.4422121  29.2326474   5.0200921
  22.7060652  30.0137281   4.5337492  23.2223392  28.9844465   5.5161083
  20.3395475  77.8577621  29.5839739  20.7454933  78.3470320  28.8683939
  20.6070198  78.3248871  30.3754830  50.0513853  79.1588536  57.2980452
  49.8864944  78.2184015  57.2302771  50.9489651  79.2678941  56.9838905
  32.7072824  79.2591072  50.0832701  32.4126066  80.1620540  50.2019501
  31.9200529  78.7309047  50.2155590  42.9048061  11.3019419  43.0946636
  43.8000870  11.2121296  43.4212112  42.9866838  11.8606448  42.3217630
  41.2873316  14.3915498  64.0810394  41.1169338  13.7615907  63.3807898
  42.0497417  14.8851573  63.7788534  24.2689705   6.4094597  58.3254671
  23.8761950   6.6552258  57.4878788  24.2012596   5.4549956  58.3508730
  24.2053712  68.8923118  50.7185555  24.4332327  68.6997996  51.6280890
  23.2755006  68.6747692  50.6534004  73.5096632  49.1074644   5.3351211
  73.6958443  49.6163426   6.1241769  73.9109885  48.2542668   5.5001163
  34.9321855  53.7972484  22.2274399  34.2836774  54.2219816  21.6659474
  34.4308199  53.4909687  22.9831243   5.1834470  16.6104960  15.4629588
   5.3960586  16.2580192  16.3271284   5.5304295  17.5024951  15.4761231
  45.9975815  26.1883044  39.4926000  45.6362343  25.3557110  39.1885424
  46.4818478  25.9633660  40.2870321   9.4463021  34.4760680  54.4482994
   8.6298168  34.9115849  54.2035389   9.7532433  34.0696239  53.6378527
  75.7551415  77.7044101  48.5072994  75.1894028  77.7524138  47.7366734
  76.6331739  77.5672455  48.1516695  25.7499162   9.4086212   8.2916259
  26.4534799   9.3705982   7.6437187  25.0046531   9.7738785   7.8147601
  47.3912811   0.5873873  24.2536211  46.9363785  -0.2515705  24.1798282
  47.2993422   0.8294525  25.1751328  43.6637402  36.1155891  48.7074423
  43.3895874  36.3828015  49.5847464  44.5518684  36.4613152  48.6183500
  63.9483976  10.9276855   9.5006013  64.7296619  11.3946724   9.2043293
  63.2525206  11.5844297   9.4745719  12.1629060  64.5858894  41.3610363
  11.7668213  64.4513128  40.5000830  13.0542244  64.8788820  41.1714697
  75.6986427   0.9981221  42.0191383  76.6301870   1.0863169  41.8174458
  75.4191637   0.2259309  41.5273619  10.4689038  40.4277515   1.2011658
  10.2612150  40.5224037   0.2715753  11.4046812  40.6208277   1.2583789
  49.9979782  18.2682490  24.9447203  49.3256950  17.6377034  24.6864915
  50.5621195  18.3454645  24.1752958  72.0946855  60.5069778  50.1962423
  71.9802256  61.3565050  50.6221962  71.3301892  60.4195664  49.6269131
  29.0452456   9.5653337  52.5413513  28.2201672  10.0489068  52.5009012
  28.9828348   9.0521324  53.3469296  58.1874323  11.9776225  55.1332951
  58.8221788  12.3890495  55.7198572  57.7582693  11.3134778  55.6727028
  56.8919073  20.6968955   4.9758148  57.2645627  20.3299944   4.1741037
  56.4206325  19.9666528   5.3769111  75.0451869  25.7118416  31.7142439
  74.8896331  26.6562843  31.7221570  74.2300302  25.3376365  31.3799977
  13.8823080  46.6073132  26.2384009  13.6706173  45.8756256  25.6587052
  14.7767830  46.8507910  25.9999347  51.7724562  14.1087234  50.1242781
  52.3072195  14.9013937  50.0803471  52.3973370  13.3918834  50.0152206
  23.4354557  64.3141005  13.0873418  23.5018743  65.0211726  12.4455702
  23.5386623  64.7486077  13.9339721  27.9545546  14.2010057  42.2894859
  28.3349633  14.6770120  41.5512896  28.7096405  13.8677561  42.7742767
  44.6448708  27.5246477  48.2327509  43.8496447  27.3784709  48.7450790
  45.3239346  27.6905799  48.8866377  56.3901615  24.9135160  46.2661505
  56.1365843  24.2067671  45.6724882  55.7072210  25.5751610  46.1563587
   9.8218573  76.8326131  41.8118668   9.7493495  76.6389067  40.8772802
  10.7427682  77.0609591  41.9384003  41.8873119   9.5353335  57.9184771
  41.7200565  10.1642632  58.6204052  41.6816711  10.0129974  57.1148729
  44.3520355  48.1457520  54.7772360  45.1310492  48.5804319  54.4302130
  44.2476797  47.3678923  54.2292643  55.6092691  25.6779051   9.1355032
  56.2370634  25.8985972   8.4474635  56.1089516  25.7523608   9.9485254
  53.9781414  43.2450376  11.9186782  53.4420263  42.8408478  12.6009178
  53.4724413  43.1260146  11.1147308  50.6814098  26.7858648  67.6305056
  50.3055716  26.4029002  66.8378448  50.6382513  26.0835910  68.2794952
  24.1492057  42.9869032  55.4052830  23.8819551  42.8691721  54.4937181
  23.7690806  43.8277626  55.6596327  66.0151769  74.5189700  55.5414104
  66.2312974  73.9983950  56.3150549  65.8074905  73.8716767  54.8675346
  67.7555698  27.6358652  52.2784328  68.6971527  27.4637127  52.2743416
  67.5768381  27.9691219  53.1577682  83.5301849  36.9458675  20.7383204
  83.4311159  36.3746858  21.5000081  83.1998587  37.7951670  21.0312462
  51.6140901  27.4766545  13.2601356  51.8183457  28.0038683  12.4877738
  50.6592142  27.5020460  13.3217811  17.3469293  78.1897702   1.5886354
  17.7436829  78.9630284   1.9897413  17.7943075  77.4503102   2.0000791
  15.3469242  69.2034886  50.5051661  15.2073206  68.2584641  50.4445839
  14.6399034  69.5142768  51.0706472  19.1375173  78.1065025  14.8397326
  19.9147190  77.6308347  15.1328683  18.4915031  77.9585732  15.5303943
  40.8975315  22.7901578  64.5385647  41.0207701  23.5629797  65.0897408
  41.7273951  22.6944757  64.0712261  34.6461201  33.5259438  44.1822672
  34.0055108  33.0303788  43.6721039  34.1194630  34.0350008  44.7984838
  11.4093947   0.7977452  42.0167065  11.5885484   0.0147390  41.4960909
  10.4619133   0.9171385  41.9514513   9.8555523  15.0377142  59.2331505
   9.5203304  15.0290418  60.1296902   9.1585946  15.4475689  58.7207985
   5.1708751  65.7780461   6.4760875   6.0543876  65.4107074   6.4495849
   5.3039222  66.7250852   6.4355325  21.3949312  77.3881982  33.3528161
  21.4056600  78.0961151  32.7086329  22.2667040  76.9973699  33.2937360
  40.7421326  51.3746361  13.0974769  40.8682321  50.4272596  13.0444717
  40.4688727  51.6295616  12.2162437  32.1985197   3.4303734  14.3627489
  31.8466759   2.5949985  14.0551984  31.4350080   3.9058411  14.6901834
  67.5150021  38.2325463  61.3492674  68.2267793  37.5980490  61.2654895
  67.3312768  38.5064192  60.4506744   8.6680740  11.1031103   9.7624069
   9.3308467  11.3954353   9.1366994   8.4069234  10.2376163   9.4478399
  11.8890858  15.2417719  34.5673680  11.3732028  15.7224381  33.9200211
  12.7982330  15.4475856  34.3498278  81.6903658  61.5952347  40.7936382
  81.0644455  60.8841846  40.9309816  81.2126250  62.2366081  40.2676773
  81.2405605   3.8983961  62.7789629  81.9068546   3.7070843  62.1189011
  80.4594250   3.4388157  62.4709887  51.2554216   5.6255609  63.5973501
  51.1300278   6.3849890  64.1663647  51.1821747   5.9765577  62.7098465
  79.4269438  56.0016761  38.6191440  79.7562618  55.1952777  38.2222772
  79.8377747  56.7027412  38.1132221  29.7904062  13.9327908  50.8407593
  30.2665758  13.7762082  50.0253010  30.3750610  13.6081922  51.5256262
   9.0928615  66.4274452  56.0316324   9.7439397  65.7734499  55.7774305
   8.5195030  66.5036497  55.2689505  46.2907696  49.9736118  56.6374826
  45.3635406  50.2112246  56.6418695  46.4164543  49.5145512  55.8070040
  26.1074270  78.5179555  31.7272401  26.5875686  78.8121561  30.9531999
  26.7581237  78.5236658  32.4292326  65.8472263  66.6161756   4.1881131
  65.0103032  66.1796765   4.0291690  65.7630645  66.9821648   5.0685644
  11.5436244   2.6755577  16.0216093  12.1071720   1.9087243  16.1246264
  11.2882936   2.6629657  15.0991786  82.6551623  74.0113137   6.3902891
  83.5065479  73.6281733   6.6014278  82.0787973  73.2580076   6.2615865
  23.4256864  17.7193952  49.2306376  24.1793466  17.6212943  48.6487389
  22.8841734  18.3876550  48.8106060  23.5284675  77.1398700  53.0593204
  24.2707838  77.0944063  53.6619282  23.9278091  77.2118668  52.1923876
  69.7162719  72.1226845  68.1974506  69.6571798  73.0531315  68.4142637
  70.5933542  72.0179174  67.8286934  56.3391816  66.5706138  14.9808120
  55.6864749  66.0493044  14.5134353  57.0646726  65.9651546  15.1334953
  80.2711077  27.9180203  22.3134279  80.4788442  27.3621331  21.5623832
  80.9069009  27.6641760  22.9824281   0.4366935  20.8333254  38.8642263
   0.6212964  20.7190847  39.7964835  -0.4397650  20.4668570  38.7469530
  49.4295216  21.4833093  27.2064209  48.8144398  22.1832752  26.9874334
  48.8757181  20.7190704  27.3660278  48.7768221  11.6413236  22.9096675
  49.1051006  11.4426649  22.0327401  47.9831409  11.1128974  22.9936981
  32.4788523  12.0056427  38.9494967  31.7761207  12.0118845  38.2996035
  33.2777214  11.8806040  38.4372449  79.6402415  45.9923923  54.8590363
  79.0978392  46.6596740  54.4386030  80.5037125  46.0992753  54.4600022
  52.5467157   6.4266157  30.3176403  53.2424498   6.9496685  30.7158947
  52.5432253   5.6112212  30.8189917   3.8773255  57.3651151   2.4176311
   4.6905189  57.4835900   1.9267988   4.1550403  56.9946245   3.2553911
  71.0245180  10.4877210  42.6165342  71.4334726  10.7111168  43.4526443
  70.5911350   9.6497047  42.7782154  42.5217308  71.8704770  45.6682539
  42.3324073  71.0656832  46.1506414  42.7670158  72.5026099  46.3438845
  32.3280668  18.8478339  64.4056606  32.7635622  18.2705116  65.0327778
  31.4863467  18.4250522  64.2353916  20.4151654   5.4767704  49.6578884
  19.8531067   5.8228844  50.3510857  19.8161399   5.2886653  48.9353800
  56.3975382   7.4967974  45.6850767  55.4508972   7.4545419  45.5497217
  56.4991999   7.9298615  46.5326357  12.5669826  77.6417778  19.6291292
  13.1725706  77.2609452  20.2651024  12.6264728  77.0656843  18.8670218
  78.9162480  62.6891879   1.0631894  79.0086686  61.7452864   1.1925840
  79.3770014  63.0790309   1.8061303  32.1697677  69.6627770  28.7053895
  32.1705068  70.3256307  29.3959379  31.5010799  69.0342305  28.9774442
  32.1531534  19.5143521  18.7582088  32.2352409  19.0323365  17.9353142
  32.2374511  18.8450325  19.4372797  15.7121587  25.6878281  60.1469564
  16.5959954  25.4512072  59.8657513  15.7917428  26.5916824  60.4518223
  83.0582471  72.1128283  47.5145674  83.8185687  71.5774790  47.2875309
  83.0437322  72.1145676  48.4716558  50.1800214  64.1785745   9.5754909
  50.6252729  64.7386173   8.9396190  49.8902093  64.7792224  10.2621221
  26.6429008  73.6972932  58.7848854  26.1659683  74.5131336  58.6326694
  27.2419180  73.6277721  58.0415297   6.8374062  18.4843814  44.4609118
   6.7632735  18.9522743  45.2926636   7.0201069  17.5786865  44.7110462
  39.8976636  24.1432667  28.3950758  39.6773005  25.0546765  28.5874438
  39.1789889  23.8343978  27.8434086  44.4465351   8.0202579  10.4838073
  44.2888689   8.9534074  10.6273544  45.1750088   7.9930824   9.8634696
  35.8941388  24.0080094  54.3562937  36.7118144  24.3481851  53.9930868
  35.7875180  23.1505656  53.9444017  64.2681646  21.5796423  51.1307764
  63.4783506  21.6816258  50.5997229  64.6064377  20.7161951  50.8935785
  21.0055184  26.8976808  40.3232241  21.7819524  26.7364979  40.8593225
  21.1732626  27.7430725  39.9068046  19.9414241  39.7413611  31.7241812
  20.4450583  39.6955967  30.9114742  19.2818129  39.0533090  31.6362596
  79.9765820  70.7272456  27.4009013  79.6073241  71.0121767  28.2367802
  79.3784995  71.0801462  26.7421222  25.3021669  23.5616469  51.0971117
  25.2132773  22.6197815  51.2427759  25.2190828  23.6663175  50.1492882
  32.6264358  35.8127642  61.9330072  32.1708250  36.0178661  62.7494526
  31.9728065  35.3581643  61.4016533  36.8746185  39.6183181  46.1014557
  36.2647462  39.0046668  46.5109921  37.4926519  39.0616035  45.6278181
  11.2270646  62.9753403   7.8992986  10.5864864  62.2726659   8.0094861
  11.3844352  63.0101947   6.9557666  43.3492041  32.4262714  54.7687292
  42.7185869  32.3288631  55.4822206  43.8083792  33.2429552  54.9647427
  45.2693987  50.7269716  51.7216110  44.9022150  51.5736628  51.4676046
  45.9451580  50.9421158  52.3644876  75.9906024  40.4654360   6.7593479
  76.8031478  40.8119011   6.3906157  75.9000027  39.5975256   6.3659561
  62.7873026  43.9095290   1.7490815  62.5712096  44.6972154   1.2499952
  63.6685168  44.0731428   2.0851182  62.8834200  34.9188805  16.2536788
  62.5245380  34.6778727  15.3996587  62.2049379  35.4627943  16.6537476
  41.1586666  28.2996964  64.4143915  41.6942024  28.2369614  63.6235046
  40.3553009  27.8264856  64.1978168  46.1074305  29.0291500  45.9537840
  45.3270817  29.4247222  46.3421202  46.3644171  28.3472466  46.5744257
  34.7843194  15.6332231  46.1438513  34.3067145  15.8261037  45.3370523
  34.5038748  14.7497785  46.3828230  58.1034552  35.6619410   2.6406001
  58.4034406  34.7847782   2.4022197  58.8145005  36.2410469   2.3662233
  16.8060327  12.2014427  51.7980194  17.7554047  12.1269059  51.8948030
  16.6586995  13.1226885  51.5839386  53.1129646  24.4962788  57.6297045
  52.6836777  24.5397258  56.7752743  52.3953390  24.3821025  58.2527685
  54.8413134  17.4135721  40.6267166  54.4306564  16.9441104  41.3528013
  54.8676777  16.7757404  39.9134803  15.9824766  40.3909049  56.8677330
  15.6417955  39.7211895  57.4607325  15.2912677  41.0520349  56.8306828
  67.5693520  10.3448564  65.4407383  67.3463543   9.6882230  66.1005384
  67.1449312  10.0344425  64.6408991  19.9740362  39.3920135  51.5438366
  19.4605815  40.0601053  51.0896873  20.7421184  39.2611885  50.9878111
  49.8765469  19.6847188  35.5793500  49.2581177  20.1274419  34.9981618
  50.7361794  19.9970663  35.2970386  74.2935454  64.2582134   8.8841628
  73.4193884  64.3647889   8.5090303  74.2396819  64.6813707   9.7410535
  42.7625036  60.2908707  33.3330536  43.4134340  60.9921789  33.3592606
  43.2076931  59.5363474  33.7187076  56.4323664  26.9265223  69.1522980
  57.1793842  27.1551156  69.7054195  55.8401585  27.6746702  69.2284298
  70.4880142   1.7870906  34.6567202  71.2925482   1.2710747  34.6049237
  70.7200289   2.6318401  34.2709756  83.9832198  63.6225037   8.0216789
  83.8787686  62.9785732   8.7221622  83.1474387  64.0884880   7.9981231
  71.1739206  22.5613570  26.2096500  71.0609436  21.7988896  25.6421041
  70.8822250  23.3014870  25.6773400  64.0681267   3.7221092  41.9810677
  64.0118122   4.3081263  41.2263203  63.2485485   3.2279754  41.9623137
  65.5193233  21.6970086  55.7742834  64.7946405  21.8491983  56.3808393
  66.2792349  22.0869589  56.2063742  33.7366533  28.9377856   9.0770853
  33.5764480  28.0633759   9.4320166  33.7372589  29.5110226   9.8436558
  44.7649479  15.7168913  53.8356495  45.4745770  15.5325735  53.2202768
  44.9990416  15.2279973  54.6245861  55.1583862  39.2909932  48.0617619
  54.4353533  38.7089610  47.8279018  54.8492718  40.1648569  47.8229284
  43.1688356  14.3671358  46.2178850  42.3575735  14.0157282  46.5847635
  43.7598085  13.6151338  46.1794949  73.0576073  69.1752772   9.5346212
  73.2532393  70.0861911   9.3150901  73.4381091  69.0514378  10.4041671
  46.2852573  16.6230142  61.7029047  45.7219410  17.2587979  62.1441364
  46.2248468  16.8524563  60.7755756   3.7458933  68.6565004  68.3740616
   2.8867520  68.2621584  68.5243940   3.6828674  69.5259307  68.7694693
  49.2571878  13.6015153  53.9867926  49.2790508  12.7000809  53.6655903
  50.1518345  13.9201593  53.8671923  59.1086782  14.3534607  10.8257770
  59.6503178  13.6447519  11.1730384  58.8269908  14.0404695   9.9661779
  80.0326347  62.1573448  28.8839316  79.1272259  61.8514013  28.9374733
  80.0409603  62.9704428  29.3889475  59.4016171  20.8950257  49.2996693
  60.2798462  21.2705898  49.2372847  58.8136339  21.6458249  49.2171526
   8.6469322  19.0520608  48.4987926   9.2475343  18.7831569  49.1939163
   8.5569513  19.9981868  48.6127281  15.3110604  45.5945341  10.1706075
  14.9506526  46.4118002  10.5147266  14.5624499  45.1525525   9.7700214
  65.7780474  33.4940410  63.3280373  66.1433727  32.8637719  63.9489508
  65.9379941  34.3474460  63.7309694  53.5806990  24.7800851  44.7485971
  54.5306158  24.7594666  44.6325350  53.2304716  24.7780943  43.8577700
  45.6596041  12.4093103  38.0801344  45.6002426  13.2933772  38.4422565
  45.7109356  11.8391883  38.8473105  19.1173863  30.4755664  53.5021067
  19.5404100  30.0971270  54.2728662  18.3017242  30.8491898  53.8357735
  52.4465704  18.5783434  23.0152225  53.0236387  19.0303695  23.6307669
  52.1891975  19.2539668  22.3879099  15.5698073   6.3866556  39.9256015
  14.9517035   7.0168960  40.2957058  15.2406120   5.5336618  40.2089119
  51.8005371  37.7693462  58.5389328  51.8692064  36.9177651  58.1072760
  52.6355886  37.8748369  58.9947796  54.1707277  21.8193936  58.2356024
  53.4586573  21.2181306  58.4539413  53.7342358  22.5742483  57.8407621
  16.6172647  20.5381751  66.7774963  16.3858068  20.4359198  65.8543444
  16.2644637  21.3944578  67.0194483  59.2412233  58.9125490  34.0280986
  59.0999174  58.5879898  34.9174404  58.4208584  58.7255621  33.5717273
  32.2569847  18.9078188  45.1883125  31.8351150  18.0489123  45.2114439
  31.9506335  19.3032300  44.3722057  40.2724552  33.4619832  41.8296432
  41.1701870  33.6984849  42.0628262  40.2472162  32.5085497  41.9106340
  41.8257904  31.7939496  29.5183730  42.7312136  32.0361805  29.7126889
  41.2986422  32.4045348  30.0336695   2.4225844  65.4409931  29.2925477
   2.3986186  66.0509465  30.0298500   1.7900933  65.7955919  28.6676908
  41.0414124  46.4768124  56.4072704  41.1466026  46.6961193  57.3330498
  41.3654757  47.2470093  55.9403563   3.4118188  74.8097972  63.0959749
   3.1780685  75.3425417  62.3358583   3.9652194  75.3814895  63.6280870
  33.2602334  26.8308210  57.4816847  33.3621740  27.7503443  57.7272701
  33.4375906  26.8130136  56.5412235   0.3946174  56.6333185  51.8466711
   0.0736416  57.4723158  51.5160799  -0.3143894  56.0167799  51.6638517
  53.4380293   5.8819193  11.1792207  53.0012512   5.2343607  11.7325056
  54.1086483   5.3840876  10.7116055  64.0887499  28.8428521  55.3956556
  63.2921886  28.3130407  55.4276419  64.6177101  28.4387589  54.7077990
  22.4357200   0.7506692  60.1092815  22.2960067   0.8577409  59.1684055
  22.7868891  -0.1351541  60.1999950  26.1491656  14.2460465  58.4337902
  25.2796793  13.8521993  58.3623028  26.4610672  14.3035030  57.5306606
   6.5088372  70.3245429  47.5584602   6.0432201  69.9795608  48.3203124
   5.8887963  70.9307102  47.1530723  76.5894222  19.5581698  15.9456706
  75.7863569  19.0389979  15.9035432  76.3406467  20.3452492  16.4302826
   9.0620911  19.8509991  37.6664615   9.6187437  19.4659996  36.9895983
   8.5807967  19.1085565  38.0316544   8.1009163  78.8828180  57.8638029
   7.6525010  78.1206570  57.4973774   8.3590091  78.6086790  58.7438393
  28.0909729  19.9481690  29.8185563  28.8864446  19.4307411  29.6931505
  27.6405287  19.5220196  30.5477524  53.8946915  11.9292319  49.7364378
  54.7041607  12.3065329  49.3920040  53.3677244  11.7428124  48.9594030
  48.8563919  18.2968557  67.5397158  49.3095064  17.5195086  67.8662920
  49.5546007  18.8548076  67.1970415  77.9372835  26.8495584  54.1434050
  78.0904484  26.2341738  53.4264135  78.7934685  27.2452927  54.3064070
   3.3023897  29.2718816  49.4386959   2.5873339  29.7632861  49.8429823
   3.4442917  28.5290670  50.0254869  10.5245031  78.2320229  35.3241920
  11.2076224  77.8876207  35.8994889  10.2312173  77.4732677  34.8197055
  23.0756783  25.4731584  48.2430840  22.4385118  26.1547995  48.0295086
  22.5435972  24.7181749  48.4943199  42.9929590  12.6824963  57.1515274
  43.2040024  12.5845206  56.2230349  43.5087919  12.0040667  57.5872803
  33.1383252  47.9827356  67.0436478  33.5940123  47.9684258  66.2019968
  32.9145074  47.0671368  67.2104311  74.8153019  58.1854963  27.5886464
  75.2854300  58.1625175  28.4221244  73.9069605  57.9922533  27.8206062
  55.2652030   5.7995596  37.1697426  54.4380622   5.8570470  36.6914630
  55.0902228   6.2349596  38.0040359  78.6040545  48.6627531  47.9465580
  77.6495600  48.7345648  47.9502726  78.8005209  48.1211042  47.1821976
  58.2153177  50.6225634  50.9203291  58.2261992  49.9665833  51.6173220
  59.1069746  50.9703255  50.9047794  76.5045261  63.1111383  36.3760495
  76.5436316  62.2571421  36.8066239  76.5171862  62.9085445  35.4406214
  34.3680716  71.9327021  40.1455593  35.0254822  72.1087933  39.4724798
  34.5387292  71.0307693  40.4168987  77.1446991  67.7323341   8.9503676
  77.8241253  67.4174738   8.3541512  76.3219309  67.4947786   8.5227513
  66.8930578  38.9785504  58.9199829  67.3246288  39.7589946  59.2676735
  66.5012074  39.2684770  58.0961943  63.0439425  49.7287941  64.8849964
  63.1087112  50.6834316  64.9114799  62.2732353  49.5559311  64.3442917
  22.3402691  65.3142357  28.1866717  22.7269340  64.7666025  28.8699126
  22.7815771  65.0410461  27.3824048  55.1833248  54.8943758  39.5861745
  55.6393242  54.7250509  38.7617803  54.7387695  55.7305193  39.4466352
   6.2009006  64.5736508  11.9931411   5.3613525  64.4169597  11.5608882
   6.3532453  65.5126957  11.8872260  27.6799726  29.1502213  59.1445875
  27.2845006  29.2095256  58.2749224  28.5941029  29.3999434  59.0095425
  56.0935211  41.4267874  65.8516979  56.9507742  41.8156195  66.0253525
  55.6824207  42.0230389  65.2258253  67.3461866  41.8765593  51.6244030
  66.5079260  41.4420700  51.4670134  67.8073359  41.2954187  52.2292519
  69.0062176  80.4012112   7.6477098  68.9280688  79.6018438   7.1270036
  69.9255644  80.6537012   7.5624036  40.4285240  30.8886790  55.3357983
  40.5496550  31.5685391  54.6729612  40.2278328  30.0983834  54.8344088
  33.8358641  40.3940296  65.7192326  34.0557361  40.4585075  64.7898626
  34.1711879  41.2049866  66.1015081  66.3421249  78.3494329  37.9358745
  65.5107450  77.9915667  38.2472801  66.3051176  79.2774820  38.1673622
  43.6986542  56.1427164  64.4659615  44.3524170  55.4816198  64.2384195
  43.0521059  56.0924530  63.7619162  63.5339499  80.3072548  34.9910545
  63.8484097  79.6076632  34.4184160  64.2981815  80.8674049  35.1267624
  75.8720827  44.0482235  19.8743534  76.0996389  43.5829020  20.6792927
  76.6208935  44.6210909  19.7090101  80.4238796  42.3777533  54.4624281
  80.4513359  41.4577770  54.1995096  80.9062099  42.8377008  53.7753820
  32.1361160  57.3809862  64.5360947  33.0119491  57.4221373  64.9200964
  32.1618247  58.0079174  63.8132381  55.2322912  50.4108143  14.7367978
  55.1313210  51.0157776  15.4716837  54.5813084  49.7277594  14.8976791
  50.2457428  62.4214220  11.7699504  50.6652880  63.0185652  11.1505640
  50.6524515  61.5723562  11.5970063  82.4988174  47.6246214  57.7960348
  83.1962109  48.2393980  58.0238914  81.9363022  47.6028824  58.5701990
  56.4787579  36.3142467  45.1654816  56.5383291  35.6016207  44.5292044
  55.5671358  36.2995076  45.4569530  12.8832549  11.7826188  35.2927542
  11.9327277  11.7969227  35.4046535  13.0863970  12.6136160  34.8633289
  50.5787516  56.5436125  59.2088509  50.2506685  56.0887575  58.4331560
  50.8718920  57.3940754  58.8817215   4.3473773   2.1692934  63.1986046
   3.7466102   1.4314356  63.0942965   4.1006713   2.7791681  62.5033188
  65.3260422  43.3599615  45.5215263  65.5965853  42.4843693  45.2451611
  65.6819248  43.4528303  46.4052391  64.4794703  55.2655411  48.5120201
  64.3707561  54.4295931  48.9654541  65.4223633  55.3364229  48.3631468
  77.9513550  51.2381601  29.9675226  77.3303461  51.2191772  29.2393589
  78.0060053  50.3282118  30.2594829  68.1977654  37.6231289  49.6327353
  67.6655722  38.3562851  49.3237305  67.5687122  37.0218468  50.0314617
  58.1919752   1.0980787  42.3999166  58.9931570   1.4018716  42.8265905
  57.4858962   1.4125051  42.9645586  49.9874544  36.8749285  45.7046366
  50.5050421  36.0967994  45.4976416  49.2109442  36.8006229  45.1498938
  69.2442369  31.6878438  58.8653374  69.7921658  31.5651727  59.6405554
  68.8199806  32.5346947  59.0034771  50.4713678  53.2586002  53.3803320
  50.2979803  54.0635824  52.8923035  51.4244175  53.1706524  53.3664322
  57.8276253   1.3357536  61.3383102  57.9225731   0.8319538  62.1466446
  58.6795235   1.2613426  60.9082460  77.9272938  46.9855738  50.8650446
  78.6764097  46.7599440  50.3135490  77.3734426  47.5301361  50.3056383
  77.8795815  41.6775179  61.3870907  77.4718523  41.0165453  60.8275318
  77.5155258  41.5126228  62.2568655  40.0786452   1.9212236  13.2948589
  39.7885280   2.6947584  13.7782896  39.2850642   1.5899362  12.8744817
  65.1074791  76.9635820   6.2803787  65.7289028  77.5024700   6.7699319
  64.7311020  76.3765097   6.9360650  71.0390234  45.9784079  62.7305555
  70.4215193  45.2482319  62.7726507  70.5535650  46.6777039  62.2928953
  59.9269152  61.0799170  46.4868927  60.3575563  60.5737734  47.1758080
  60.6461334  61.4837217  46.0011959  59.6283484  69.3007040  63.6143827
  59.2048883  70.1143837  63.3408117  59.2420959  69.1049385  64.4680309
  47.9920244  53.7832403  32.1399570  48.2063007  53.2686853  31.3617873
  48.7802792  54.2987061  32.3107791  32.1040964  61.8968964  66.4458418
  31.5781116  61.1829996  66.8062830  32.5680971  61.5031385  65.7069969
  78.3235121  48.5453606  35.0690055  77.4817324  48.3956242  34.6386433
  78.2054901  48.1984329  35.9532809  53.8362885  44.1731787  55.6430387
  52.9333973  44.3332100  55.3684330  53.8204861  43.2918930  56.0162878
  77.0891047  58.7099171  40.4112053  77.7632761  58.2017374  40.8622932
  76.3763523  58.0874825  40.2670002   0.7078091  22.5969881   0.8434152
  -0.0737079  22.0700640   1.0101985   0.4166976  23.2686418   0.2266788
  50.7468081  48.9577246  53.0465364  51.0845041  49.4274521  53.8091278
  50.9736633  48.0421638  53.2093954  23.6871091  42.1411461   7.0733737
  23.8860837  42.4836487   6.2019777  23.9086429  41.2113804   7.0216035
  74.6095848  28.3298993  63.3984327  75.5641365  28.2678175  63.4331465
  74.3049574  27.7089286  64.0601206  58.3705382   4.5706548  58.7204885
  58.3881717   5.5198660  58.8426685  57.5639205   4.4070234  58.2317877
  46.1417246  71.1126661  46.2987041  45.5931711  70.3735399  46.5614176
  46.3483429  71.5609932  47.1187925  41.9629955  53.6261463  57.0935869
  41.1979580  53.8589191  57.6196718  41.5994406  53.1975174  56.3187742
  22.9899888   7.2808065  53.3378458  23.0794625   6.6215887  52.6496172
  22.4942021   7.9894724  52.9277086  52.8438234  70.4601145  56.5474510
  52.5518942  69.7865057  55.9332371  53.7893581  70.5164528  56.4095259
  58.1479979  58.5301876  22.5719619  57.3770571  59.0961123  22.6121283
  58.8748932  59.0969896  22.8300190  70.5417347  25.9798694  65.1066685
  69.7106552  25.5224538  64.9789715  70.4693985  26.3692331  65.9781027
   4.5767611  18.1117010  48.4944487   4.5916384  17.9988301  49.4448519
   3.7290400  18.5183048  48.3147812  59.6762943  57.5258446  24.7918272
  59.6626568  57.4931145  23.8352823  59.3301582  58.3919859  25.0068021
  58.9204741  44.4249296  63.3400679  58.1219769  44.1625977  62.8820133
  58.8075829  45.3617525  63.5008478  68.9201736  15.4595220  54.0858793
  68.4500313  15.9024715  53.3794832  69.5424223  16.1127019  54.4058704
   5.9017771  62.7635098   3.5020262   5.8652514  63.5307693   2.9308757
   5.6072348  62.0394373   2.9495773  49.4524717  35.7544851  68.1335783
  49.1543198  36.5997195  67.7975464  49.5108700  35.1957369  67.3585796
   1.2080020  55.4147053  38.4669733   0.3568858  55.0350714  38.6853957
   1.1048335  55.7341528  37.5705695  29.0684623  22.9009748  37.3513865
  29.5716876  23.7112975  37.4312210  28.7034148  22.9318762  36.4670706
  42.2770540  12.6404613   2.2548198  42.9866592  13.2760423   2.3482227
  42.1724121  12.5355572   1.3091564  54.1786051  20.4347730  48.8289356
  54.0858555  21.0519648  48.1031942  54.2563009  20.9885216  49.6058273
  46.3147259  33.0149937  57.8073835  45.8992720  32.1529341  57.7854300
  45.7879210  33.5190272  58.4275913  65.2625990  51.5363979  31.9123721
  64.8667240  52.0399809  31.2010932  64.5196819  51.2388372  32.4375057
  60.9342527  59.0040827  30.2472591  60.0571823  58.9648294  30.6286240
  61.3206863  58.1514549  30.4470658  80.2017879  46.0099506  68.5016870
  80.8045769  46.6460705  68.1166697  80.6690884  45.1761055  68.4510803
  82.9732024   9.5328703  49.3614578  82.7273213   9.3420591  48.4562683
  83.8714157   9.2111578  49.4385624  23.3026353  22.0019668  12.4598312
  23.9356557  22.5794500  12.0331764  23.1777851  22.3837417  13.3286762
  71.2536335  59.6047020  55.7357550  72.0345259  59.9142170  56.1947155
  71.4159822  58.6729574  55.5883646  67.8941965  75.0914145  46.7843151
  68.6680222  75.6520796  46.8397808  67.5516987  75.0668335  47.6778078
  16.0317630  65.1617384  64.3678951  15.5198210  64.3638182  64.5000601
  16.3850516  65.0757313  63.4824467  10.6263023  16.3310136  27.0844173
  11.4648204  15.8741846  27.0178366  10.0033002  15.7536592  26.6431022
  45.2757454  71.4240885  38.1133151  45.3524637  71.8666840  38.9585710
  44.6158171  70.7458210  38.2571363  84.5150172   0.7829656  46.5083075
  84.1722618  -0.0467024  46.1760521  83.7506424   1.3574495  46.5523386
   1.1068171  76.6779852  32.7406621   2.0317191  76.6012669  32.9749608
   0.8297843  75.7794237  32.5615549  22.9484229   3.3329668  19.6291935
  22.2346835   2.7849950  19.9555886  23.5423045   3.4218111  20.3746080
  47.2989416  62.1381474  58.1361437  46.6080236  61.6074705  57.7396059
  47.3958254  61.7835999  59.0199661  20.1972294  60.9453964  44.9158764
  19.6124458  61.4288330  45.4994392  19.6477878  60.7083797  44.1687727
  53.6235571  37.9856491  60.3394318  54.3498135  37.3733592  60.4572630
  54.0241766  38.8510871  60.4216242  51.8010426  41.2805176  55.6910849
  51.4895678  42.0388603  55.1969910  52.1870184  40.7059526  55.0299263
  43.8100200  16.6050710  66.5244961  44.5418601  16.0437288  66.2684727
  44.2101436  17.2919073  67.0577765  23.3024615  54.9866962  31.9773221
  22.7916259  55.7721949  31.7816854  22.8252810  54.2773008  31.5468645
  59.7914020   3.1547207  10.7603549  60.1957599   2.3353905  11.0456943
  60.5282680   3.7493509  10.6200885  41.1812592  68.8627338  34.4084215
  41.9935894  69.0989256  33.9605832  41.2850189  67.9348040  34.6191621
  11.1982650  17.6071787  33.0542374  10.7197493  18.4318924  33.1385231
  11.9308203  17.8135610  32.4737191  54.4296694  48.2724571  53.5994387
  53.5313368  48.3214188  53.2725859  54.4981670  48.9970493  54.2211342
  44.3076468  66.9252825  51.3329935  43.5965300  67.0927095  51.9514704
  43.8775873  66.5294075  50.5749941  51.0788003  37.7213425   4.8094558
  51.7097370  37.0046705   4.8768329  51.6023818  38.4771580   4.5432948
  64.0719080  54.8113060  28.0227518  64.1432095  55.3808975  28.7887263
  64.9703789  54.5311213  27.8481650  56.4236116  26.0612369  22.4904919
  56.2383604  26.6427493  21.7530942  57.1975279  25.5681729  22.2181416
  48.0561018  52.6883936  50.9222364  48.1562328  52.0250797  51.6050339
  48.8630009  52.6292801  50.4107141  74.1119814  75.1607943  43.7199402
  73.3344746  74.8470974  44.1817999  74.6627998  74.3839645  43.6231852
  65.6991816  59.0106297  31.2023759  65.1965761  58.2009983  31.1122966
  66.2291670  59.0533447  30.4064345  46.0514585  57.3517078  10.0214528
  45.3302518  57.5471920   9.4232177  46.1048166  56.3960213  10.0280666
  78.3625555  67.0464611  38.8930702  78.2866335  66.2954998  38.3044076
  78.5361052  67.7883673  38.3136868  74.8155069  66.8064976  24.5356798
  74.9251986  67.2681713  23.7043810  73.9450932  67.0639086  24.8395705
  10.7810611  41.8813992  27.0508289  11.6321582  41.6631889  26.6710114
  10.1998347  41.1810112  26.7544079  71.3988066  72.7202320  53.6513233
  70.4890060  72.7863979  53.9413595  71.5167761  71.7936134  53.4423018
  69.1506468   2.3234739  59.1828442  69.8274313   2.1722974  58.5230398
  69.1201388   1.5094556  59.6855211  16.3138694  57.9895926  24.0739775
  15.8316344  58.1246805  23.2582355  15.6764334  57.5897837  24.6656370
  77.6087809  53.3082819  39.7837281  78.3633184  53.5540676  39.2484760
  77.3546362  54.1183662  40.2257776  12.0657531  17.2168726   6.7083072
  11.8738405  16.8473572   5.8464145  12.0749322  18.1634563   6.5664338
  23.6750213  10.4336923   6.7528390  23.2778350   9.6625990   6.3480090
  23.0654994  11.1461443   6.5601444   9.8903004  29.9940294   7.8110837
  10.5070106  30.0687450   8.5393142   9.0795342  29.6841663   8.2146596
  26.2927394   4.4194402  44.1593742  27.1411376   4.8434820  44.2883730
  25.6698470   5.1436605  44.0981627  75.3497505  49.7133493  41.3828564
  74.8703194  48.9159107  41.6075134  75.6443691  49.5703268  40.4834270
  69.1021053   8.2262462   2.4573469  69.0638916   9.0642446   2.9183626
  70.0316516   7.9978842   2.4521922  16.8650931  52.7881336  47.7172899
  17.3203772  53.3482838  47.0886612  15.9647578  52.7485847  47.3946810
  78.0772734  57.1377516  55.8769560  78.6445856  57.1657419  55.1064968
  77.6535892  56.2806320  55.8314085  46.2883798  12.3008436   7.7777337
  45.6632987  11.7099994   7.3577260  45.8490745  12.5834364   8.5798454
  49.9261236  36.8035674  64.9917746  49.0382004  36.7204428  64.6440458
  49.8082399  37.1890259  65.8599663  62.1738434  59.4974375  27.8085780
  61.3834000  59.2165232  28.2695770  62.7999878  58.7878895  27.9525018
  34.6738330   2.4227756   5.7354879  34.5324651   1.8820137   6.5125465
  34.8276512   1.7936748   5.0306415  15.9640330  50.3967714  19.7673213
  15.2394980  50.9701729  20.0172997  15.7283992  50.0792313  18.8956118
  15.6728953  66.2014914  24.6214056  16.5018862  65.7582188  24.8017216
  15.0307292  65.7356119  25.1569581  69.1051912  55.7170439  30.3477049
  68.8209105  56.4050245  29.7459579  69.1713762  54.9336147  29.8017263
  70.3591394  59.8099184   9.3192309  71.2214375  59.8365784   8.9045471
  70.3877211  60.5054522   9.9762309  22.9027324  30.6038656  41.0807991
  23.8448672  30.7575407  41.0100889  22.5687318  31.3724699  41.5433121
   5.9061259  15.6504738  47.1492958   5.5587023  15.6262767  46.2577009
   5.3102130  16.2308490  47.6228857  33.2503085  78.5132436   1.1049699
  33.7534003  77.7011017   1.0453033  32.6106887  78.3484224   1.7977571
  47.0027208  49.6404743  47.3632574  46.8110895  50.5506229  47.5893879
  46.4875221  49.1257668  47.9844475  50.8737516  57.1221113  45.5240965
  51.0799551  56.4402962  44.8846912  50.8446598  57.9300928  45.0117016
  12.4598849  58.1665850  16.9057775  12.6376760  57.2675037  17.1819508
  12.3342848  58.1058598  15.9587991   8.7232070  17.6984014  23.2479072
   9.3511205  16.9956960  23.0801010   7.8744321  17.2574224  23.2847404
  30.8717576   5.7758135   3.8636016  31.5289966   5.0928110   3.7302875
  31.0216180   6.3951153   3.1492900  52.3361778  57.7868366  41.8120623
  52.9707289  58.4275103  42.1331787  52.5137186  56.9970894  42.3229504
  13.7566428   9.1874208  34.4366360  13.7934642  10.1399221  34.5239449
  13.9098315   8.8595762  35.3227997  15.4823226  32.2290230  63.9148951
  16.2947863  32.6472640  64.1998625  14.8009700  32.8730893  64.1076899
  51.1183739  70.8184195  42.3945904  51.5764046  70.3459406  43.0897236
  50.6427717  70.1391363  41.9164562  70.0770187  63.6251259  53.0073118
  70.0814867  63.1251431  53.8235378  70.4668760  64.4676876  53.2404137
  30.4972484  65.1346475  61.8379313  30.5318477  64.3896681  61.2378985
  31.2351444  65.6861120  61.5778846  67.7491570  59.1901112   8.8560504
  67.1825695  59.7712898   9.3634379  68.6283112  59.3553543   9.1966647
  46.7089033  48.5993195  44.8820877  47.5558186  48.9582348  44.6172380
  46.5044260  49.0483379  45.7023382  54.7115469  56.7098522  50.0725269
  54.4340897  57.1158791  49.2513132  55.6679344  56.7290354  50.0380564
  50.3525305  52.6052237  49.1135263  50.7463312  51.8114185  48.7515545
  51.0284281  53.2754278  49.0124607  64.7225523  68.5817480  52.1370029
  65.5281115  68.3026934  52.5722408  64.9357510  68.5636139  51.2040281
  36.8567419  45.6084394  14.7441006  37.7803564  45.5085659  14.5134652
  36.8220520  45.4182720  15.6815779  44.4504166  56.5704203  45.3230715
  45.2004910  57.0500088  44.9714851  43.6875200  57.0591068  45.0141907
  82.8346443  51.7735910   9.6510881  83.0639076  51.3976097  10.5009735
  81.9377899  52.0888948   9.7627598  53.5612249  60.7616568  30.4938889
  54.2785263  60.3150845  30.9436464  53.9813948  61.2119436  29.7611308
  77.4069023  38.1954288  56.5616989  76.4673185  38.3736706  56.5211391
  77.8070021  39.0521622  56.7105532  13.6401957  57.6796436  31.5208912
  12.7353209  57.9881907  31.5680623  13.9735240  57.7778006  32.4127960
  48.5298538  67.9442787  36.3133121  48.0234051  67.8897047  37.1237206
  47.9080105  68.2726717  35.6639242  51.3990355  56.1346149  49.5579386
  51.2472010  57.0785856  49.5120621  50.9068727  55.7766771  48.8190937
  71.5900755  52.1690416  38.4226918  70.7798529  52.6059198  38.6851978
  72.1055937  52.8551149  37.9986906  79.5926714  65.4913473  42.3800278
  79.6161366  64.8432827  41.6759729  78.8597679  66.0640764  42.1540451
  44.6501199  44.2276615  11.6593265  44.3180696  43.8238186  10.8575248
  45.4244224  44.7155422  11.3788699  65.8622551  79.3761015  63.4078264
  65.9000921  78.4240866  63.3158350  65.1052332  79.6374846  62.8835917
  70.6562424  62.1925116  21.3414621  70.2268600  63.0477476  21.3205981
  69.9858999  61.5804815  21.0376668   5.7778173  13.0909338   8.1731051
   5.0823789  13.2729234   7.5410640   6.4846091  12.7134790   7.6494622
  83.1535803  22.7659216  25.9087110  83.8554226  22.1153726  25.9294629
  82.7457653  22.7059259  26.7726064  26.7071764  16.9170946  19.2514896
  26.3141290  16.5326303  20.0350284  26.6909782  16.2117094  18.6046504
  10.0733714  60.5548696   5.4358959  11.0198217  60.5224065   5.2965926
   9.9563604  60.2903370   6.3483428  16.0100001  61.3225603  51.5376329
  15.3901786  61.5468264  52.2317219  16.8045062  61.0591078  52.0019484
  62.9250050  49.0597534  67.3854446  62.9859495  49.1965914  66.4400387
  63.1844521  49.8988056  67.7661133  57.9294109  50.1884651  41.4098930
  57.8528404  49.6519136  40.6209183  57.3981237  49.7321320  42.0623684
  77.3928547  57.3003960  37.3320532  76.8534946  56.6214037  36.9267249
  77.9735851  56.8230247  37.9245901  83.4743678   3.8017931  46.1505270
  83.1857048   3.9481344  45.2497005  82.8978573   3.1112089  46.4775801
  72.7061510  79.8757362  53.7173319  73.4460402  80.3849602  53.3864403
  73.0947018  79.0515995  54.0106964  72.9930687  42.9161072  36.4661980
  73.3487082  43.8045645  36.4861012  73.3161736  42.5471449  35.6441832
  43.5250226   8.4915537   2.0152711  43.8430683   8.9469189   1.2357044
  42.9025547   9.1012520   2.4115466  75.9658861  48.9746571  20.1162624
  75.6204653  48.7585640  20.9824133  76.7020178  49.5608950  20.2914000
   0.8774680  24.5712471  35.4906106   0.9222144  24.0981650  36.3215256
   0.1374072  24.1762209  35.0296426   7.3292308  48.7650738   3.0525016
   7.0769506  47.8991304   3.3730125   6.8460374  48.8671062   2.2325324
  83.0601025  52.8421402  37.6659465  83.1657982  53.1672716  36.7718840
  82.3974609  52.1551228  37.5941968  60.3032780  46.5133524  44.5527554
  59.3899059  46.2407637  44.6403742  60.3593969  46.8831635  43.6716604
  73.7248850  80.5035210  30.3735209  73.6019945  79.9019432  29.6391988
  73.5701370  79.9671268  31.1510587  79.4983768  69.1485310  10.2191126
  80.2464199  68.8732100   9.6891522  78.9710331  68.3559799  10.3191006
  64.2666006  72.6266670  41.8285275  65.1272440  72.2099113  41.8714094
  63.6587524  71.9528341  42.1329975   2.9372901  41.5726423  44.6412945
   3.2032889  40.7009888  44.9340296   2.0013350  41.4888573  44.4591045
  77.6709461  66.5401316  46.3349438  77.3456430  67.0431852  47.0815039
  78.1103182  67.1872807  45.7832384  64.2494488  31.4194274  54.1384792
  64.1057348  30.6417704  54.6777630  64.4417524  32.1148729  54.7674465
  67.3383093  54.8779869  47.7684593  67.5615263  55.7250595  48.1543016
  68.1778288  54.5142269  47.4871874  39.9066011  14.0240139   0.4729223
  40.6849424  13.5149378   0.2465152  40.2409116  14.9001640   0.6648111
  68.8372517  72.3507881  62.3370504  68.0031252  72.1600389  62.7660894
  69.4981670  72.1590090  63.0023670  18.9447395  24.8779434   2.0788717
  18.4768669  24.4891208   1.3398599  18.4186355  25.6399864   2.3212385
  21.5884738  16.9594755  62.7808714  22.2173600  16.2516298  62.6405764
  20.9203630  16.8229189  62.1091509  47.4424900  27.5570198  68.2599618
  48.0514873  27.2894045  68.9482473  46.6234125  27.7368208  68.7215008
  70.2443027  73.0181026  57.3236179  70.0764084  72.6234388  58.1793547
  69.8505688  73.8887501  57.3799992  69.9955511  37.0599914  45.5696964
  70.2362251  37.7665591  44.9704695  69.6618748  36.3664865  45.0005388
   0.1031893  30.6986427  49.9118090   0.2759284  29.7932982  49.6534634
   0.8978766  31.1731386  49.6677923   5.5043416  14.7053518  17.6649582
   6.0289579  13.9109029  17.7642524   4.9155860  14.6994772  18.4196520
  73.7037706  75.2689981  35.0249171  73.3218288  76.0346365  35.4540420
  73.3888245  74.5248556  35.5380392  71.5234995  42.9030800  65.8982563
  72.0318604  43.0859327  65.1080894  70.8931780  43.6216402  65.9491587
  82.5516891  61.1716318  24.8337221  83.1429291  60.5443144  25.2498150
  82.3786449  60.8002138  23.9686584  79.7792864  34.0539384  65.1251554
  78.8648939  33.9694643  65.3953171  79.9752283  33.2286167  64.6816683
   3.9359206  79.1816902  32.5090647   4.0580577  80.0978565  32.7579832
   2.9896849  79.0873194  32.3996520  15.3784661   3.9737692  16.6776955
  16.3127189   3.7662973  16.6965842  14.9767404   3.3221330  17.2523391
  10.6248206  37.5859404  27.0135975  10.8309096  36.6675830  26.8393064
  11.3980502  38.0655169  26.7163563  73.1439924  55.2574015  12.9538560
  72.8248549  54.8376179  13.7527061  74.0622234  55.4555178  13.1378055
  16.7010230  78.5421753  11.4705551  17.6564425  78.5000896  11.4299989
  16.4735907  79.3189573  10.9595537  55.2929258  54.4098854  62.5923967
  54.3550920  54.5758915  62.4967813  55.5804253  54.1490889  61.7174339
  35.9570734  32.1449035   3.2378625  35.8631889  32.1675772   4.1901731
  36.6321031  31.4850181   3.0793809  64.5108568   9.5703115  38.2135367
  65.3992306   9.2141237  38.2010818  64.0450679   9.0299120  38.8516903
  72.0224714  64.1203833  37.1919250  71.9976234  63.4721279  37.8957534
  72.4028254  64.8996210  37.5973296  19.3569010  64.3987417  59.8833656
  19.3879145  63.7967920  59.1397762  18.7168902  65.0628805  59.6273613
  80.0125217  28.5972548  54.7554874  80.6669235  28.6230946  54.0574026
  79.7520638  29.5107388  54.8735571   8.4045940  80.0363092   8.8306617
   7.4627118  79.8768286   8.7702035   8.4758573  80.8946327   9.2483138
  74.0033531  77.8101110  57.3065424  74.0599489  77.9285860  58.2546949
  73.2026291  78.2703543  57.0550346  64.8837185  59.2712784  22.7239466
  64.8103094  59.9701262  22.0739818  64.0772867  58.7654257  22.6238585
  55.8141565  63.8147306  32.9614139  55.3912544  64.2168045  32.2026491
  56.6043568  64.3368864  33.0998397  40.1328317  39.7397989  11.8725013
  40.5652658  40.5727047  11.6840648  40.7315485  39.0761846  11.5298843
  37.8445721  80.3717899  33.6020923  38.1835270  80.1426983  32.7367282
  37.0103168  79.9065113  33.6634278  84.8009396  52.5203896  48.7667894
  85.6827259  52.2434044  49.0157223  84.2197418  51.9562912  49.2769146
  56.3650465  49.8215151  64.2977285  56.1970472  50.2184677  65.1523829
  56.7230701  48.9574242  64.5011950  76.5825367  38.6663413  41.7042446
  76.6867638  39.4468927  42.2484016  76.5982580  38.9967275  40.8060074
  19.0398936  25.5739679  44.4657993  18.2989555  25.9962358  44.0311337
  19.3802505  24.9592008  43.8158321  35.6313758   2.7696123  44.5200396
  35.7855849   2.7385416  43.5758543  36.5027099   2.8763570  44.9016476
  61.7929649  58.9350510  34.7079325  60.8721972  58.9141607  34.4471955
  61.8731403  59.7262383  35.2406859  54.1558981  79.3157339  67.4035025
  53.6991978  79.5305681  68.2168293  55.0701380  79.5412254  67.5754261
  37.9465572   2.4341005   1.4529323  38.7083618   2.9510254   1.7149829
  38.3170263   1.6429037   1.0617875  40.5970049  75.3754330  37.7139568
  40.9548092  75.1447964  36.8566275  41.3125753  75.2039337  38.3261490
   1.3913077  52.1195745   1.0866928   1.8275183  52.8976917   1.4338231
   0.4968184  52.4076128   0.9046172  46.9543539   2.8572168  59.6047211
  46.7497991   1.9238653  59.5476341  46.5766155   3.2342329  58.8101149
  54.4883680  47.5794125  59.9600363  54.6036291  47.5307894  60.9090281
  55.2322578  47.0940828  59.6032333  44.0628147  76.8831491  30.2263665
  43.6754036  77.0412302  29.3654633  43.8676929  77.6759195  30.7260442
  17.7862757  54.3231106  66.5431547  17.3593253  54.9320698  67.1457481
  18.6689204  54.6761703  66.4312840  14.0334338  72.6552820  29.3867993
  13.7967986  73.3054829  30.0482178  13.7594622  73.0467129  28.5573697
  61.4325190  71.2794924  62.0521641  61.0925913  71.0510826  62.9173279
  62.3432827  70.9853601  62.0673656  83.1377792  76.8226671   2.4069208
  83.2003593  77.7766895   2.3604618  83.5838413  76.5146828   1.6179904
  46.4806419   4.0975752  61.9883204  45.6786971   4.5537748  61.7333746
  46.7661243   3.6513319  61.1910772  75.6503582  56.1135721  25.4847121
  76.2940359  55.7070255  26.0649109  75.4119492  56.9291019  25.9255052
  21.2257711  36.0623258  13.2759761  20.6227819  35.3659386  13.5361385
  20.6629840  36.7367786  12.8956985  69.6603441  53.7871361  41.6628885
  69.5403242  54.4460678  42.3467302  69.3395472  54.2083597  40.8654594
  67.1456909  49.5450640  38.8004971  66.7971659  49.7534275  39.6673012
  66.5196037  49.9351358  38.1905055  12.8584784  45.6446505  38.0378413
  12.2733229  46.1194849  37.4476242  12.4798411  44.7674513  38.0959678
  34.1392474   4.4228925  46.8342590  33.3759074   4.6216764  46.2920237
  34.7619014   4.0164175  46.2315035  62.0939914   5.9664530   0.3817605
  61.2043659   5.6743521   0.5804157  61.9769660   6.6854185  -0.2392245
  31.5216220  34.3063684  66.4548070  31.8666042  33.4735676  66.1328382
  30.6842817  34.0786024  66.8588046  55.2672911  67.5366735  57.6215458
  55.7450294  66.9943810  58.2491779  55.6016588  68.4217787  57.7665138
  58.2242537  45.1262808  43.7520647  57.7984285  45.1138163  44.6092367
  57.5154924  45.3087950  43.1351566  59.9442816  79.1887569  61.0797739
  60.9006310  79.1657591  61.0466099  59.7437668  79.6260595  61.9072962
  11.3023299  66.7584753  33.8547373  10.9077948  67.5811481  33.5652876
  12.1961421  66.7883921  33.5135031  81.4605999  38.7982392  48.6951637
  82.3334694  39.1861010  48.6327457  80.8618927  39.5327926  48.5601807
  74.7092186   8.7494077  54.2336655  74.2060219   8.2623281  54.8861742
  74.2679154   8.5652055  53.4044838  33.1734328  66.2498860   4.6055269
  33.5193591  65.4046444   4.3189477  33.8161521  66.8887023   4.2972230
  81.4841747  15.9600234  62.4083376  82.1641254  15.4575837  61.9595003
  80.9615135  16.3398886  61.7021036  74.7158324   8.1773271   8.3559418
  73.9545857   8.5989561   7.9572320  75.4235112   8.3160772   7.7265191
  48.0390739  62.4156761  50.7797527  47.7368259  61.6452408  51.2607050
  48.9760590  62.2665644  50.6530380   4.7791690  51.1451483  50.8784866
   4.9854201  51.9389153  51.3720751   3.8247031  51.1491585  50.8063936
  77.5845098  63.7541294   9.0201735  76.6748333  63.9571667   8.8022345
  78.0840206  64.0432882   8.2565570  33.9479022   6.1340608  14.6209621
  33.5119681   6.6562261  13.9475167  33.3028178   5.4699697  14.8640466
   1.3458270  53.0171156  29.7009158   2.1185702  53.1678629  29.1565108
   1.4553279  53.6125374  30.4423451  71.0387182  46.2820101  35.5068064
  71.0736132  45.3774309  35.1957560  71.3142586  46.8049669  34.7539282
  61.1540747  57.9644585  37.7434206  61.0368109  58.7982845  37.2882080
  60.6632662  57.3332214  37.2172332  62.5666324   3.4875625   2.7679300
  62.7430908   4.4231552   2.8667259  63.4319774   3.0891460   2.6748323
   9.8263091  17.1836114  53.8644886   9.3941516  16.6554165  54.5356655
   9.2877597  17.0642459  53.0822134  73.4904242  55.9149742  68.5931969
  73.8296127  56.7695045  68.3268023  72.8005934  55.7225180  67.9581165
  60.1554585  68.9851809  46.4610052  60.6674576  69.2963839  47.2074890
  59.2718887  68.8663483  46.8094492  73.6608648  46.6386461  52.5608826
  73.9243221  47.5550938  52.4775267  74.4796562  46.1471653  52.4956512
  63.4392916  65.7259826   3.0107927  62.5819909  65.6099586   2.6011514
  64.0630757  65.6367735   2.2902583  17.0653907  42.2757953   4.6025133
  16.4298097  42.9236168   4.9067973  17.8567640  42.7831119   4.4219922
  26.0628623  37.1194625  28.5584068  25.2057475  37.5011301  28.3688712
  25.8647841  36.2865925  28.9865708  61.4800787  37.0430946  51.0640955
  62.2811556  36.7448306  50.6333399  60.7727671  36.7070723  50.5136156
  62.3131323  26.8678355  55.8691978  61.3641596  26.9780898  55.9285402
  62.4321604  26.1437464  55.2545786  27.8128854  19.3270820   2.3107004
  28.1512491  19.8589701   3.0310058  27.6853839  18.4589952   2.6933240
  15.0171107  65.5882215  44.8286724  14.6498126  64.7854280  45.1985884
  14.3969744  66.2729788  45.0792122  12.0172328  67.1335459  28.4021950
  12.9621810  67.1311378  28.2495618  11.6400260  66.8379354  27.5736046
  72.6089525  65.6462240  39.6475005  72.6454115  66.4782000  40.1194239
  73.4887028  65.2802658  39.7388959  13.3304172  31.3874902  29.0946579
  12.8098254  32.0280065  28.6099315  14.2224698  31.7334547  29.0667272
  58.3532577   6.8197527  54.1276455  57.7324729   6.1947336  54.5020866
  58.7343650   7.2623529  54.8859978  46.8212700  57.9117441  56.6286469
  46.8249130  57.4691725  55.7799101  47.7222538  58.2130718  56.7455101
  48.9959865   8.4741010  13.6736691  48.8872771   9.1469755  14.3457234
  48.6060577   8.8558473  12.8872490  20.5279546  18.4346285  18.1183934
  19.6690564  18.8090315  17.9225659  21.0646968  19.1858091  18.3711302
  10.5603808  65.9797049  45.5832243  10.1629275  66.8033409  45.3005695
  10.1757163  65.3183365  45.0080204  52.0047665  58.5281754  32.0649219
  52.1990633  58.8828135  32.9325128  52.7993393  58.6903954  31.5564203
  51.2610735  15.4450365  64.8563228  50.4760755  14.9662777  65.1224054
  51.9596923  15.0803753  65.3996367   9.6648555   0.2933969   6.6804105
  10.5571704   0.2064218   7.0157307   9.1191774   0.3539552   7.4645036
  40.5048895  71.3976860  63.8056374  40.7068300  70.6497478  63.2434607
  41.2128448  72.0201540  63.6396027  28.6655955  80.0420574   5.0838756
  27.9751926  80.6327299   5.3849887  28.2757526  79.5749501   4.3449163
  80.8783428  11.3886637   5.0229310  80.9826747  11.4865106   4.0764808
  80.9852306  12.2748607   5.3685617   6.2715358  61.6216469  44.1183853
   6.3718051  62.3465157  43.5013437   6.8963355  61.8141031  44.8175430
  42.0526565   9.6571728  67.7276192  42.9377092   9.3137785  67.6051632
  42.1599687  10.3815695  68.3440306   4.8914450  49.3471336  20.9832931
   4.3233699  49.6227741  21.7027020   4.3593425  49.4704008  20.1972222
  19.1129975  10.2831831   4.0553659  18.7457042   9.9379339   4.8690784
  18.7618833  11.1714067   3.9919978  40.3655569  59.5057339  13.1907367
  39.9857847  58.6376518  13.0549239  40.5667297  59.8197502  12.3091792
  84.1723633  63.3716059  65.2745581  83.5150146  62.7852058  65.6490707
  83.9309216  64.2396355  65.5977583  54.6728468  44.0608978  50.2274847
  54.7634459  43.9371681  51.1723232  54.1550350  44.8611021  50.1392841
  54.3048954  36.1197805  57.1763897  54.5312166  35.2595353  56.8228483
  54.5365953  36.0661936  58.1035757   8.4508055  53.0668545  19.7254717
   9.0544718  53.6682367  19.2894101   7.6335829  53.1495953  19.2340052
  44.6785203  54.7143501   6.7342662  44.3709127  55.6204075   6.7602586
  43.8783256  54.1909164   6.6903352  52.9651634  55.8144707   2.7431583
  53.3830158  56.4320988   2.1430206  52.4401657  55.2485317   2.1771955
  51.4747898  54.5160145   0.2591037  51.3559524  53.7152618   0.7698869
  50.6081764  54.9222511   0.2454948  63.4345237  71.0041756  38.1562042
  63.5632602  71.8406719  38.6033344  63.7720767  71.1504978  37.2725295
  43.1579555  39.5795866  67.5357955  43.2396473  40.1806017  68.2762960
  43.1991638  38.7079092  67.9291282  63.5172510  68.7637234  65.2782393
  64.0377045  68.5962152  66.0639191  63.8123989  69.6219110  64.9738884
  18.8631648  57.1511984  23.5797215  17.9279345  57.3252201  23.6860204
  18.9021033  56.4184761  22.9650450  24.6456164  74.8289251  13.2764709
  24.1740912  75.5312252  12.8285122  25.2951926  74.5320988  12.6391506
  45.0834075  37.6239961   3.9215564  45.6860916  38.1755203   3.4227275
  45.2915946  37.8090900   4.8373222  79.8149586  68.7379694  19.1041982
  79.4192791  68.0387163  19.6244979  79.5718241  69.5432663  19.5609403
  68.5557842  58.1865072  28.8305259  68.9493132  58.4824228  28.0096722
  67.6183891  58.3434534  28.7170053   6.3937860   5.3380861  39.2491579
   6.0062986   5.0263109  38.4313083   6.8170028   6.1638631  39.0141654
  35.8344512   6.5495672  63.4397221  36.0738330   5.6784238  63.7560129
  34.8917823   6.6099157  63.5945559  67.9557506  69.8988861   9.2453288
  68.5398952  69.2447609   8.8617706  68.3949558  70.7344860   9.0869140
  72.6891661  67.5936508  43.1754255  72.4728584  67.7416086  42.2548008
  73.5876417  67.2638750  43.1603479  78.7822056  65.0056934  17.9895365
  79.0990448  65.7488775  18.5028803  79.5774031  64.5626545  17.6935422
  28.2067884  36.1028953  56.1317957  28.7998356  35.6751915  56.7495299
  28.0654205  36.9749780  56.5001953  73.9840976  18.7578338   2.1931552
  73.3563034  19.4276851   1.9222307  74.7612373  19.2505544   2.4567985
  50.9152846  10.6175794  29.3695736  50.5532031  11.3372125  28.8526011
  51.7392020  10.4002847  28.9334941   9.0604037  65.2376223  34.0666842
   9.7336501  65.9145021  33.9973712   9.5297545  64.4640684  34.3790197
  41.7228759   1.2727018  57.2654665  42.6140798   1.4242979  57.5801111
  41.7756284   0.4461332  56.7856396   7.1581798  16.6886415  19.4564390
   6.7808538  17.4822034  19.8360670   7.0196920  16.7846479  18.5141897
  46.3794570   3.8652887  34.6651816  47.2391276   4.1164102  35.0030255
  45.7630115   4.1618623  35.3347182  39.7141305  33.6972994  19.9333381
  40.1846544  33.8114780  19.1076278  39.6962396  34.5719761  20.3217410
  19.4817500   6.9201841  62.1548796  20.2740865   6.8517866  61.6221905
  19.1917710   6.0152807  62.2701359  40.5356650   5.4511633  39.9463487
  40.1180511   6.2474146  40.2747059  41.3672214   5.7508554  39.5790100
  67.4516860   4.1666216   2.7069139  67.6055805   4.7405332   3.4573602
  67.6737396   4.7028774   1.9457626  85.3038597  72.5529099  35.5883360
  85.2851772  73.1174517  36.3611078  84.9239922  73.0880690  34.8915267
  69.8809338  68.5397577  44.6277189  70.5710983  68.7435675  43.9965534
  70.1888704  68.9199400  45.4504347  67.6969425  45.8360905  16.8236923
  67.5685016  45.1997894  17.5271415  68.2247535  46.5288776  17.2208022
  68.0321789  74.6317530  51.8289614  68.6014891  74.8836613  52.5560522
  68.1647110  75.3159666  51.1728239  72.3204660  68.1767607  29.5329452
  72.9828787  67.5348806  29.2771435  72.8232956  68.9448023  29.8040628
   6.4663653   8.4753885  58.2445574   6.6363721   7.8537073  58.9522600
   7.1628623   9.1269674  58.3256674  48.0685274  32.4505705  11.8886279
  48.4345333  33.0016559  11.1968421  47.4405090  31.8859762  11.4380073
  10.2528971  79.7107983  51.8796873  10.2042216  79.5357084  50.9398985
  10.4918498  80.6357956  51.9389248  14.6747594   4.1570177  48.6187410
  14.0960317   4.8989095  48.4429598  15.0290160   4.3309583  49.4907951
  43.6218982  30.4292287  38.5735416  44.5210796  30.2737989  38.2844830
  43.3348422  31.1881055  38.0656767  68.7666000  37.3699232  64.9988795
  69.7197403  37.3597475  65.0864557  68.4608425  37.8552528  65.7651672
  52.4767828  48.8014507  50.6960821  52.5441980  49.7441626  50.5445051
  52.2246361  48.7242365  51.6162395   6.6676765  10.5225839  30.7531238
   7.5626426  10.6513586  30.4389858   6.7724233  10.1708021  31.6371536
  80.7117748  46.5053225  38.1770968  81.3669491  45.9383678  37.7702284
  81.1911201  46.9726610  38.8612413  19.1699332  79.1118717  33.6491108
  19.7799605  78.3810997  33.7494326  18.3426398  78.7833166  34.0010643
  70.0077677  43.0885029  37.3476052  70.4978132  43.7373781  36.8425822
  69.5643520  43.5979700  38.0258822  29.5371169  78.0153799  35.4693007
  30.2658004  77.4399471  35.2366686  29.7469443  78.3230305  36.3510919
  52.4945884  10.2417841  25.9969521  52.4539046   9.4647398  25.4394865
  51.6848331  10.7155313  25.8069563   5.2068537  72.5219727  51.9273281
   4.4570273  73.0899239  52.1045876   5.7710284  73.0418158  51.3548756
  73.3815185  41.4795822   7.7463006  73.3940593  41.7328018   8.6693143
  74.2322532  41.0660213   7.5998210  79.4035196  33.5092545  43.8970137
  80.2203560  33.5375118  44.3952179  78.8597155  32.8751850  44.3644094
  71.3724566  75.9903479  51.5208149  71.5937996  76.9080877  51.3627386
  71.5976191  75.5454922  50.7037258  65.0284481  75.2444029  19.3735063
  65.5350018  75.2416277  18.5613334  64.5523643  76.0746241  19.3560159
  54.8952103  55.5194998  28.6772084  55.5470467  55.8594847  29.2901945
  54.3646622  56.2815380  28.4447241  74.9796187   7.6282777  33.1096959
  75.0939642   6.8402757  33.6409330  75.7569300   8.1558122  33.2933378
  50.1182500   9.0539974   1.7764377  49.1741220   9.1508287   1.6520404
  50.5054800   9.6921009   1.1771774  73.9647961  69.5022011  34.7092772
  74.0474319  69.7696114  33.7939095  73.5284424  68.6510754  34.6717000
  51.4805317  58.7497950  39.2567682  50.6441927  58.3388805  39.0378642
  51.8968105  58.1373596  39.8632860  25.2710776  21.3156976  24.1722703
  24.8449378  21.8862142  24.8119116  26.2028175  21.5197458  24.2525983
  71.8958937   0.8833875  54.4870901  71.9898449  -0.0616656  54.6065474
  71.1794649   0.9753694  53.8589954  74.3025494  35.9322238  48.7521315
  73.9403296  36.2618709  47.9297209  74.9718666  35.3027487  48.4837914
  33.2370273  19.4225639   1.3004112  32.9897491  18.5653108   0.9537029
  32.8252117  20.0493521   0.7056188  74.0077400  58.4122181  58.6664009
  74.7741175  58.5994148  59.2084837  74.0214252  57.4619436  58.5522795
  55.3306723  73.9250660  25.0863934  54.5082903  73.4385872  25.0293040
  55.0708437  74.8026943  25.3665566   1.4881915  64.6510029  37.4795151
   1.2951010  64.6938276  38.4160590   1.4215296  63.7208796  37.2635078
  79.9703789  57.9772377  50.4880714  79.6301699  57.7423477  51.3513851
  79.2249012  58.3727837  50.0363636  70.9463596  45.2656651  43.0491352
  71.1406469  44.4780111  43.5571575  70.6221581  45.8933401  43.6950064
  62.8237581  30.8219314  60.1917744  62.6395702  31.6331887  60.6652403
  63.1172228  30.2113128  60.8679867  63.2175779  72.9151106  45.8185387
  63.5682869  73.4227943  45.0867605  62.4005795  72.5453997  45.4837894
  84.3948733   0.3126611  59.7853899  85.0653874   0.7627477  59.2715216
  83.5926997   0.8074274  59.6182013  81.8794632  50.4593849  61.5280342
  81.6644478  50.9201574  62.3390150  82.5366402  49.8132801  61.7866707
  42.5228643  80.7242393  50.0924540  42.1009302  80.1599312  49.4445562
  43.1478548  80.1520348  50.5376625  10.8291835  52.3983908  54.8050737
  11.5412730  53.0358648  54.8578835  11.0098571  51.7783976  55.5116129
  10.2631301  61.8431091  58.3385563  10.3411502  61.3589811  59.1606045
   9.3747348  62.1991253  58.3536482  54.5910501  76.3325119  26.2689519
  55.3075695  76.6472578  26.8201041  54.0242958  75.8460426  26.8675923
  79.8033047  63.3154011  54.4389820  80.0637054  63.7304783  55.2612543
  79.8316336  64.0223885  53.7943125  66.1610937  78.0582285   8.6606264
  66.6749716  78.5923481   9.2663294  65.3074741  77.9695463   9.0845370
  39.7982268   6.4369478  25.4414368  40.7473903   6.3364210  25.5136895
  39.6362357   7.3522558  25.6699204  79.3432869  28.4300943  64.9533657
  79.6401561  27.5437542  64.7472048  78.3884395  28.3791109  64.9096439
  27.4440306  80.0644398  38.5402489  27.7921027  80.3737926  37.7039623
  26.9846171  79.2532492  38.3231115  24.2117839  26.3459100  25.7550025
  23.5395007  26.3748636  26.4357615  24.0673022  27.1408453  25.2417374
  62.3267841  51.9492388  41.8842363  63.1800652  52.1498919  42.2687912
  62.4514580  51.1041355  41.4523935  67.8552437  46.7354345  60.1636410
  67.5492191  46.8197393  59.2606020  67.0750618  46.4852047  60.6585455
  12.7694087   8.5879697  63.6381865  12.9154973   8.9451971  62.7622414
  12.7577548   9.3549528  64.2107630  71.0076666  49.6556950  27.8245783
  70.3835297  49.4509745  28.5208392  71.6149378  48.9157963  27.8221202
  67.1018402  45.3489536   4.8193073  67.3957149  45.9491581   5.5046081
  66.5069381  45.8719009   4.2818641  80.5579281  72.9164028  19.7572029
  81.0167980  72.6442099  20.5519223  79.6857071  73.1699276  20.0591779
  43.0704538  23.7008232   0.5444478  43.6505977  23.3347124  -0.1231099
  42.4827425  24.2801136   0.0594234  66.5773670  14.3468708  14.0830421
  66.7117111  15.1982111  14.4994544  67.2722618  13.7935108  14.4396018
  26.0124034  72.8974485   5.5144405  25.5290526  72.1189785   5.7911932
  25.3869170  73.3920765   4.9849623  68.7435818  60.5985546  43.7492895
  68.4188223  61.2770462  44.3412542  69.4908524  61.0029173  43.3084917
  78.2810736  78.9891529  16.0125494  78.0844831  79.1773891  15.0948620
  77.8389359  79.6844387  16.4997065   0.3205733  25.3008642  45.6498003
  -0.0526948  25.9518995  46.2439823   1.1759048  25.6576624  45.4103470
  78.5142946  34.3962359  41.3454962  78.5855675  34.4602084  42.2978926
  77.6495028  34.0144515  41.1951399  56.5169395  36.6385551  69.2085762
  57.4660267  36.7629286  69.2080064  56.1616577  37.5054308  69.0122899
  13.6769217  67.2484016  48.6255598  13.2494467  66.4813900  48.2445192
  12.9863471  67.9096794  48.6708307  15.6360549  20.8348751  30.2187324
  15.3580397  20.2544022  30.9272432  16.5263098  20.5506468  30.0116229
   2.1163768  39.2463183  41.9352627   2.9664439  39.6529937  42.1032858
   2.2976321  38.5757899  41.2766552  13.3058969  29.6747249  21.5349769
  12.4682037  30.1286358  21.4429664  13.0749694  28.8145489  21.8856906
  70.6774330  71.5159512  64.0570498  70.9294510  70.9117126  63.3587551
  71.2953711  71.3346910  64.7652340  36.5257983   8.1812467   8.8800323
  36.3584857   8.0432882   9.8123437  36.3798671   9.1177835   8.7465215
  70.0906610  74.2224932  48.8899279  69.9992466  73.7531376  49.7191334
  69.2236900  74.1692734  48.4877396  69.9516582  35.8486271  43.2022905
  69.8892975  36.2233210  42.3236847  69.0895557  35.4638791  43.3603382
  20.5183021  30.8042616   2.3415803  19.8909656  31.0975212   3.0023956
  20.0050870  30.2505535   1.7531490  76.6706935  30.8791775   6.9695377
  77.5525085  30.5131143   7.0375060  76.6168777  31.5092558   7.6881074
  71.1955929  76.1863661  36.5476441  70.2388763  76.2126875  36.5629673
  71.4576340  76.4960051  37.4146438  12.0615786  64.7379780  23.7959266
  11.7303199  63.8402653  23.7713981  11.9012660  65.0765896  22.9150891
  76.4767313  74.0588236  48.9720011  77.0643520  74.3432808  49.6720171
  76.9973612  74.1431046  48.1732082  66.3103294  77.6169682  29.1443801
  66.6200018  78.2164526  29.8233175  65.7248592  78.1481838  28.6046934
  25.5755000  12.6316061  15.4978204  26.3295512  13.1784143  15.2772748
  25.2361446  13.0078592  16.3099170   2.6189345  71.1887169  56.4789057
   3.2719630  71.7213345  56.9329023   2.9243964  70.2884769  56.5906906
  24.8241442  72.8808975  52.0089674  24.5503348  72.2910786  52.7113724
  24.5344180  73.7466574  52.2966194  22.8771453  22.0702161  59.1917133
  23.3321242  22.6931276  59.7584629  23.5760360  21.5396108  58.8093090
  75.0730371  59.6785259  63.6732244  74.1705990  59.7211599  63.9894772
  74.9943542  59.7084093  62.7197361  52.4377147  24.1031164  27.6239395
  52.2445194  23.5603184  28.3883285  51.6635505  24.0175003  27.0675563
  69.9586105  73.3001471   5.1070571  70.2614403  74.0617943   5.6014436
  70.7169724  72.7168512   5.0774181  41.3983107  68.2756329  44.0479183
  41.3862419  69.2172909  43.8765574  41.2732887  67.8740883  43.1880522
  29.5449847  64.6662998  19.5418262  29.4587344  64.8419762  20.4788065
  29.8399848  63.7569094  19.4948053  20.1135593  14.0086927  60.6210089
  20.1030641  13.4311285  61.3842487  19.2093091  14.0072145  60.3070784
  69.5983028  37.1349382  41.0633326  69.1309881  36.5447831  40.4720879
  70.2579832  37.5544143  40.5109835   3.6327857  36.3711452  44.4762325
   3.5056609  35.9938955  45.3467226   2.7576369  36.6484809  44.2052507
  77.4306154  55.4042578  13.5394418  78.2121277  55.8595181  13.8528144
  76.9692087  55.1439714  14.3366790   2.9652791  22.3023882   6.0476971
   2.7771096  22.9481592   6.7287254   3.9041286  22.3929205   5.8846176
  53.5984182  62.3148394  48.8311863  53.1439161  63.0783129  48.4751415
  54.4909096  62.6209927  48.9923000  77.4389696  37.0569801  28.1241465
  76.9681549  37.8787804  28.2627463  78.3100605  37.3262191  27.8326988
  67.8929758  50.4123831  67.7758884  67.3864889  50.3392220  68.5848093
  67.7122355  49.5984554  67.3056936  68.0808020  79.6235609  10.7158065
  67.4845457  80.3100967  11.0147679  68.8307619  80.0974846  10.3563774
  10.9575480  80.1678562  40.9477949  10.2291125  80.0419903  41.5558863
  11.5676326  79.4600105  41.1551046  75.7906485  53.3189440  54.0097809
  76.6301966  53.7213087  54.2322493  75.9998989  52.6986837  53.3114100
  12.0365065  48.6609840  48.0093050  11.6434020  47.8843832  47.6110744
  12.2705096  49.2183304  47.2671175   6.5502839  15.0582399  50.6164885
   6.7272287  14.2623129  50.1150751   5.5976062  15.0772085  50.7074261
  50.2666431  24.3823900  25.4662514  50.3910976  25.3128805  25.6531429
  49.5132213  24.3552389  24.8764610  76.4799929  46.5569305  44.6529722
  77.0799541  45.9114838  44.2792416  75.8051157  46.6721487  43.9840174
  71.5146542  63.1629896  25.6323266  71.3405228  62.8448486  26.5181589
  72.2805643  63.7291813  25.7274222  76.2778716   5.8045854  58.5527945
  76.0409885   4.9362459  58.8785315  75.7833533   6.4105215  59.1046381
  78.6016594   3.1811704  36.4347601  78.7925898   2.6397218  37.2006702
  78.0790936   3.9059438  36.7780614  49.6996403   0.0037358  41.2722540
  49.2277527  -0.2394570  40.4757547  50.4696894   0.4782120  40.9590006
  54.3682289  13.2173884  37.6440120  55.0578690  12.8570819  38.2015157
  53.8597059  12.4545586  37.3688293  34.5997190  11.5071094  37.3606491
  35.0163388  10.8401000  37.9063225  35.2031493  12.2496629  37.3874569
  75.5390949  76.6437698  45.4161692  75.1487167  76.1423946  44.7003078
  74.8556418  77.2612337  45.6766748  84.0731234  78.2405830  31.2713933
  84.3818540  77.8251989  30.4661775  84.8052449  78.1533540  31.8818164
   6.1590255  29.6607981  33.0784249   6.8353451  29.0769492  33.4218574
   6.0404194  29.3819867  32.1704459  40.1617575   3.8913620  22.0697618
  40.6109715   4.3354928  21.3506031  39.8363709   3.0783755  21.6832256
  53.6137676   3.3892187  17.8117585  54.0418386   3.6327991  18.6325240
  54.0624475   3.9083475  17.1443594  81.0110350  76.0974056  27.8973150
  81.6023822  76.7780654  27.5760055  80.8136220  76.3569213  28.7972665
  42.6620150   6.6617471  22.6940322  43.5599470   6.8926734  22.4560761
  42.1173429   7.2611248  22.1838284  58.5505128  55.8714519  43.8089275
  58.5022324  56.8271957  43.7875605  59.4381697  55.6697975  43.5128975
  26.1608900  63.3465050  12.2759533  25.5269350  64.0625785  12.3155689
  25.8244766  62.7662895  11.5930140  83.7293917  19.5908749  46.4345932
  84.6146043  19.5854473  46.0704517  83.3988170  20.4694772  46.2474823
  11.3836087  61.2901745  14.8790932  11.7223133  60.7494519  14.1655600
  11.9040264  62.0925591  14.8393774  10.9597838  17.8404057   2.1960627
  10.1829159  17.5306094   1.7305155  10.8467567  17.5194180   3.0907267
  49.2182255   2.3626599  50.6341743  49.5377016   1.4899863  50.8635330
  48.9320374   2.2814836  49.7243738   5.0303406   7.6661807  23.9677072
   4.4210801   6.9533050  23.7757659   5.0836337   8.1621909  23.1507850
  61.3453484  11.4168859  34.4812179  61.9776630  10.9928083  35.0613642
  60.7403898  10.7174563  34.2341256  42.3417234   8.3162588  39.7284412
  42.5205135   8.9245927  39.0113664  43.0565262   7.6809621  39.6874261
  31.0077966  63.7771747  42.0776653  31.4545406  63.4151183  41.3124418
  30.2741350  64.2730985  41.7143106  81.3917084  69.0897665  60.2946758
  81.2576527  68.1420014  60.2958870  81.9020171  69.2604957  61.0862970
  84.2618426  55.0948626  54.5335317  83.7342413  54.8340803  53.7786389
  85.1376494  54.7601587  54.3407477  70.9935827  61.7495582  11.0909963
  71.7089541  61.4717684  11.6631043  71.2079818  62.6536880  10.8611822
  19.8400593  15.2096772  26.5692568  20.2959919  16.0190785  26.7999673
  18.9175010  15.3965831  26.7429924   7.1366798  35.2214501   8.9236593
   7.8068053  35.4487626   9.5682430   6.4248954  35.8394433   9.0900421
  84.4862766  63.6690436  15.6194866  84.9949736  63.4011076  16.3847780
  84.3538971  64.6097038  15.7372391  64.8801661   7.4728906  33.0370164
  64.7794199   7.1857619  32.1294713  64.6607447   8.4044331  33.0192709
  55.3724813  18.3291364  45.2815104  54.7925091  18.9904690  44.9040174
  54.8916388  17.5068796  45.1870728  78.7539339   8.8819438  37.7696133
  77.9500484   8.5799444  37.3467731  79.3634176   9.0308756  37.0467138
  33.8916135  15.4062343  34.6874070  33.5541582  14.5186353  34.8079300
  33.1686592  15.8842111  34.2810702  65.2449251  71.6228984  26.8097019
  65.3917767  70.7449285  26.4577985  65.4273177  71.5393917  27.7456450
  28.5290194  34.6445799  21.8800879  29.2456269  35.2696848  21.7707753
  28.5762811  34.0877509  21.1029506  31.2332463  54.6150303  29.4828463
  31.5766954  54.8951912  30.3312492  30.2834845  54.6956873  29.5704675
  68.2553183   6.3466672   4.5224475  67.4212681   6.7683796   4.7292089
  68.7033736   6.9696836   3.9503240  66.5635199  63.6706469  47.3031425
  67.0855636  63.8720057  48.0797768  65.6602241  63.8386999  47.5715590
  77.4059248  36.9670057  46.7733240  78.0216503  36.4478111  46.2560701
  77.3281956  36.4920664  47.6007414  11.0214545  47.4702609  59.0828658
  10.6000163  48.3290452  59.0495158  11.8082263  47.6098651  59.6098674
  64.8517799  10.6615162  14.5678234  65.0924063   9.8833162  14.0650940
  63.9480639  10.5011725  14.8395097  79.5563025  51.2120424   1.3586761
  79.9822969  50.4181657   1.0353779  78.7897129  51.3188253   0.7954971
  10.5870485   4.6985307  67.4235773  10.4456317   4.2757457  68.2706261
   9.8847604   4.3613771  66.8673849  44.7596788  24.5459819  68.5794258
  45.5466604  24.8070478  68.1011629  44.1231155  25.2344966  68.3871603
  84.6833749  80.0828811  39.0618896  83.8363666  79.6491113  38.9586806
  84.5665402  80.6599898  39.8165584  46.1331606  20.2335882  39.2135930
  46.9537401  20.5184650  39.6157503  46.1040783  20.6954503  38.3756971
  57.9814590  68.2615850  39.6914220  58.8429988  67.8915177  39.4989824
  57.7973045  67.9854915  40.5892467  67.5968218  12.7415597  57.6377106
  67.8460073  11.9131243  57.2280312  67.4225998  13.3294010  56.9026470
  76.9199319  69.6984229  14.5682395  76.2501104  69.0370093  14.7417450
  77.3713250  69.8074792  15.4052472  69.8412657  15.3433812  12.8701556
  69.5977449  16.1663103  13.2940829  70.7837677  15.4201543  12.7217376
   8.5110081  78.9018973  30.3892565   9.2433776  78.9131551  29.7730279
   7.7686561  79.2350459  29.8851180  45.1893139   4.1109365  32.2530913
  44.3425941   3.7490776  32.5145364  45.7326698   4.0401402  33.0379391
  46.4446592  13.0206919  25.3912282  47.0489454  12.7270138  26.0730076
  45.7528639  13.4809840  25.8663964  27.7535261  67.8399906  37.0379472
  27.5588859  67.3612342  37.8436375  27.0281805  68.4576462  36.9451833
   8.3155563  40.8592593  39.2884541   8.8206317  40.4436054  39.9872852
   7.4029567  40.7540703  39.5574022  39.0428556  76.9266138  29.4130754
  39.9041713  77.3422564  29.3729496  39.2081274  76.0108862  29.1886640
  59.7805691  21.4119792  37.0094919  59.4207764  21.9948959  36.3409185
  59.0477228  21.2466621  37.6026487  30.8529438  45.8788619   9.9893731
  30.8126415  45.5263219   9.1003716  31.6792310  45.5476079  10.3411603
  28.2307494  69.1274003   9.9122238  29.0686676  68.7084941   9.7156476
  28.3441935  69.4891648  10.7911395  48.8081325  74.8930381  54.6498346
  48.9326824  73.9695589  54.8687077  48.8798679  75.3496353  55.4880476
  60.9705210  25.3796196  22.2267079  61.5572977  26.0976982  21.9894600
  61.2360191  25.1364255  23.1136131  43.7023986  76.5621064  53.0713749
  43.0859769  76.6089729  52.3405838  43.9341940  75.6352560  53.1301355
  63.0506372  30.7281756  24.9812436  63.4785986  30.4073167  24.1874361
  62.4229336  30.0423121  25.2088737  57.5102854  19.7049129  62.5199556
  58.1753254  19.2057920  62.9941130  57.9459000  20.5253983  62.2891426
  33.8324846  63.6483429  22.8150964  33.3025373  62.8867529  23.0504012
  34.0082897  63.5383222  21.8806362  33.6966825  14.2186427  22.0883918
  34.4511867  14.2580485  21.5006828  33.0230284  14.7371387  21.6484070
  55.7226181   3.9609525  32.1419573  54.9963427   4.1434094  32.7381635
  55.9533405   4.8152557  31.7770362  70.0400925   3.0242646  14.8365092
  69.3719292   2.4789290  15.2517164  69.8293257   2.9924119  13.9033449
  68.4699379  24.9417214   8.5371684  69.3979536  24.8640267   8.7584924
  68.0270301  24.3587593   9.1537904  42.5862980   9.9836385  24.3313789
  43.1678581   9.2582655  24.1036630  43.0002308  10.7538319  23.9419031
  62.2790003  18.4514642  36.4165378  61.7443609  17.8717864  35.8739853
  62.2035170  18.0900228  37.2996545  36.7363715   1.4528193  26.2244821
  37.5085306   0.9123363  26.0575175  36.5989900   1.9329812  25.4079008
  35.0639081   9.4695920  26.2566113  34.5053077   8.8890570  25.7397199
  35.3307009  10.1541114  25.6430268  73.2969196  77.7270822  38.5752583
  73.4710259  77.0514576  39.2305827  73.7260146  78.5105611  38.9191628
  64.1718340  22.0115209  28.8176227  65.0916052  21.7647362  28.7209249
  64.0602303  22.7561426  28.2265949  79.8352536  21.9448620  57.7714515
  80.2715071  22.2146124  56.9632722  79.0614041  22.5057191  57.8246070
  27.3756433  18.6579597  23.0149961  26.6195726  18.2694292  23.4550333
  27.0040178  19.1205394  22.2638988  21.3219094  26.7150044  56.7687416
  20.5088568  27.2155571  56.7007446  21.0800886  25.9312201  57.2621346
   1.7929151  50.1060641  63.4585059   1.0126664  49.6281654  63.7396736
   1.7828729  50.9088451  63.9797295  28.6860466  21.9463015  20.5374098
  28.6399961  22.8734779  20.3040481  29.2736673  21.9182682  21.2924933
  65.9688266  48.3447277  66.3373066  65.4475602  49.0901917  66.0393173
  65.3221282  47.6963741  66.6159657  50.0536776  21.6685510  57.2369337
  49.9779129  22.4595976  57.7705383  50.0212622  21.9846845  56.3340282
  11.6631235  79.8053966  44.2920876  10.7688440  79.8640705  43.9558554
  12.1239914  80.5334429  43.8752174  39.3615150   0.4579210  25.8729339
  39.6438336   1.3068113  25.5324745  39.7646976  -0.1816723  25.2859116
  65.7250595  28.5430622  29.9248433  66.4058161  28.5070252  30.5967832
  65.0769043  27.8971052  30.2056670  73.8782176  24.4226438  50.3340090
  74.1714390  25.3213352  50.4843641  72.9239329  24.4856125  50.2938867
  71.3469410   5.2905625  21.7085648  71.0326624   4.3914542  21.6133428
  71.7879438   5.4791296  20.8802009  52.3283148  18.8632631  52.0540047
  51.4679193  18.7638187  51.6465044  52.9218388  18.3763528  51.4822721
  73.3880221  63.7255196   1.4245605  73.2045876  63.9412479   0.5102062
  74.3028199  63.4437780   1.4252996  43.7155771  44.9420786  31.1562729
  44.4208956  45.3547001  31.6547704  42.9218864  45.3904676  31.4482141
  15.4900087  71.4427076  31.7532492  16.3205351  71.0834930  32.0653701
  15.4947103  71.2732534  30.8111787  35.6125940  68.8346849  17.6563191
  35.0429786  68.1705401  18.0444956  36.4175714  68.7911175  18.1724072
  36.1343002   5.2839094  25.6784248  35.9707332   4.6361271  26.3638854
  36.1356974   4.7777778  24.8659849  20.6334222  77.4093638  25.2845240
  20.9572948  76.5467260  25.0253057  21.3637699  77.8068517  25.7586861
  33.1922436  37.5399184  22.3633146  33.5581589  38.3471870  22.0018482
  33.6788011  36.8402338  21.9274974  58.3640575   7.4237597  16.6155124
  58.0341244   7.6762724  17.4778426  59.2383814   7.0737654  16.7866576
  32.7040794  13.2476193  69.4923624  32.6421573  12.7818042  68.6584465
  33.3800342  13.9096385  69.3472982  62.1654892  12.6890910  39.1730809
  61.9427395  12.9556274  38.2811332  62.0197821  13.4740877  39.7010779
  11.9467427  26.9209343  57.3638654  11.4115264  26.1304980  57.2932542
  12.8481128  26.5992099  57.3799802  44.2456293  18.1407309  33.4821677
  44.8209620  18.3228350  34.2251778  44.3798590  18.8795698  32.8885913
  61.1686039   0.3743776  33.5024571  60.2438593   0.3549179  33.2560873
  61.1609697   0.4075905  34.4590497  36.3075256  13.7342322  52.0237970
  36.1323309  12.9499662  51.5037346  35.4524994  14.1535878  52.1202660
  41.5792751  -0.0739791  34.0655446  40.8543253   0.5169947  33.8620090
  42.3438597   0.3371067  33.6622477  33.1438316  74.9318627  45.3601742
  32.7795471  74.2346034  45.9054804  33.7170280  74.4780187  44.7423553
  44.8289360  72.8180311  61.3581514  45.1835741  72.8398923  60.4693365
  45.5819191  72.6103119  61.9114161  51.6186584  64.0488801  47.8243208
  51.1555446  63.7067268  47.0596695  51.7496360  64.9768637  47.6295805
  48.0094528  56.4299870   6.7840052  47.7592707  56.5926361   5.8745074
  47.3926735  56.9503736   7.2988021  13.4418696  19.3941391  38.2540488
  13.0524176  18.5336936  38.0985236  13.0563086  19.6857727  39.0801978
  62.8083737  66.5283285  51.3304758  63.3808286  67.2927008  51.2651920
  62.9017181  66.0864065  50.4865456  43.4604740  12.6546013  23.2882881
  42.5496340  12.5022745  23.0364990  43.4042454  13.0892706  24.1392493
  50.6085777  20.9715533  31.4948034  49.8213196  20.5743337  31.1224198
  50.2980137  21.4351249  32.2725439  25.9647478  64.6043299  19.4940364
  26.9154752  64.4983707  19.4605350  25.6299652  63.7190137  19.6367478
  72.2408329   9.9671821   6.4166164  72.4066388  10.5515007   7.1564197
  73.0689036   9.9472288   5.9368944  59.4080544  18.7808156  29.1666150
  59.1026688  19.0420306  30.0353718  60.3605556  18.8635576  29.2126632
  40.5515575   6.4664239  18.0006826  40.6400251   6.2340707  17.0763350
  39.7250986   6.0658067  18.2703149  32.4582386  20.3485036  47.5732613
  32.4703288  19.7314358  46.8416071  32.0105624  19.8777330  48.2762527
  84.1570992  72.3621211  32.2826076  84.8690481  71.7495058  32.4671745
  84.0738935  72.3523811  31.3290811  55.9769535  46.3086128   0.5978930
  56.1228371  47.2420120   0.4438857  55.3671026  46.0446358  -0.0910388
  78.4076614  72.3383925  33.6388755  78.9797039  73.0053560  34.0185595
  78.9793367  71.8336687  33.0603647  27.1133102  58.4537826  34.2256999
  26.2275947  58.7937222  34.3529177  27.1827043  57.7280484  34.8459625
  11.6291822  60.1445589  46.9791746  11.2074197  60.3450189  46.1436129
  11.4119209  59.2268596  47.1430492  49.2294216  12.4608552  17.1897149
  49.0738583  13.3999729  17.0892727  49.9714708  12.4040329  17.7916849
   2.3515857  62.0400784   1.4957732   3.2878770  62.0747326   1.2998402
   2.2250355  62.6996718   2.1777958  21.4385856  59.0261660  63.1537580
  20.8184827  59.4952021  62.5954437  21.5317834  59.5817528  63.9276218
  55.1187976  47.9170424  68.2371522  55.1019915  47.2619587  68.9348729
  55.9704407  47.7975166  67.8168579  51.4459051  48.9577113   0.6537256
  52.3919357  48.9673314   0.7992086  51.3374675  48.5144625  -0.1877051
  69.5558842  46.4846265  47.6705361  68.9287480  46.8735629  48.2801748
  70.2859076  46.2058353  48.2233191  23.1876945  39.0413189  24.4593358
  23.9205527  38.5916233  24.0387106  22.6907873  39.4197679  23.7340117
  36.2147284  57.0259190  23.9642811  35.9707713  57.8020144  23.4599090
  35.7325196  57.1132946  24.7865176  22.3118140  33.1856304  60.4134709
  22.0292070  32.6782364  59.6526051  22.9080798  33.8430089  60.0549335
  48.0647278  12.2826028  56.9061232  47.8466463  12.3890448  57.8320551
  48.5156441  13.0936837  56.6714859  77.2931918  46.9742125  66.6267351
  77.0492562  46.7373067  65.7319704  77.3541983  46.1376136  67.0878325
  25.1328672  69.5024226  15.9860802  24.4195093  70.0061498  16.3780057
  25.6597246  69.2136405  16.7312372  21.6696752  58.9668355  18.5778320
  22.3261322  58.7128697  17.9291439  20.8490957  59.0037642  18.0863881
  33.4437442  16.4399731  43.6170340  33.3228445  17.2503591  43.1221676
  32.6144242  16.3150835  44.0784025   2.2605342  50.6717634   6.8923950
   2.1687907  50.2484417   7.7459824   3.0816001  51.1599016   6.9541419
   7.0410646  76.7410276  42.8741932   6.9203867  75.8567146  43.2201099
   7.9650057  76.7773888  42.6267147  26.5770358  41.5432549  38.3992481
  26.7099112  40.6245756  38.6329222  25.8580321  41.8318033  38.9613867
  57.6535209  58.4625763  45.8523536  58.5518535  58.1930476  46.0436297
  57.7446159  59.3159228  45.4284049  28.6285138  33.4278393  19.4732213
  27.7174568  33.2598591  19.2324066  29.0377784  32.5625753  19.4804561
  65.2295732   8.2060897  26.0961509  65.6878185   7.3712850  25.9994817
  65.9062195   8.8684064  25.9557247  18.0295372  40.2818680   2.0688041
  18.5277665  40.9364367   1.5793738  17.7039373  40.7529545   2.8358075
  53.9221811  12.8935051  52.4424601  54.0342617  12.1352077  51.8691778
  54.7288513  12.9262948  52.9567051  29.8890924   2.9467350  12.6166737
  30.5428171   2.9590765  11.9175863  29.7183657   3.8703191  12.8012729
  28.1333412  76.7199586  43.0049658  28.2074226  77.3481355  42.2865391
  28.8589061  76.9383458  43.5898495  37.2464013   0.3065936  32.3014736
  37.4019957   1.2131263  32.0364809  37.1399021  -0.1688652  31.4775634
  74.9227177  75.4111509   2.6957273  75.5858313  75.8486489   3.2296848
  75.4249083  74.8763804   2.0808648  16.5918363  48.7066136  22.0814109
  16.2266792  49.0051637  22.9143333  16.3712324  49.4009600  21.4605689
  59.0976715  15.0317311  26.3696170  58.8716459  15.9499180  26.2210393
  59.2304134  14.6727502  25.4922652  36.9332170   0.5045379  66.7378712
  36.5803695   0.8010240  67.5768185  36.1949635   0.5674784  66.1318588
  81.4715576  33.1655836  14.6592259  81.2721348  32.5386095  13.9639795
  80.6596565  33.6586714  14.7771978   8.2510866  58.3092556  35.3507423
   8.4658469  59.2097721  35.1074791   9.0846933  57.8417192  35.2983809
  24.4697022   6.8273032  33.7616062  24.4003201   5.9412634  33.4061480
  23.7674475   6.8809909  34.4098258   1.6125811  73.7927024  31.6954064
   2.4615062  74.2164854  31.5690422   1.7614950  73.1640051  32.4016619
  83.9929676  26.3884735  51.2926483  83.5554790  25.9761524  50.5477762
  84.4161701  25.6637788  51.7530251  19.6170725  52.0245490  10.7858539
  20.2491726  51.4497838  10.3541958  19.1329492  51.4474545  11.3764644
  73.7439508  73.8734786  16.5034664  74.3159969  73.4539423  17.1461046
  74.3102689  74.4982169  16.0504568  11.9204820  73.7894205  57.3689318
  11.1281646  74.2448781  57.6535749  12.5754274  74.0119008  58.0305815
   3.8566006  58.9352928  53.8015366   3.4018291  58.7842641  52.9729176
   3.1556166  59.0896354  54.4348049  53.6985111  10.3140962  41.8205881
  53.2748461  11.1067808  42.1498156  54.0861511  10.5785620  40.9863091
  24.1241050  15.7096028  45.8954525  23.5920811  14.9138749  45.8938694
  24.8216510  15.5325949  45.2643204  74.2176533  38.5713935   3.1980926
  73.4950066  38.4108591   3.8049179  73.9115953  38.2187295   2.3625165
  62.6706743  15.3550959  68.6221743  62.9027653  15.0158763  69.4866371
  61.9654751  15.9798193  68.7914419  43.3429289  25.2277613  51.2586355
  42.7594137  24.4941998  51.0646534  44.1681910  24.8160648  51.5149212
  51.3875198  30.2567482  11.9425344  50.4349327  30.3499341  11.9313276
  51.6695213  30.7702827  12.6994944  68.7257285  43.5544453  67.0530844
  69.0968163  43.3335862  67.9073381  67.8047104  43.7426577  67.2334623
  41.2276432  79.4471232  64.1580785  40.8733341  78.5861603  64.3804360
  41.7859814  79.6755759  64.9012477  26.5404476  72.6092795  14.3977189
  26.0204233  73.4128676  14.4047344  26.3236345  72.1764676  15.2234888
  35.3019261   9.6394014  45.1183891  34.5855951   9.5789838  44.4863701
  36.0954547   9.6225399  44.5833588  65.8839512   3.1640202  35.5659604
  65.0552988   3.6374873  35.4924893  65.6644726   2.3717591  36.0562491
  30.1027454  74.8964260  38.4317183  30.0714077  74.4103608  39.2557263
  29.6167577  74.3509547  37.8132463  62.5321913   6.6107315  34.3669200
  62.5703716   7.0388997  35.2221680  63.4370518   6.6180038  34.0548205
  14.6559871  67.0569430  28.0379391  14.4827474  66.1158548  28.0618286
  15.4868759  67.1593807  28.5020137  27.9977525  55.1363263  15.4143798
  28.2776178  54.6836315  14.6187842  28.2018722  56.0570321  15.2504647
  55.3654051  18.5079467  30.9465551  54.7938347  17.7842593  31.2031054
  54.9144888  19.2919731  31.2599421   1.4547080   9.8367673  44.2824554
   1.4547938   9.2161506  45.0111961   1.5655154  10.6925631  44.6966600
  30.4470171  79.0290571  31.4645433  30.9288753  78.2066540  31.5522718
  31.1040701  79.6618790  31.1746311  49.9888086  24.4456124  43.3743286
  49.9697781  23.6179137  43.8547325  50.8452797  24.4548869  42.9470110
  50.4838909  79.4651038  24.8739958  50.0175799  79.8229135  24.1185117
  50.1322378  78.5806582  24.9756241  74.8137244  32.7572030  63.5512376
  75.3470953  32.5047332  62.7975768  74.3133267  31.9697386  63.7650902
  50.4349327  26.5255666  53.5395050  50.0903463  27.3620701  53.2268524
  51.2996483  26.4564681  53.1348753  81.4653177  51.5083752  12.3326480
  80.8823128  50.7497821  12.3622227  80.8780713  52.2633562  12.3697591
  67.4867153  12.5860882  17.1314800  66.5467310  12.4542141  17.2550523
  67.5846243  13.5330033  17.0314908  50.4169000  75.0361786   7.5487429
  50.4094518  75.5540396   8.3537251  49.5253624  75.1099495   7.2082335
  21.1496878  35.5108047  25.8594370  20.4764485  35.6218100  25.1881289
  20.7012534  35.0626254  26.5765643  56.3449430  17.4050438  61.3924360
  55.4265404  17.6736736  61.4170837  56.8261290  18.1671309  61.7147923
  50.4224920  25.7635784  39.2006469  49.9795437  25.0056505  39.5821881
  50.3476906  25.6338549  38.2552314  67.2726345   0.5948817  20.8067203
  66.7253447  -0.1832523  20.7008219  68.0112410   0.2977053  21.3381171
  83.0982399  38.3466625  41.3868666  83.6070633  39.1436052  41.5359211
  82.2705555  38.5023570  41.8417549  52.8295755  10.8303416  33.7025809
  52.0341825  11.2219095  33.3416677  53.4285736  10.7752991  32.9579973
  32.7118301  22.8404665  42.0071077  32.3582911  23.5708857  42.5147772
  32.2117710  22.8517818  41.1909914  82.1491477  12.8013670  12.4328160
  82.1063074  13.6970770  12.0980012  81.8088025  12.2622538  11.7188466
  13.9602293  76.5601704   6.5103161  14.5299448  76.3618729   5.7671243
  13.3220018  75.8468620   6.5198714  81.3925500  63.9212022  17.0822453
  81.5830011  64.2717193  16.2121308  81.9626922  63.1565235  17.1624780
  44.1313995  78.6107444  18.7431180  43.6928428  77.7883742  18.5249269
  43.5984624  79.2853793  18.3223116  50.8264637  13.5476315  37.3332667
  51.1631441  13.8639641  36.4949298  50.8135605  12.5948751  37.2420502
  63.4245920  24.3325567  32.1427941  63.1091976  24.7074509  32.9651165
  64.1920614  23.8180971  32.3928952  43.3749641  63.7997232  38.5278988
  43.1093610  64.7171352  38.4643149  42.8813470  63.4586046  39.2736936
  77.5871237  44.3926617  57.5708569  78.3630761  43.9593634  57.2153617
  77.5477084  45.2301258  57.1089769  15.2301515  64.3974398  22.0410490
  15.0928653  65.1824067  22.5713444  15.4758657  63.7215815  22.6727724
  21.4583553  63.5297392  10.3713334  21.2557138  62.8373072  11.0003841
  22.1785749  63.1759558   9.8494613  77.4612093  28.0933380  30.9798193
  77.8391171  27.8368402  30.1386142  78.1481123  27.9034805  31.6188383
  25.6870675  28.5454965  14.4123399  25.8417678  29.3484044  13.9147067
  25.0118399  28.0826235  13.9163101  24.7454596  24.6206808  53.7140751
  24.8831534  24.1427016  52.8962660  24.5524287  23.9405870  54.3593979
   6.1512735   9.5602566  63.5487724   6.3213899  10.4042870  63.9669914
   6.9841125   9.0920240  63.6067892   7.1875657  57.5003395  39.3905687
   7.6739181  57.1888647  40.1538992   7.5257743  56.9794593  38.6621928
  62.0454693  41.0735035  11.5439379  61.1111689  40.8732224  11.4873254
  62.2984076  40.7899237  12.4224794  24.3990874  33.6968803  11.6909873
  24.4613051  34.6519971  11.6803718  24.5414972  33.4577465  12.6068294
  73.4557446  15.9372383  69.4080819  73.4565981  15.5777675  68.5209452
  74.3713721  15.8960730  69.6840687  14.4485760  38.9673114  -0.2462339
  15.2999496  38.5348535  -0.1800931  14.1973412  39.1415668   0.6608201
  76.6949368   8.4431541  19.0329492  76.5870094   9.3792874  19.2009938
  76.4152813   8.0202669  19.8448563  34.1681576   3.7067872  30.3333950
  34.3346834   4.2536139  29.5656180  34.5806265   2.8686506  30.1245213
  27.9817321  50.0990772  67.0492599  28.0754115  49.5137113  67.8007931
  28.7151172  49.8734236  66.4770193  31.6270655   8.2285327  14.1306651
  31.3773650   8.2902431  15.0526595  30.8410853   8.4911036  13.6515701
  68.9433432  32.0727634  26.3909960  69.3891478  31.8677640  25.5691290
  69.6236372  31.9909286  27.0593739  74.1470957  40.7176065  42.9075623
  73.7112665  41.5549707  43.0660248  74.5402765  40.8126259  42.0400333
  45.0730324  24.3527150  12.0574319  45.8617783  24.0572023  12.5121629
  45.1600122  25.3052759  12.0214248  15.2909053  77.4243222  23.2278347
  16.0925211  77.6885597  23.6793065  14.7757972  76.9747681  23.8977551
  47.7561344  79.4641032  27.9875040  47.2570194  79.6548435  28.7816906
  47.1072639  79.4919493  27.2843528  59.0414524  13.3220470  14.4321179
  59.4668484  12.6806033  15.0011671  59.3646860  13.1157720  13.5550773
  49.0325546   0.6634262  67.0487022  48.2453823   1.1460675  66.7964125
  49.5015335   1.2588774  67.6332760  61.1169338  29.0682888  26.4759803
  60.7658720  28.6734462  27.2741580  60.5247164  28.7753654  25.7833719
  51.7493200  29.7935843  22.7003145  52.1579456  29.1103888  22.1688080
  50.8311653  29.7905064  22.4297285   8.8262385  18.4868693  11.2913477
   9.0754622  17.6096296  11.5821517   7.8714865  18.4992838  11.3586760
   9.1514659  44.7523117  64.7844315   8.7878758  45.6375265  64.7637129
   9.4624841  44.6421003  65.6829596  66.6579819  20.3069496  26.2029958
  66.7426300  21.2157130  26.4914656  66.7531538  19.7915566  27.0039606
  36.9118847  76.9619677   5.2664387  37.5887264  77.3909057   5.7900172
  37.3011650  76.8753884   4.3962678  46.6975320  13.3445402  59.0769029
  47.2590173  12.9577251  59.7487212  47.2745527  13.9363094  58.5941137
  35.7996082  27.7770257  69.7337294  36.3216400  27.3174334  69.0760899
  36.2105274  28.6384654  69.8065090  25.1742519  64.0598951  33.1738853
  24.6633638  64.2865107  33.9509749  24.9363912  64.7254656  32.5283861
  52.8688908   6.5161973  35.8953309  52.4599648   6.3597172  36.7465234
  52.3827696   7.2545224  35.5281830  65.1327753  44.4852543   7.4367636
  64.6347952  44.2072392   6.6680288  65.9600735  44.8102570   7.0815384
  63.7725210  19.5536268  33.4409451  62.8552866  19.8204112  33.3797765
  63.8760519  18.8931656  32.7558851  41.7647123  20.6829333  61.9281244
  40.8361387  20.8944416  61.8319559  41.7749739  19.8830593  62.4537945
  62.7961636  -0.1636185  22.1144104  63.6240625   0.2105251  22.4157858
  62.2999001   0.5861742  21.7861295  48.0783606  31.1094022  46.2833595
  48.1872129  31.8701267  46.8540430  47.4650002  31.4016199  45.6090927
  53.4738811  51.2510949  41.5286804  54.0868648  50.7948798  40.9521819
  53.9395460  51.3268655  42.3615337  62.9101706   2.5907812  27.6751637
  63.2068586   1.6837138  27.7489018  62.6859045   2.6950067  26.7504621
  46.6254616   6.3497633  59.7766161  45.7543564   6.3354212  60.1730967
  47.1699190   6.8153596  60.4114532  13.0369490  23.8069582  37.3161483
  13.0085486  23.1546974  36.6161633  12.1409243  23.8376212  37.6514578
  71.0976696  41.3079262  25.1944590  71.8088913  40.6978273  25.3898454
  71.2232637  41.5350533  24.2731166  74.5703848  27.2522861  68.6992580
  74.5632084  27.6413268  67.8247139  75.3974923  27.5425929  69.0837638
  45.8161974  15.8309209  56.6355467  46.2604189  15.9413826  57.4761963
  46.5119410  15.5792022  56.0282516  37.7802849  38.0889320  19.6759117
  38.3218718  37.7940822  18.9438057  38.2367063  38.8580990  20.0169325
  74.2336082  15.0160110  39.7983122  74.4864607  14.1202712  39.5748258
  74.4666433  15.5305457  39.0255380  54.9647760   6.0694641  27.5136065
  54.5709848   6.2587667  26.6619468  55.2388811   6.9242054  27.8460455
  76.5836390  48.4093875  62.2096801  76.2582167  47.8093743  62.8807361
  77.2650918  47.9138768  61.7554498  38.3232665   5.5899471  19.1847312
  37.9128623   5.0220948  19.8369157  37.9655313   6.4592886  19.3650186
  16.1586690  20.1478195  58.1037664  16.4692879  19.7412634  57.2947836
  16.9541144  20.3109026  58.6106253  62.6616621  14.7355974  51.6949940
  62.4775791  14.6297574  50.7616472  61.8200731  14.5812738  52.1241140
  67.1683025  10.1249111  35.4453635  66.4753008  10.4107392  34.8501468
  67.0672512  10.6832099  36.2162876   1.1059016  11.1179447  18.0371320
   1.5565509  10.4085243  17.5790131   0.9026164  10.7552159  18.8993001
  28.8541508  21.3850021   3.8067755  29.6269822  21.9434381   3.7224349
  28.1140900  21.9878650   3.7353849  56.9131613   5.5841357  40.0408268
  56.3225317   4.8425549  40.1729059  56.4488220   6.1539024  39.4276524
  59.3822607  45.6788939  66.7069039  59.1649827  46.5548670  67.0257986
  59.3577369  45.1266161  67.4883253  73.5412979  39.8558474  48.5557842
  73.1586075  39.1360092  48.0541706  73.0203104  40.6210232  48.3122444
  14.1647746  70.3321987  66.5042276  15.1124694  70.2008015  66.5332482
  14.0093019  71.0823756  67.0780695  75.2263745  31.3594443  57.0257271
  74.8231085  30.4970092  56.9266630  74.6702059  31.9444305  56.5112377
  17.3123563  59.4449792  48.8352871  18.2092584  59.5714722  49.1447926
  16.7754520  59.9545679  49.4421530  16.0804202  71.4182407  69.0848993
  16.8511131  71.8249041  69.4809911  16.4284732  70.6756574  68.5912780
  26.5347457  16.5296531  32.8178215  26.8156672  16.2272537  31.9541860
  26.0504556  15.7900119  33.1847358  59.3035030  25.5885625  31.7659688
  58.4580708  25.6078911  31.3175273  59.3043900  26.3764739  32.3095012
  80.1789856   9.2732179  62.9277039  80.1332569   8.3196020  62.8587246
  79.5077753   9.4992363  63.5716152  30.6342149  62.5412321  29.5420909
  29.8340774  62.7477837  29.0590262  30.7429147  61.5965366  29.4327021
  50.1176214  18.7996018  20.9240174  50.5852413  18.6020195  20.1125216
  49.9031544  17.9422522  21.2916946  79.8923302  23.1929922   3.3456326
  80.3813934  22.5818038   2.7947280  79.3295097  23.6685014   2.7346018
  36.5544046  56.3368378  33.3555722  36.6508354  57.2665582  33.5618544
  36.7713607  55.8866129  34.1719413  28.7700057  18.1027448  26.3666654
  29.3502426  18.8069355  26.0774064  28.5651922  17.6176023  25.5673409
  79.3490609  39.9410918  63.4520627  79.4539603  39.1441275  63.9717520
  78.5580166  40.3520333  63.8007767  65.0878048  21.8640089  33.7286854
  65.0055885  22.0280766  34.6681285  64.6661234  21.0150003  33.5960197
  65.4074287  19.1776180  49.7400379  64.7465324  18.5150170  49.9410391
  66.2152004  18.6797309  49.6141386  51.0036564   3.1689358  18.4605432
  51.1459446   3.1437838  19.4067740  51.8828344   3.2348076  18.0878007
  52.1299314   5.3816259  38.3818746  52.7080297   4.6611100  38.1310940
  52.3620653   5.5695379  39.2912889  68.0132961  32.4469948  20.6830883
  67.6417446  32.7945065  21.4938998  68.1055593  31.5081120  20.8450150
  57.3916817   0.9253199  14.1804743  58.0539703   0.2521826  14.0239787
  56.5686989   0.5195562  13.9079070  41.8411732  28.0846977  43.5896873
  41.8263054  28.0767536  44.5467377  41.4731216  27.2378707  43.3373880
  73.1403828  29.0116596  28.8608527  73.3271885  29.7895217  29.3864655
  73.9967966  28.6097407  28.7151027  50.4407978  15.4656458  29.5559525
  50.1570129  15.8125031  30.4017591  50.7566595  16.2316823  29.0767312
  39.9309993  49.0179396  17.4004960  39.1231203  48.7656498  17.8476155
  40.3600740  48.1874800  17.1944296  59.8572397   6.7878330  40.7108212
  59.9006891   6.3195717  39.8771095  59.1741276   6.3344795  41.2048388
  62.3260212  16.7069042  63.1524944  62.4979925  15.7786846  63.3108091
  63.1930780  17.0938468  63.0311871  63.0864477  10.2646971  43.9868546
  63.5927057   9.5015913  44.2654371  63.4162092  10.4640257  43.1106377
  31.2007189  38.6580276  32.7711821  30.5173349  38.8835573  32.1400261
  31.5253043  37.8063798  32.4786592  59.7115660  18.5023201  13.5553384
  59.6934319  17.6069963  13.2172596  60.0794458  18.4187460  14.4350600
  11.2951638  70.0529724  65.7745439  10.7886865  70.5453068  66.4205489
  11.2148740  69.1404420  66.0521633  16.0176885  30.3581333  49.9587870
  15.8779621  29.7857237  50.7131481  15.4166448  30.0263429  49.2917824
  63.4461594  24.9990273  27.6975036  63.6945105  25.9232259  27.7177286
  62.5205088  24.9943733  27.9412007  17.2511439  72.5655393   7.6197194
  17.8891664  72.5180201   6.9077491  17.6294141  73.1896857   8.2390546
  56.2849712  46.1560249  13.6096001  57.0121527  46.7625380  13.7495446
  55.9254932  46.0072327  14.4841671  26.7521715   3.8224676  46.9421911
  26.8751168   4.0370429  46.0174894  26.9872880   4.6251553  47.4076414
  46.5953255   3.5157835  19.4652200  46.6583967   3.0875698  20.3189683
  45.7376242   3.9406532  19.4731498  63.2579994  20.7620382  22.8712344
  64.0839815  20.6740832  23.3468914  63.1919384  21.6969609  22.6768446
  57.1373749  18.2838166   7.6685017  57.4889421  17.5567520   8.1823194
  57.1388674  17.9626274   6.7667991  57.1259403  12.5229537  25.0309634
  57.7915907  13.0853844  24.6349692  57.3264742  12.5369060  25.9668183
  76.7690693  65.6188945   0.0793886  77.2760283  66.0963992   0.7360601
  76.5597569  64.7842936   0.4987478   7.6096266  23.1233382  22.3840690
   6.6723460  22.9588294  22.4874282   8.0181521  22.2664237  22.5066924
  80.6718098  52.1909610  19.2919921  81.1985146  51.7242030  18.6431884
  80.3075348  52.9358319  18.8137626  54.5875406  20.2129030  20.7765841
  54.6118021  20.5705857  19.8890555  53.7224102  20.4533935  21.1081696
  60.1353931  10.2851272  49.6099901  59.8973513   9.3589473  49.6519327
  60.7489395  10.3417969  48.8774776  52.2307634  17.8672898  33.8577247
  51.8972492  17.0732129  34.2753887  52.6655960  18.3449268  34.5641351
  18.0378259  64.6193347  34.2849970  18.7344278  65.1553760  34.6639967
  18.4596122  64.1544543  33.5623527   1.9432181  25.4805803  30.3192377
   1.2946147  25.8418083  30.9234381   2.6542777  25.1779151  30.8840609
   6.4998645   8.2406104  43.1181383   7.2833842   8.4535468  43.6250830
   6.7295760   8.4653068  42.2164869  23.8291090  39.9339653   3.4627199
  23.4756904  39.1272520   3.0878305  23.7846406  39.7978248   4.4091462
  40.2078152  19.6948218  10.5370343  40.3928900  20.6228065  10.3927290
  41.0707378  19.2843616  10.5929124  56.0994720   5.0669599  23.2167101
  56.7043400   5.7922202  23.3727860  55.2573347   5.3826851  23.5443664
  21.7714310  13.3512175  51.9478750  22.4872351  12.8560662  52.3462248
  22.2069454  14.0413916  51.4476585  50.5574036  24.2998719  21.5946436
  50.7715416  24.8958874  20.8769083  49.8344707  24.7276211  22.0535874
  12.0025600  72.4355547  54.1634464  11.6404356  73.2892320  54.4007921
  11.8396820  71.8849711  54.9293137  53.4840679   9.5403850  28.5986185
  54.3929768   9.2401850  28.5974908  53.1812906   9.3907338  27.7029824
  65.6488895  16.7931104   9.4461858  65.7957077  16.0823643  10.0702989
  66.3142252  16.6602087   8.7709844  44.5734549  26.3108301  45.7336330
  44.9244499  26.8092656  46.4716005  44.2499876  26.9768453  45.1269817
  44.2430639  26.2921476  56.3019085  44.3435431  26.5437484  57.2199678
  43.6015415  25.5819011  56.3170433  51.6668558  12.4746525  42.9595375
  51.2921715  13.1557107  43.5181093  51.1072350  12.4670279  42.1830034
  22.3658527  66.6966043   8.2774246  22.3555101  67.6100157   7.9914087
  21.5355695  66.5808831   8.7394536  58.0792904  10.0180101  14.9707329
  58.9072037  10.4818022  14.8454666  58.3175850   9.2303729  15.4596853
  70.2596760  36.1557651  48.4136295  69.5293474  36.7075396  48.6936140
  70.4074097  36.3994837  47.4998426  71.0008009  58.0775613  61.5936870
  71.6762646  57.4102288  61.7147184  70.2488526  57.7494317  62.0867789
  79.3498611  27.2324204  28.7291074  79.5645618  28.0085564  28.2116604
  80.0429440  26.6061044  28.5203123  63.5512829  18.7929952  19.6193647
  64.1073799  19.4817972  19.2553079  63.6833763  18.8535607  20.5654693
  55.0451183  31.3138962  18.2415128  55.9627867  31.5779614  18.1752872
  55.0689220  30.3572631  18.2187295  61.3281488   3.3119670  36.4509153
  62.1286440   3.3027080  35.9261751  60.6212044   3.2298756  35.8108187
  71.2186432  18.9026630  51.8380308  71.4257717  18.2804823  51.1407375
  70.2671099  18.9988160  51.7983675  30.3416252  25.3236103  51.4994669
  30.9290147  24.5705771  51.4350843  30.3027272  25.6738067  50.6094790
  79.7730589  32.9627228  52.7934217  80.1241684  33.7798858  53.1472492
  79.7389793  32.3712683  53.5452509  64.2024326  38.8385916  17.2091377
  64.3280792  38.4527826  18.0760837  63.6690283  38.1989622  16.7373478
  40.2658332  76.1659692  44.8112774  41.0869564  75.7755647  45.1105595
  39.7793735  76.3466505  45.6156111  25.5952144  42.8160191  26.9054317
  25.5670285  42.1697903  26.1998630  26.4575410  43.2232332  26.8229508
  27.6058067  76.2069703  29.9874163  28.2025493  76.8839506  29.6683097
  26.9725765  76.0924763  29.2787957  22.0006813  62.1699534  13.7463272
  22.3323406  63.0240999  13.4694338  22.0010866  62.2113977  14.7026289
  65.8589554   7.0632964  30.3563356  66.6112089   7.2779679  29.8047376
  66.1221123   6.2694192  30.8218884   7.8947856  62.5159460  63.3930851
   8.4610059  61.8603688  63.8003237   8.4533479  63.2870346  63.2948071
  73.2397278  60.5555040  57.3487759  73.9706381  61.1251718  57.5885332
  73.4546145  59.7108203  57.7444626  44.2111683  15.1201487  43.5934067
  44.2390060  16.0760581  43.6345673  43.7498045  14.8594284  44.3905306
  77.5963306  33.5740542   5.2852261  76.9760609  32.8909516   5.5399227
  77.1254110  34.3935943   5.4362804   1.8112963  47.4101210  44.3409824
   2.6151484  47.0750523  44.7381878   2.0795649  48.2170963  43.9016056
  69.3018675  41.9712448  20.4786921  68.8228226  41.6457891  21.2408137
  69.5909357  42.8473902  20.7337189  84.5652008   5.0052446   9.6608287
  84.6850300   4.3319774  10.3305936  84.7793674   4.5654121   8.8380808
  66.8393040  50.2177954  11.9557810  67.1337605  50.8915329  11.3429153
  65.9868383  50.5279779  12.2612727  71.1633301   6.6339725   8.3877307
  71.3144588   7.3815912   8.9660543  70.2220917   6.6515481   8.2145518
  18.1515235  20.7377839  36.6437840  18.3715266  21.6618443  36.7618561
  17.3047370  20.6357741  37.0782757  84.1132641  35.0791216  49.9540472
  84.5277405  34.7554779  50.7538509  84.0524578  34.3098879  49.3876410
  64.5963287  21.1673927  15.6782269  65.1138258  20.3660560  15.7575285
  63.7325668  20.8676386  15.3948677  61.6380787  46.4103651  41.6060972
  62.2753525  46.9051027  41.0909796  62.1470594  46.0446167  42.3295641
  28.4180951   2.0117401  52.6672840  27.7515769   1.5883695  52.1262264
  29.0804052   2.3082888  52.0430803  74.1641922  79.1258941  40.8957148
  74.6328504  78.3509184  41.2055635  73.3684535  79.1529390  41.4270353
  36.6214871  22.4492383  35.8432436  36.0265040  21.9772458  35.2606177
  36.6259456  21.9337630  36.6497779  33.1704582  79.0949639  46.5973854
  32.6678241  79.9082366  46.5507221  33.3517469  78.9786255  47.5300360
  12.1398605  75.4954825  22.7571940  11.3648523  75.6982497  22.2332859
  12.8775943  75.7316850  22.1948886  47.9799128   6.1532575  14.1443586
  47.6534748   6.3922697  15.0118518  48.4724283   6.9209146  13.8539064
  55.6315279  25.0974798  31.8417573  56.2921572  25.1705289  31.1529469
  55.0707626  24.3746734  31.5601134  11.4163035  43.3726263   7.1936691
  10.5618209  43.3231211   7.6222014  11.5779227  42.4834681   6.8782192
   4.6431464   7.9275483  50.4292727   4.6958560   8.7638998  50.8918428
   5.3106230   7.3815727  50.8447456  71.7545033  32.1775937  67.7056122
  72.5946808  31.8739414  68.0493069  71.1220932  31.9566655  68.3893347
   0.5449027  24.9520397  40.0731087   1.4664286  24.7713661  40.2585125
   0.5219382  25.8848739  39.8597455  46.9768429  25.0556040  44.1847372
  47.5820160  24.3279481  44.0415144  46.8417215  25.0718021  45.1322126
   1.1775511  18.3928287  31.7204595   0.9603614  18.7300253  32.5895739
   1.9922560  18.8380635  31.4875221   5.1533240  25.3798366  11.4946163
   5.1643485  26.1258483  12.0942652   5.9901732  24.9399042  11.6442156
  46.1141920  10.6773353  23.3445430  46.1590862  11.4767814  23.8690472
  45.3974342  10.8341348  22.7298021  10.2576083  24.9758935  38.4244633
  10.2454489  25.5512118  39.1893744  10.4424494  24.1070771  38.7811494
  50.4075003   2.2697133  39.1140008  49.5716906   2.0146334  39.5046306
  50.7965612   2.8690511  39.7509122  54.2949438   9.6329564   2.6932606
  54.9803925   8.9753991   2.8116146  53.9415169   9.4562691   1.8214217
  50.5335283  16.2934971  46.5846300  50.4422283  15.6484389  47.2859144
  50.3070831  17.1277833  46.9956350  63.9752769  15.5967188  35.0938034
  63.5526657  15.7012928  35.9462690  63.2807016  15.2729571  34.5202422
   8.3753413  28.1131220  21.5111804   8.4418887  28.7988210  22.1757269
   8.3854598  27.2955108  22.0088148  53.2057727  60.6990502  56.0733604
  53.4915317  60.9673307  56.9466305  52.6209797  61.4005254  55.7866859
  58.5615396  11.0354054  33.4884977  59.0896082  11.4207506  32.7892947
  58.9685726  10.1852596  33.6552620   6.3827628  18.1852937   9.8968083
   6.2311572  17.7021682   9.0845054   5.6250590  17.9780078  10.4437482
  40.9733976  46.4794679  68.6487373  41.4531816  47.3038526  68.7288570
  41.6504205  45.8234831  68.4827341  71.1744785  37.6103163  22.4267507
  71.6836262  37.2509599  23.1532931  71.6055679  38.4393501  22.2191525
  26.9109839   1.4797725  34.2382979  25.9643000   1.3507386  34.2963505
  27.2841758   0.6424698  34.5137715  81.9470787  17.8233719  47.5531912
  82.6346970  18.3106554  47.0993519  82.1131897  17.9836631  48.4821415
  40.8261013  15.6368947  37.5315070  40.3755951  14.7926533  37.5084829
  41.6421509  15.4859960  37.0545101  80.4201603  28.1532454  37.4141192
  79.6414900  27.8003311  36.9835973  80.1016998  28.9153028  37.8979421
   6.0569876  51.7012930  39.4943261   5.1642722  52.0075321  39.3346596
   6.5284651  52.4805593  39.7887588  76.3909245  31.2680316  15.4555202
  76.4609814  31.1326981  16.4005113  75.5160856  30.9501624  15.2322483
  60.3680261  53.9980298  65.2444474  60.4972728  54.6537632  64.5592166
  59.7188385  54.3880659  65.8298177  75.3049183  27.3594952  27.8733301
  74.8596334  26.5368652  28.0763960  75.6360054  27.2392678  26.9832969
  33.5002448  72.8187829  51.4646304  33.5283973  72.6214248  52.4008406
  32.9532268  73.6017162  51.4012397   7.1764010  21.8445015  17.2804415
   6.7686766  21.7213511  16.4232230   6.4591044  22.1251059  17.8487527
  65.2549124  48.2311583  14.3915069  64.8731661  48.9381266  13.8712215
  64.8670053  47.4331474  14.0324211  28.1572069   0.3721281  63.2887585
  28.8099207   0.8097502  62.7422417  28.3205761   0.7061048  64.1708023
  46.6476120  67.4847136   0.9769482  47.3528207  68.0212615   0.6149674
  47.0005239  67.1496818   1.8012300  75.1940298  68.5612297  11.4124465
  76.0671282  68.1876421  11.5322649  75.2871275  69.4768524  11.6755128
   1.9491985  53.3663601  64.7476340   1.1461045  53.8710529  64.6189568
   2.4544360  53.5121339  63.9478100  81.5452099  49.9946165  24.3078399
  81.8133545  50.4478884  23.5085440  82.2511768  49.3709564  24.4778347
  72.3695850  33.9579320  52.5379848  73.0321550  33.2705498  52.6068211
  72.2661924  34.0975356  51.5966797  36.5750278  19.8819395  51.6821314
  35.9575380  19.6108623  51.0028291  37.2009386  19.1599603  51.7387784
  57.5383711  39.8356342  20.8956265  57.2561359  40.3988218  21.6163182
  56.9016695  39.9996853  20.1999760  64.9245501  73.6724234   4.2504257
  64.3016624  74.3953180   4.1751552  65.7832956  74.0861225   4.1629708
  58.4019756  13.2786453  36.8751550  57.9413795  14.0644932  37.1693134
  58.0098295  12.5674391  37.3817539  31.3692975  41.4111805  55.9918594
  31.3614488  42.3580360  56.1319828  32.2856975  41.1596584  56.1066723
  80.7637691  26.6068673   2.9036173  81.5682507  26.0989881   3.0090183
  80.7628155  26.8654990   1.9820204  69.3781341  69.5594046  40.3332233
  69.8763717  70.2726577  40.7322979  68.8587535  69.9831186  39.6498942
  25.6427505  58.9329797  66.0756532  26.0745456  58.0963856  65.9027571
  25.0882842  59.0792388  65.3092221  71.4632702  50.5566645  30.9851789
  70.8406019  50.0966692  30.4222250  72.3228502  50.2788639  30.6686544
  72.8309727  14.1686428  28.6869502  72.1426010  13.6572850  29.1122580
  72.3984766  14.9814308  28.4251261  76.3400078   8.3913249  23.9611197
  75.5592775   7.9394287  23.6409926  76.1764717   8.5192484  24.8955297
  66.2573004  32.5115681  49.4643021  66.8459272  32.5045824  48.7095165
  66.8203259  32.7363610  50.2050447  71.0168409  49.8906422   3.5883883
  71.1918926  50.6029654   2.9734230  71.8840837  49.5762348   3.8438711
  77.2964001  50.3077984  25.9177446  77.6715946  50.9348631  26.5360093
  77.2618532  49.4838047  26.4036202  51.1293364  21.0638928  16.3406801
  51.8351030  21.7067385  16.4104736  50.8162689  21.1487436  15.4401135
  74.3712091  33.4382319  18.8246179  74.1260958  33.3698869  19.7473752
  73.5528278  33.2979083  18.3483863   0.8619231  33.3641887  28.5635900
   0.8347911  34.1670513  28.0431008   1.3619059  33.6017847  29.3444872
  15.7617396  53.2467842  24.8330760  16.2338179  52.7063036  25.4665256
  14.9404639  53.4681654  25.2720928  59.3900824  13.9649248  56.6687250
  60.2603960  13.5666680  56.6553736  59.3702888  14.5233798  55.8915710
  28.4759357  36.3834840  63.9465863  28.4000709  37.0165422  63.2326443
  29.4170024  36.3164332  64.1082526   5.3898543  67.0771790  49.6049166
   4.9617785  67.5278616  50.3328371   6.2608546  66.8595362  49.9369335
  82.7968311  34.4190884  32.7461004  82.2359467  34.1114879  32.0340419
  83.4580708  33.7338448  32.8432274  67.9327726  30.5198789   5.7238972
  68.0165243  29.5695996   5.8025503  67.9583216  30.8380771   6.6262990
  73.2954884  54.9842310  33.3886647  74.2298031  54.8002291  33.4857726
  73.2199335  55.3910160  32.5255036   5.5347842  74.2634869  32.2466588
   5.5386466  74.2512894  33.2037735   5.1662177  75.1171780  32.0194983
  51.5537691  30.3055358  19.6733785  51.2237358  31.1188078  19.2914116
  51.5927362  30.4810143  20.6135488  71.9205761  42.7303743  44.6873856
  72.8145123  43.0725574  44.6837425  71.7165422  42.6032639  45.6139088
  50.9407282  22.1465135   0.8852171  50.1611853  21.6790056   1.1851814
  50.9766865  21.9733596  -0.0555047  74.6637201  56.8910503  51.7519760
  74.6341276  57.3109388  50.8922958  75.2789927  57.4225903  52.2570896
  21.2324351  15.4650247  47.5361967  20.6611937  16.2328756  47.5541973
  21.3962477  15.3101230  46.6059256  15.5698127  21.9242692  10.8071935
  14.6173972  21.9530535  10.7160580  15.8767050  22.7162027  10.3657305
  23.2529849  42.8762436  19.8352814  22.5664061  43.5096025  19.6262479
  24.0277499  43.4111500  20.0080490  59.5671892  20.2161121  25.7929373
  59.5158529  20.6406498  26.6493034  59.3608093  20.9113407  25.1681995
  26.3855102  59.8132509  63.3428556  25.5033805  59.4772524  63.1841463
  26.8546989  59.6502763  62.5246061  12.3294085  33.7781882  53.4327984
  11.5692824  33.3986902  52.9918623  13.0827922  33.3823371  52.9946852
  61.7182446  35.2991366  66.8095446  60.8506250  35.1225662  67.1732664
  61.5694809  35.3897095  65.8683252  12.1005227  74.5558959  69.8635169
  12.4066474  73.8572055  69.2852843  12.0392062  75.3254777  69.2976395
  58.1264019  29.4712138  27.2328877  57.6824236  30.2482915  27.5724006
  57.6006746  28.7370586  27.5504732  59.9199438  16.1054778  54.2178726
  59.6836853  15.3451633  53.6865187  59.8043919  16.8529272  53.6311865
  80.0337505  14.4349360  29.8218489  79.5397377  15.2323961  29.6314907
  79.3693018  13.7992942  30.0877285  62.6539612  30.2114248  37.1670818
  61.8815899  30.5841255  37.5922537  63.3181286  30.8975601  37.2329307
  81.7402649  42.3748016   7.9092640  80.8310986  42.5258446   7.6507360
  81.6778755  41.8855143   8.7295920  59.7978640  27.6409626  33.6520290
  60.5652332  28.0834913  34.0147161  59.1109705  28.3075571  33.6598921
  54.7437143  43.0416870  22.5811148  53.8792706  43.2651949  22.9260898
  55.0769806  42.3760748  23.1828880  69.6670055  20.5701208  13.0347717
  69.8794651  21.4248610  13.4096241  68.9888430  20.7553673  12.3851478
  30.2427405   3.9331037  18.4753561  30.8415049   4.2594072  19.1471052
  30.1891726   2.9915491  18.6391759  33.3223941  70.4413873  61.5101046
  33.9682605  71.1040121  61.2651379  33.4414508  69.7418481  60.8676875
  39.1823339  23.8383794  49.4253302  38.2674479  23.5739231  49.3289948
  39.6829605  23.0989671  49.0805531  78.4061289  31.9434142  -0.0801427
  79.3111277  31.6898084  -0.2615100  78.4443140  32.3723269   0.7747301
  84.3036842  45.9531689  50.5434465  84.6210003  46.7425299  50.1047564
  84.5523167  46.0722160  51.4600945  71.3728094  22.0717263  16.0526347
  71.9258833  21.3097000  15.8804262  71.2654066  22.4879098  15.1973641
   3.0597800  47.7753210  12.9334283   2.2436827  47.3940325  12.6096308
   3.3589095  47.1644258  13.6068976  72.8242970  29.4048548  61.6082907
  71.9893646  29.5976305  62.0348549  73.4400892  29.2834949  62.3309994
  55.5737066  59.5269012   8.9574242  55.5243301  58.8455057   9.6278709
  55.1469517  59.1413975   8.1922454  76.7105436  29.6757269  27.7337646
  76.2041044  30.4091692  28.0827808  76.2633181  28.8968349  28.0647445
  80.8616066  37.8648853  64.7088861  80.7679844  37.2752190  65.4570580
  81.1662769  37.3021269  63.9970493  78.2199049  21.6326022  46.8724298
  77.9327250  21.9937515  46.0337830  78.9924717  22.1483898  47.1033669
  72.0622921  63.5195398  19.0517366  72.0015144  62.9433632  19.8136771
  71.4453459  64.2275476  19.2370284  74.2294216  51.9825745  33.2795048
  74.8052645  51.3069725  32.9214573  74.6435356  52.8081226  33.0281043
  72.7528620  50.1928186  46.8963051  72.6118469  49.5088625  46.2416649
  73.1858015  50.8985376  46.4159298  73.5116529  49.2442989  34.5248532
  73.7178326  50.1733541  34.4220138  72.8340340  49.0754461  33.8702130
   5.9177512  15.4487264  25.3335714   6.8053454  15.1706505  25.5595875
   5.4295558  14.6317625  25.2312922  53.4011936  79.9368286  33.3541322
  54.3512297  80.0471306  33.3928967  53.1356621  80.4203224  32.5718546
  60.4011106  52.4954557   8.2337916  60.2991295  53.4235287   8.0228031
  61.1682129  52.4626637   8.8053769   2.6691550  33.3003807   1.3502066
   2.3007125  32.7627277   0.6492024   3.3144873  33.8554239   0.9123626
  14.1714305  27.5773978  24.3202901  13.6277598  27.5883842  23.5325503
  14.3643016  28.4992814  24.4910645  71.5491104  52.5562286  23.7029910
  72.1252489  53.0233669  24.3080378  71.0559988  51.9531775  24.2592287
  33.2405580  28.1972261  60.5160136  33.2155288  28.7436529  59.7305030
  33.9229644  27.5505110  60.3362603  82.8534698  49.5094347  33.6226821
  82.4586678  49.0747976  34.3786335  83.7391186  49.1494703  33.5749769
  66.5119123   7.2941828  42.1432638  67.3175812   7.3874050  41.6348886
  66.7638969   7.5283527  43.0365133   4.0274447  27.2208214   9.7195739
   4.7252578  27.0934272   9.0768832   4.3591040  26.8097854  10.5178750
  80.2212429  36.6757011  18.3548057  80.2736187  36.0657096  19.0906036
  80.9068584  36.3849902  17.7534235  45.2697134  64.4901800  47.4276209
  44.8248720  65.1447678  46.8892336  45.3189611  63.7142229  46.8693256
  58.7152057   0.2690305  57.6248741  57.8564696   0.6897344  57.5823355
  58.5462337  -0.5793963  58.0345821  22.7228273  20.2697416  46.5051461
  21.9619812  20.0492998  47.0425058  22.6554645  21.2150856  46.3709355
  45.2609873  57.5758696  30.9699512  44.8909712  58.1572390  31.6342783
  45.2329254  56.7066717  31.3698816  18.2804589   5.3389921   9.5189482
  19.1586928   5.6696691   9.3303090  18.0589299   4.8005952   8.7591529
  58.5847330  64.5558548  57.0808744  58.0626535  64.2831850  57.8354025
  59.4902563  64.3921566  57.3444271  53.9067936  65.1166248  40.9439373
  54.1722393  64.7924137  41.8045568  54.2727566  65.9998798  40.8974075
  17.9584903  37.8893256  42.8684235  17.1998709  37.3114705  42.9509926
  17.5842971  38.7678719  42.8023195  49.7675662  77.0830611   1.4007902
  48.8230853  77.0725898   1.2456273  50.1109176  77.6923708   0.7472705
  73.8097286  22.7164340   0.3984362  73.8390875  23.5494685   0.8689947
  73.6027813  22.9584217  -0.5042524  73.6189162  26.6381921  65.4522943
  72.6839577  26.5337171  65.2757549  73.8550555  25.8617296  65.9598160
  22.1422309  42.7369070  11.0505974  21.5199679  43.3365345  10.6389308
  21.6562575  42.3503494  11.7790389  71.8065262  30.7182693  20.4657912
  72.0195723  30.2816772  21.2905502  71.8408585  31.6520834  20.6732726
  77.8021526  54.2481756  55.8301926  77.9376888  53.8171339  56.6740322
  78.6627960  54.5973015  55.5986071  81.4823532  66.0460329   5.4909766
  81.4482689  65.2280140   4.9950823  81.5113258  66.7304039   4.8223734
  75.0970078  51.9852161  21.3222647  74.9278307  51.9640684  22.2641587
  74.2308569  52.0772457  20.9253526  70.9479809  49.9957514  20.4070711
  71.5181875  50.6549168  20.8027935  70.2503443  50.5015993  19.9903584
  17.1230811  26.3364077  47.6707315  17.9742831  25.8998275  47.7035475
  17.2556514  27.0753765  47.0769405  73.2444000  45.2308035  25.9944248
  72.3844814  45.6455564  26.0633278  73.2553720  44.8464108  25.1178670
  73.7390041  56.4974403  37.8764224  73.4184408  55.6928396  38.2839561
  73.7204409  56.3140297  36.9371438  13.7598151  32.9327989  22.0200562
  14.5410269  32.7761197  22.5505185  13.4844607  32.0611954  21.7359424
  65.8868504  60.9915495   9.9592823  65.3144693  60.5900478  10.6130481
  65.7054663  61.9290638  10.0255680  13.5437506  76.6357279  55.9851980
  14.1506022  76.4201212  56.6933537  13.9344138  76.2398624  55.2061558
  77.3179280   0.4141988   9.9446279  76.4619433   0.1469316   9.6098298
  77.1424233   0.7188215  10.8349299  13.4101287  35.1621956   0.9265851
  12.9861776  35.7012314   0.2587985  14.3417636  35.2018398   0.7104396
   5.0228804  35.4794097  15.2835333   5.6213778  34.7327614  15.3070283
   4.2934817  35.1846313  14.7382796   3.3605307  72.0972776  62.5759506
   3.2584113  71.7866325  63.4755659   3.2231635  73.0429077  62.6320457
   4.3622035  23.2857561  48.6836863   5.1105231  23.7626958  49.0425396
   4.2392749  23.6556983  47.8094673  74.6247959  31.9439793  33.0217695
  75.3204823  31.3048768  32.8674936  75.0865793  32.7680421  33.1763935
  53.7539291  76.7810965  66.0212946  53.8232327  77.6110554  66.4930916
  54.2836189  76.9080687  65.2341843  73.7007761  71.7543602  57.4381113
  73.6585331  71.6899824  58.3922100  73.4892893  72.6687860  57.2501564
   2.1070307  57.5835800  33.3855247   2.6009196  58.3097839  33.0048180
   2.7730292  56.9360447  33.6165404  83.8165951  80.1952076  51.3647652
  84.1381645  79.9758673  50.4902887  84.3152714  79.6277857  51.9526339
  83.4135056  40.9252644  26.5658712  82.5350952  41.3006592  26.6267657
  83.9998627  41.6810894  26.5997720  66.8369341  55.6490469  44.2931890
  66.5539408  54.8303461  44.7004604  67.7125645  55.8028793  44.6479273
  51.4218916  62.6420079  52.4038553  51.4225019  61.8802522  51.8242359
  51.5064205  63.3914934  51.8144846  19.5368499  62.5904322  32.7603936
  20.4346579  62.5610304  33.0910134  19.6332949  62.6369238  31.8091989
   5.9780997  75.1175547  21.0222530   5.1287860  74.7330236  20.8053565
   6.1004752  75.8098650  20.3726649  71.4472662   7.3967638  28.9293027
  70.7009684   6.7991342  28.9751887  71.6803395   7.4180689  28.0011582
  67.2352123  25.1018667  46.5902567  66.5240002  25.7424951  46.5925550
  67.0309305  24.5146060  47.3180151  74.8794270  63.6182070  23.2787395
  74.3032885  62.9572630  23.6627364  75.6739044  63.5820007  23.8113952
  61.2754310  32.8151079  52.4493755  60.8064235  33.4530540  51.9115258
  61.9343818  33.3314653  52.9134823  81.2195301  24.1624999  24.8867559
  81.1459160  24.9322748  25.4509020  81.9316864  23.6511922  25.2709818
   1.6440505  25.0761867  52.0384073   2.5646228  24.8334813  52.1377039
   1.4314193  24.8444271  51.1343575  69.6819496  23.2005310  13.9612007
  68.9099741  23.1972003  14.5271289  69.4591713  23.8079762  13.2557833
  59.9983549  54.5732689  15.8645010  59.3399096  54.0109682  15.4564595
  60.8283424  54.2843485  15.4851866  46.8872118  74.0114260  44.0339041
  47.8099728  74.2436075  44.1380072  46.8963861  73.2440519  43.4618139
  17.1715564  51.1901855  25.9602737  17.0226210  50.7263660  26.7842412
  16.9339675  50.5571508  25.2827454  73.3370352  35.2615309  10.6332886
  73.1567669  35.5534220  11.5268958  72.6770496  35.7035732  10.0992012
  64.0123129  77.8493166  39.4265962  63.4340668  78.4836674  39.0029621
  63.4681082  77.4418163  40.1004028   2.7029211  24.5587822  58.8222504
   1.9927008  24.4163700  58.1965125   3.2648833  23.7899395  58.7257946
  13.9051932  40.5058193   6.8101388  14.1811389  39.8486114   7.4490136
  12.9619426  40.3705311   6.7195350  33.2888526  67.9590082  26.8607807
  32.9683799  68.4452820  27.6204300  33.2529181  67.0414877  27.1311498
  61.2824501  26.1763998  49.6018863  61.2711967  26.3738962  48.6653495
  60.3596843  26.1689277  49.8561955  83.0296230  35.4817343  23.2687879
  82.9853630  34.5900726  23.6140609  83.8161087  35.8541894  23.6674643
  83.7254715  54.7222567  15.3271699  82.9093742  54.7303534  15.8273208
  84.3187714  55.2822447  15.8278108  48.1680263  76.4490888  21.6347694
  47.5041784  77.0521955  21.3004065  47.7832855  76.0883058  22.4335432
  74.9721622  44.6802807  23.3882546  75.9185219  44.6069574  23.2647562
  74.6475649  45.0212765  22.5548339  64.8678641   3.6622514  52.2920704
  64.4642882   4.1273584  53.0248976  64.2768054   2.9295530  52.1187592
   3.7260550  74.6591997  27.1200180   3.4502619  75.1761007  26.3630605
   4.6760386  74.7716475  27.1535516  67.2864021  38.2431217  67.3861147
  67.2938598  37.3084637  67.5924832  68.0652870  38.5905739  67.8206900
  17.8484362  57.8244925  46.6240168  17.6476020  58.2840729  47.4392986
  17.3388308  58.2852793  45.9575272  81.2476635  42.5074911  34.6795702
  81.8314648  41.8089151  34.3839359  81.0138512  42.2615099  35.5745888
  27.1632594  31.6835713  14.1205442  27.4425334  32.1257305  14.9222505
  26.2586135  31.9689012  13.9923429  75.1826954  66.6427422  42.6186037
  75.3365755  66.0658932  43.3667994  75.8609056  66.4023495  41.9873571
   2.5311774   8.4990507  30.5587006   3.1247920   8.7171710  29.8401713
   1.7393225   9.0052915  30.3772593   7.0898265  75.3608942  51.7129421
   7.6583594  74.6101141  51.5416670   7.6853961  76.0502148  52.0068121
  10.5891818  56.7352676  30.4671550   9.9024600  56.1697769  30.8205104
  10.6303710  56.5099287  29.5377707  69.8545694  11.9182551  18.8334012
  69.0470314  11.7614555  18.3439851  70.4835081  11.2993979  18.4623516
   7.5734824  70.5522966  26.7771435   8.2295722  69.8831177  26.5822768
   6.9824046  70.5345774  26.0244465   7.8620547  10.5059564  60.2406979
   7.1298999  10.2196753  60.7868004   8.5870761  10.6234396  60.8545113
  11.9777125   8.5930121  41.0748816  12.9203814   8.6783582  40.9323311
  11.8877810   8.4807318  42.0212078  79.1978442  11.6203107  33.7170553
  80.0207650  11.7629518  33.2494140  78.6624180  11.1100378  33.1094599
  58.2857752  77.0446348  22.6511574  58.5138893  76.9093275  21.7314339
  57.3626089  77.2970438  22.6343298  64.0341330  63.2644272  10.0713038
  63.7184954  64.1596079   9.9477780  63.7063026  63.0118275  10.9344089
   5.0349921  50.6373835  24.8302889   5.4108733  49.8175430  25.1509261
   5.4910296  51.3191080  25.3237581  75.6358147  78.7897062  10.1861978
  76.1406040  79.3249083   9.5738441  75.8790684  77.8886700   9.9736005
  79.2673588  44.2206430  38.0806589  80.0549412  43.7024975  37.9149151
  79.5544910  45.1290798  37.9883313  80.8794212  61.1462498  53.1883669
  80.3879642  61.8265676  53.6486530  81.2144089  61.5816069  52.4044800
   8.5329455  68.5696602  47.3604536   8.9020461  68.6564159  46.4815521
   8.0460852  69.3823910  47.4970675  64.0933704   1.1091092  18.9312732
  64.0817928   1.9824815  19.3228328  63.1849766   0.9493224  18.6753118
  81.1263180  50.2202463  42.0179892  82.0173550  50.4990005  42.2291088
  80.6472206  50.3049088  42.8423262  40.0813545  35.3133293  65.2103520
  39.1316236  35.4227968  65.1628507  40.3344835  35.0334354  64.3306840
  79.0551949  47.9011250  45.3705454  78.6597490  47.5453615  44.5747519
  79.1846704  48.8299942  45.1790380  83.7547493  54.7897673  39.3428564
  83.5316086  54.6034622  40.2548504  83.2533741  54.1494656  38.8380003
  30.6965213  18.9928140  28.5223889  30.8135085  18.0429258  28.5066223
  30.8989101  19.2739095  27.6300550  65.9326233  24.7005888  64.2843462
  65.9580959  25.5600353  63.8637096  65.8792080  24.0797897  63.5577214
   3.2908457  59.2833996  29.8366308   3.6542338  58.6354923  30.4402852
   2.3426741  59.1990423  29.9370813  83.5381222  70.1842928  21.7545509
  83.4199333  71.0843229  22.0582104  83.9374065  69.7313976  22.4973083
  18.5297888  60.2526283  42.9059601  19.1354483  59.5294189  42.7435827
  17.7719611  60.0588512  42.3542500  67.6736832  74.3778086  20.0982094
  68.3912802  74.9046230  20.4499841  66.9068432  74.9476194  20.1574421
  74.9922609  39.8168778  21.1872959  75.5292845  39.2988062  20.5877638
  75.5062532  40.6086397  21.3459086  11.9779795  65.3216219  47.8479671
  11.6370028  65.5181074  46.9754124  12.1749228  64.3852377  47.8228903
  72.0531949  59.6520847  64.6828262  71.8330344  60.0634414  63.8470352
  71.9536789  58.7138313  64.5215589   3.7102813  29.1792512   7.3330969
   2.8858584  29.0063977   7.7877176   3.4596938  29.7075248   6.5752304
  80.0839676  10.4657360  67.4207338  80.9318985  10.8893581  67.2873328
  80.1874221   9.5959278  67.0347855   2.1323317  43.0990314  65.6227493
   1.2091845  43.0081844  65.3865719   2.4297541  43.8673115  65.1353931
  29.5331401  62.5829458  47.4026537  30.1703185  61.8837595  47.2564554
  29.3947047  62.9658318  46.5363598  69.8432875  53.4390736  33.7012672
  70.1601219  53.2353163  32.8213072  70.6301594  53.4340858  34.2462778
  73.0836296  75.6745720  11.2877345  73.6433506  74.9074602  11.1673903
  72.7411556  75.8606958  10.4134917  65.0503063  40.6784725   5.1750386
  65.6138945  40.6539392   5.9483421  65.6438351  40.5200100   4.4409761
  64.6749115  26.4050245   7.1144462  64.1314554  27.1924615   7.1432394
  64.0521717  25.6815124   7.1848196  80.2483463   8.9881462  14.9887192
  80.9622478   9.4028735  15.4730558  80.3604126   8.0516696  15.1520717
   1.0719126  35.7051754  26.9123435   1.1928958  35.5688119  25.9726620
   1.2150115  36.6431570  27.0386267  60.4728651  55.3576374  22.1544051
  59.9114275  54.6507263  22.4726868  60.6985998  55.1002121  21.2605333
  69.6977854  36.7221832  11.3214564  69.0549421  37.3599243  11.0111785
  69.6506739  36.7795110  12.2757757  74.7840977  38.2747912  56.5956688
  74.7486401  38.9861655  57.2351408  73.8954639  37.9192424  56.5834093
  65.4527580  12.5303068  45.7052279  65.5820142  12.7784338  44.7898245
  66.0042678  11.7570104  45.8239412  22.3775023  31.3031864  56.5752411
  22.6706332  30.6661725  55.9236908  21.9359702  30.7775831  57.2423410
   4.5974940  69.9758816  61.4105701   4.4189662  70.8779383  61.6763783
   5.2686042  69.6741486  62.0227814  23.8432521  44.7725534  22.3391294
  24.7319049  44.4992781  22.1114421  23.9003009  45.0304651  23.2591605
  83.1599426  55.6059647  22.1401763  82.2729588  55.9489250  22.2491312
  83.6422253  55.9452343  22.8941917   3.2403392  10.8813000  34.7081518
   2.7663916  11.0517371  33.8941741   3.2262820   9.9284744  34.7984767
  30.7241683  75.8423070   8.8263654  31.5100246  76.3105277   8.5445070
  30.9333186  75.5319838   9.7073793  66.1311531  59.6242285  28.4367847
  65.6944704  59.9517488  27.6504827  66.5936947  60.3849506  28.7883377
  76.6401850   4.0223207  17.4874759  75.7603966   3.9474477  17.1178794
  77.1117484   4.5832052  16.8716323  12.7288264  23.3977151  29.0621257
  12.8258628  24.3193507  29.3017125  12.6425761  22.9405737  29.8986745
   7.9390258  38.1238198   7.6484936   7.9628485  38.8690495   7.0482469
   7.0352954  37.8112006   7.6064438  75.7260847  71.9817972  53.5473347
  75.4533815  72.8102207  53.1528950  76.6695070  72.0776796  53.6776924
  81.0290241  25.2116179  62.6544142  81.3417053  25.3136373  63.5533333
  81.3488960  24.3503475  62.3858547  76.0211802  48.4879971  46.5957928
  75.9640503  47.8373814  45.8960342  75.9338331  49.3295336  46.1481190
  48.2014322  67.4773407  29.9988890  47.5992107  68.0409431  30.4846001
  47.7724457  66.6217232  29.9878097  78.0786705  48.4541178  30.6266046
  78.6019468  48.1781149  31.3790917  77.6510096  47.6525164  30.3253150
  71.6930676  74.7375250  44.9015188  70.9802389  75.2996635  45.2050114
  71.7306280  74.0299034  45.5450153  37.4593467  20.1242828  20.6994343
  36.6144770  20.1588106  20.2508330  37.6546019  19.1899359  20.7708406
  13.2965106  68.6493826   2.0725131  13.9301795  68.8950729   1.3984701
  13.3598632  69.3458605   2.7260682  72.3774290  29.8808479  59.1171646
  72.3922825  30.8335781  59.2083502  72.4999857  29.5530343  60.0080919
  33.1029910  52.5291061  27.3978329  32.2808474  52.0644283  27.2416854
  32.8373641  53.4293365  27.5856280  70.3468227  54.6717596  56.1232185
  69.4459248  54.4125795  55.9297276  70.6363726  54.0508127  56.7916679
  70.2473450  50.5436707  35.8251882  70.4602718  50.1163912  34.9955320
  70.9856033  51.1305761  35.9887338  63.0350065  61.0159636  20.7973766
  63.0394650  60.2498102  20.2235985  62.3069715  60.8603811  21.3990331
  49.3878651  52.6454306  59.9275589  48.5532808  52.2847414  60.2269125
  49.6320200  53.2773495  60.6037951  11.1621970  68.7490177  48.3356333
  11.2425250  68.2104158  49.1228390  10.2186221  68.8354731  48.1998444
  51.3254166  59.1539621  28.0693865  50.8756351  59.7071886  28.7080359
  51.0010099  59.4554329  27.2207952  72.7033663  10.2734518  28.0604672
  71.8792105  10.5888534  27.6896262  72.4709225   9.4551408  28.4992933
   0.1169509   9.6116877   4.0038419   0.2806395   9.9496192   4.8843187
   0.6425971   8.8134092   3.9521179  62.9184914  24.0502834  40.6671858
  63.7562323  23.5903144  40.6137943  62.5651073  23.8058019  41.5225124
  79.9767017  58.1860352   6.2646788  79.2754650  58.4127474   5.6538606
  79.5539570  58.1809711   7.1234536  23.0536725  69.8763400  67.1724891
  22.2654321  70.1437503  67.6451399  22.7267291  69.4976455  66.3564438
  67.8100538  62.9867649  44.7669268  67.3565483  63.5159779  44.1107988
  67.3558998  63.1809235  45.5868483   4.8650855  33.6464787  35.0413346
   5.4555339  32.9150438  35.2219152   3.9905471  33.2953691  35.2090836
  67.1521057  -0.0513558  63.6345030  66.7737354   0.2262445  64.4687749
  68.0884422  -0.1382069  63.8132561  12.9755311  21.9655599  32.1615410
  12.2879939  22.1891584  32.7888608  13.5731320  21.4012994  32.6521707
  61.4149809  54.9682140  27.6589823  61.0263920  54.5581150  28.4316730
  62.3486567  54.7681189  27.7256274  21.7079848  49.8155260  27.7084303
  21.3891143  50.5074024  28.2879639  20.9340495  49.5380783  27.2182345
  71.0056210  21.8451023  49.2995977  71.1305332  22.7544808  49.0281868
  70.0622559  21.7006159  49.2260218  47.1732950  59.7731209  52.2440481
  46.2529039  59.7444487  52.5053740  47.2584391  59.0789795  51.5904808
   2.5040358  43.2809496  33.0058002   2.6382560  42.7553558  33.7944484
   3.3658618  43.6513615  32.8152847  13.0558032  58.2691431  14.0100086
  13.4224051  58.9828920  13.4880888  13.6752814  57.5480461  13.8982737
  31.1179370  20.6454372  43.2282257  31.6283149  21.3728929  42.8724813
  30.2575320  21.0231376  43.4106207  32.3105258  64.6196222  44.5651293
  32.8654212  64.0947437  45.1420355  32.6255149  64.4203663  43.6834764
   3.9700812  24.1389346  45.9539938   3.4417552  23.4782243  45.5061531
   4.7644538  24.2095280  45.4246330  65.8096838  26.6869617  18.4181237
  64.9204302  26.5786505  18.0808854  66.0331583  27.5956774  18.2168150
  64.7766972  43.6559105  54.3391895  65.7046509  43.4791136  54.4937086
  64.7697830  44.4524193  53.8083744  84.1522884  50.6072998  42.2496128
  84.4147968  49.7272968  41.9795799  84.1509247  51.1161852  41.4388943
  58.5059478  69.5789558  66.3171343  58.2898166  70.5003315  66.4606068
  59.0591838  69.3439084  67.0620618  29.2598647  23.6254096  45.3534698
  28.5088843  24.0349579  45.7830429  29.5803088  24.2913198  44.7451019
  69.4703054  59.7131777  23.1977272  68.7503910  59.8311424  22.5780177
  69.0817881  59.8945189  24.0535331   8.6405867  77.6224041  13.5005140
   8.0576628  78.3187914  13.8029623   8.1127852  76.8260098  13.5589504
  46.0027175   8.8066568  13.8995016  46.4695697   9.4170370  13.3287835
  45.5539374   8.2121839  13.2983124  22.5082225  68.4172964  65.0174046
  22.1092051  68.6746073  64.1862583  21.8553179  67.8534269  65.4321289
  15.6997031  77.9507875  33.0676985  15.8199996  78.7518167  32.5576878
  16.3661402  77.3510408  32.7324462   3.1364996   5.7573171  68.3392743
   3.8138277   5.5720373  67.6887985   2.7647765   6.5959259  68.0657904
  74.3201637  47.9829979  27.1255779  73.8420868  48.2230425  26.3318205
  74.7499084  47.1564579  26.9056153   2.6286143  53.8458300  47.9794359
   3.5571402  54.0508032  48.0892229   2.1793193  54.4414234  48.5791349
   5.1754874  68.9937973  37.3494649   5.5473727  68.1134272  37.4032307
   5.9358233  69.5752764  37.3477483  74.6893835  28.5372019  31.7992830
  74.2039919  29.3252206  32.0435166  75.5032682  28.8659239  31.4174914
   0.8650702  80.3131294  65.8491659   0.7653922  80.3988457  66.7972946
   1.2068385  79.4279242  65.7233191  24.3785061  33.8716408  54.4419754
  24.9912990  34.5926281  54.5865274  23.5724319  34.1518493  54.8755277
  57.1028376  56.9821453   6.9077426  57.9308176  57.4621391   6.9247240
  56.4310646  57.6610613   6.9712025  38.6268764   7.7326669  36.6572452
  38.4507613   6.7918100  36.6561198  39.5818000   7.7976026  36.6455054
  60.1165199  59.9827623   3.3136773  59.6222639  60.3814220   2.5974298
  60.4660034  60.7255268   3.8060141   6.0512370  75.6855583   5.9038293
   6.6374892  75.3111982   6.5613908   5.1946276  75.7059193   6.3304895
  60.0597000  57.0476437  41.0179710  60.1608324  56.3190222  41.6304302
  60.9364653  57.1813202  40.6578970  66.2241888  53.9268541  15.1828945
  66.7607880  53.1372833  15.1130843  65.4146719  53.7078667  14.7214222
   2.0915908  49.6339083  42.8796625   1.9560546  49.5774412  41.9337893
   2.4004668  50.5282640  43.0243921  30.3550010   5.5007829  16.0222030
  30.5553298   4.9347391  16.7676556  29.4001918   5.4822721  15.9571838
  78.1962729  28.9072037  61.2806892  78.4283400  28.3484697  60.5389357
  78.9538288  29.4811392  61.3944530  52.6393371   1.6808023  50.0963116
  52.0728927   1.1154356  49.5712042  53.5238032   1.3549986  49.9295998
  29.5308166   3.2516756  49.9496460  28.5938506   3.1547250  49.7795773
  29.8614459   3.7417307  49.1968012  73.0356741  62.5377131  16.7703211
  72.6951456  63.0144405  17.5272918  73.1008530  61.6303825  17.0682013
  76.4198589  59.6407270  24.9673653  77.1587563  60.2014399  24.7310090
  76.3249302  59.7555208  25.9129047  81.6950035  64.6608019  12.3000193
  81.6686726  65.4714584  12.8083229  82.5919151  64.6147728  11.9688642
  65.7582331  75.7915211  16.8178320  65.4238176  75.5779219  15.9467554
  66.1796665  76.6441822  16.7101502  84.6155548  52.5769138  61.0345602
  84.2295265  52.1123552  61.7771244  85.4294872  52.1064281  60.8546114
  17.1850222  57.8031635  18.2502687  17.6338691  58.3107376  18.9263952
  16.2543124  57.9229259  18.4391296   5.9444003   1.9972887   6.9893104
   6.2766795   2.8119554   7.3663259   6.4627366   1.3104334   7.4085701
   8.7402076  62.0062256  39.5160961   9.3583125  62.1316338  38.7960672
   8.6482829  62.8751516  39.9069333  16.2532157  67.8246307  32.6345658
  16.1913985  68.5526371  33.2529640  17.0590609  67.3699236  32.8796935
  82.3315334  70.4618406  68.3550406  81.7662525  70.2244377  69.0901136
  82.1741199  71.3968801  68.2240915   3.6661738  63.4524202   7.7487391
   3.7246150  64.3694925   7.4808031   3.0177325  63.0708647   7.1569884
  44.8060621  56.5060172  28.4663153  45.2642358  55.7378946  28.1252933
  45.3301681  56.7835317  29.2176676  12.9445197  53.8631469  69.3542315
  12.4288537  53.0601031  69.4279896  12.4568345  54.5087725  69.8656652
  84.0030106  60.4408699  59.4378293  84.1091164  61.0385877  60.1779003
  83.7237748  61.0023242  58.7146223  31.3000703  33.0604100  12.7884543
  30.8150625  33.6392164  12.2002494  31.9920540  33.6131668  13.1515646
  56.9845234  73.6544297  14.5046616  56.3073948  73.3696727  15.1183724
  57.6695589  74.0269868  15.0597823   5.2240485  19.4607890  23.2412839
   5.0917643  19.1193044  24.1256595   6.0984343  19.1582501  22.9960179
  34.3801988  63.3967898   8.3006084  34.4390501  62.6291261   8.8693440
  33.7061370  63.1693099   7.6602018  41.9627619  23.4531283  16.8186116
  42.1878099  23.5404658  17.7448714  42.6633072  23.9143777  16.3573992
  36.9531931  54.5902095  44.2828512  36.1972917  54.7564755  43.7196445
  37.6699127  54.4095502  43.6746454  39.9831820   8.9775556  19.2491686
  39.2934155   9.1492438  18.6080933  40.4987383   8.2697845  18.8625240
   8.1873634  52.9132491  55.6738079   9.0501859  52.8319091  55.2674103
   8.3654430  53.2671171  56.5451849  31.5345586  74.3313603  17.0184398
  31.1391653  73.6504791  16.4741075  32.4763406  74.1729788  16.9536364
  22.0719504  14.2503560  14.4917107  22.3655295  15.1551127  14.3846655
  22.8742671  13.7307143  14.4417822  25.5086088  15.8201766  21.3275981
  25.5887175  14.9157774  21.6307092  25.1848221  16.3004053  22.0896840
   2.2333706  65.7618556   6.4589942   1.9448937  66.3585542   7.1496201
   3.1487216  65.9966288   6.3065344  31.9682997   3.3069000  39.0627742
  32.0669955   2.7781278  38.2710099  31.0500735   3.1983215  39.3103814
  58.1688547  11.5652239  20.4263520  57.2891474  11.6985261  20.0733972
  58.1380129  11.9550943  21.3000107  47.2063541  37.7710772  15.2079105
  46.7140627  37.2465491  14.5764410  48.0224609  37.2876358  15.3363061
  68.3599377   1.1140694  15.7717156  67.8263092   1.0967599  16.5661776
  67.7477551   0.9012910  15.0673091  43.0737829   3.9248350  39.4372368
  42.9271984   4.3380308  38.5863471  42.6425791   3.0731222  39.3673635
  39.6731901  19.6695507  41.2503719  39.8491383  20.5863428  41.4619541
  39.0868735  19.3715096  41.9458151  18.3998468  54.0845042  49.4320846
  17.9851701  53.5273534  48.7734080  17.6758983  54.5758110  49.8203433
  78.3889599  69.1663168   4.8616534  79.1500802  69.7126601   4.6655989
  77.7540750  69.3865464   4.1799980  25.1249136  76.4965866  15.7949436
  24.8778022  76.4404447  16.7179918  26.0233797  76.1676262  15.7670915
  42.3366928   3.1534976  11.8614447  41.5834522   2.7157804  12.2580087
  43.0832100   2.8715709  12.3900890  34.3837762  17.7974331   4.9811646
  34.0749049  18.3079875   5.7296056  34.1134405  16.8999958   5.1754767
  49.1466618   3.1371561  47.7000713  48.6140156   3.7859100  47.2400284
  49.8994446   3.6316425  48.0241585  57.7661943  29.6179557   1.6397457
  57.3498058  28.8871646   2.0966847  57.3774147  29.6063280   0.7651342
  82.5024509  20.2169800  11.3061965  82.0442390  19.5741749  11.8475616
  83.3604050  19.8249888  11.1434436  36.4220073  51.6033751  67.8010020
  36.2386062  52.2925550  67.1625448  35.5587222  51.3196784  68.1018323
  13.3602203  55.3089724  53.6187410  13.2815422  55.4032574  54.5680332
  14.2951454  55.4167853  53.4440184   6.2948912  21.3105083  33.4507585
   6.5410632  22.1010971  32.9705477   6.6713160  20.5934095  32.9405522
  71.5989693  52.2455209  64.6154720  71.4994582  52.7233702  65.4388732
  72.3945149  51.7266589  64.7342998   7.9600924   6.3521147  36.9024158
   8.8446254   6.7056030  36.9966102   8.0466861   5.4263139  37.1296263
   2.1441764  39.5081544  11.5749323   1.2086791  39.6879506  11.4813852
   2.5194663  39.7443438  10.7266378  24.5207813  38.5803139  58.2410134
  24.1214683  39.3885378  57.9192079  24.4425418  38.6371730  59.1933144
  63.3970321  73.8035379  28.4702587  62.5928081  74.1953776  28.8107157
  63.5227264  74.2180727  27.6166821  28.1942381  61.2405501   9.7298676
  28.2678379  61.3468478  10.6782961  29.0845026  61.0390959   9.4416332
  56.1196865  69.4143520  12.2394037  56.1975826  70.3460465  12.0341992
  56.2702335  69.3635950  13.1833279  41.1784567  75.1975350   0.1995596
  41.9760383  75.5393902   0.6035739  41.0014166  74.3832723   0.6705864
   1.8169230  32.5522709  13.5522497   0.8696574  32.4692011  13.6619163
   2.0992869  31.6899443  13.2474649  46.9863046  58.1705103  23.7213135
  47.1926416  57.3378287  24.1459250  46.7667354  57.9321490  22.8206444
  42.0929826  71.4562664   5.4758054  42.0511736  71.5545098   6.4270324
  41.4350332  70.7907937   5.2746016  77.5617743  23.1256413   5.5436212
  78.4950161  22.9397225   5.6471640  77.5303078  23.8580227   4.9281049
  74.8130178  27.9134655  12.0236981  74.6038628  28.8249350  12.2279298
  74.3638182  27.4071932  12.7005589   5.3782481  36.0683966   4.6077392
   5.3016490  35.6817365   3.7354672   5.7230586  35.3616977   5.1535559
  56.5984106  22.4189711  59.0156460  55.6910181  22.1819925  58.8240385
  57.1125412  21.6790271  58.6925650  24.8474134  56.2028275  10.4346800
  23.9770473  56.4220128  10.7673240  25.4181827  56.8841873  10.7899308
  65.0908149  62.7577303   2.5361222  64.3894638  62.5017748   1.9371024
  64.7618450  62.5236974   3.4040159  81.0399532   5.6159252  20.3644919
  80.6464005   5.6079745  21.2370062  80.3020763   5.4906595  19.7677660
  84.4013500   2.5804508  15.9020913  83.7390327   2.2927210  16.5304005
  84.1004562   3.4425199  15.6148052  52.7874435  67.3871932   1.4246896
  52.8522075  66.6712115   0.7927024  53.0506099  66.9959257   2.2576870
  34.1059329  50.3985077  68.2089985  33.2766082  50.8581763  68.0779920
  33.9181258  49.4917923  67.9664568  58.4729910  22.0183849  45.7642126
  58.7222338  21.0942030  45.7639837  59.2843246  22.4853110  45.5643415
  38.5224533  39.5702744  27.6079011  38.6091352  38.6659741  27.9094934
  38.9966822  39.5920467  26.7767191   4.1808107  43.7852740  68.3011746
   4.8930194  43.9122957  68.9279546   4.6013763  43.8522735  67.4439309
  68.5517645   7.0148730   7.3558056  68.4916019   6.8726850   6.4111394
  68.5078812   7.9655683   7.4581951  10.7842376  51.8297070  60.9105337
  10.9661414  51.4188570  61.7557228  10.4398086  52.6944441  61.1337609
  63.5705709  25.3421164  10.5340564  62.8016615  24.8025942  10.3498733
  63.2912445  26.2346935  10.3303087  27.0069981   3.1250241   9.2629814
  27.7345395   3.7408951   9.3502706  26.9929790   2.6514494  10.0947034
  29.1475797  41.7783594  29.9097300  28.2039785  41.6565847  29.8047709
  29.2888355  41.7508364  30.8560491  48.8149834  22.1335506   3.2549843
  48.9690113  23.0717802   3.3655709  49.6190453  21.7201424   3.5693246
  62.3060751   9.7132516   1.6095969  61.3785744   9.9220091   1.4982653
  62.5900459   9.4157320   0.7452607  78.8161469   7.9258835  27.3419118
  79.2893314   7.9767990  28.1724143  77.9671335   8.3282739  27.5249267
  36.7958331  12.0600247  21.4925408  36.1799669  11.3581014  21.7028880
  37.6548553  11.6981530  21.7101622   6.7806071  12.3118699  50.9477711
   7.0529383  11.3994873  51.0458803   6.2438697  12.3177171  50.1552391
  83.7546158  20.8093548   0.7645686  83.0854893  20.1970840   0.4585949
  84.1143990  20.3979087   1.5503797  43.5676588  80.4320433   2.6311839
  44.1136230  80.7953766   1.9339451  42.9500641  79.8584687   2.1775055
  12.9808921  28.2849574  14.0780580  13.3294505  28.7849617  14.8161185
  12.3698729  28.8845372  13.6498046  40.7115772  66.1129981  60.8731306
  40.2821948  66.7852408  60.3440250  39.9962833  65.5541068  61.1768211
  66.8968391  10.8498383  26.9549799  66.3572216  11.5812707  26.6548967
  66.8409348  10.8868945  27.9098248  15.7427520  12.6267624  13.4559798
  16.3197535  11.9326639  13.7746155  15.5494040  13.1526113  14.2320788
  61.1984833  19.5638567  53.3077574  60.7985791  19.5276242  54.1766620
  60.6384405  19.0107566  52.7630890  31.1073043  78.1329304  54.3691505
  31.1199023  77.3097783  53.8807917  31.4353873  77.9010254  55.2379513
  39.6827568  72.9700122   9.8106712  39.6577085  73.7247984  10.3988051
  39.0030445  72.3841385  10.1438010  18.5370424  33.8448059  34.4120551
  19.0690114  33.0588669  34.2874051  18.7984016  34.4266134  33.6983181
  73.6537170  14.2754602  11.7182338  72.8322363  13.8461924  11.4792252
  73.5998774  15.1397014  11.3102865  19.9664629  41.5892363   0.0556118
  20.7390499  41.3387489   0.5621661  20.0563407  42.5343180  -0.0667277
  21.3355559  13.4868455  17.5294006  21.5094298  13.9510584  16.7105556
  21.1449450  14.1797280  18.1617093  59.2076921  54.1890240  18.5305345
  59.9804783  54.5043087  18.9991820  59.4397974  54.2682743  17.6052892
  14.7907235  63.9747602  55.2643300  14.6976926  63.3479339  54.5469273
  14.0882566  63.7475306  55.8735383   0.4895419   6.0625613  12.7587187
   0.1474971   5.2260059  12.4434268   0.3844184   6.6589743  12.0174551
  33.2041385  71.0884935  64.1508341  33.2683780  71.9371062  63.7127025
  33.3137061  70.4474336  63.4485013  82.7349567   2.1895964  11.1310792
  82.0977211   1.9096377  11.7881870  82.5725842   1.6175336  10.3810036
  25.0473716  52.2750848  61.1690939  24.7164275  52.5149554  62.0346410
  24.2609145  52.1540958  60.6370462  39.2423179  33.6118776  48.8716508
  38.9389159  33.8800996  48.0043317  38.6102416  33.9995557  49.4769788
  56.7924070  27.4234033  24.5649719  56.5483952  26.6934323  23.9959097
  56.2259626  28.1433058  24.2872715   7.4510267  68.8680583  68.9980066
   7.1663644  69.3274528  68.2079727   7.1121576  69.3987995  69.7189181
  60.1939739  66.0463343  24.6003723  60.5880989  65.3246329  24.1104293
  60.2105774  66.7856524  23.9926195  60.8665133   3.6406240  51.7145729
  60.3337193   4.4331983  51.6498661  61.1032581   3.5860988  52.6404285
  63.5445309  30.4826593  32.8484201  62.6855659  30.6779146  33.2229710
  63.6297035  29.5324993  32.9269838   5.2459639  67.4124479   2.5368336
   4.9351424  68.3122253   2.4367310   5.9474295  67.4721193   3.1853801
  57.4660540  23.4089732  27.2725868  58.1603003  22.7932048  27.5072742
  56.9130373  22.9242539  26.6598463  54.1731977  14.2177761  40.6475830
  54.8360300  13.6277747  41.0064507  54.5691681  14.5650458  39.8483062
  25.5368246  50.5627857   8.1109738  25.9427227  50.5550037   8.9778173
  25.5673469  49.6501241   7.8240108  15.9980506   0.0772806  25.8877397
  15.1123160   0.2539652  25.5707288  16.5540713   0.6790322  25.3927970
  59.0384197  11.5053296   7.8999043  58.2048321  11.4546204   8.3676600
  59.2631245  10.5941641   7.7114421  63.2637453  33.4462905  24.2969918
  62.8475142  33.2688379  23.4534907  63.5331154  32.5853205  24.6169949
  25.0530887  27.0167375   4.4994742  24.6149158  26.5205050   3.8081068
  24.5784116  26.7855191   5.2978784  48.5622883  23.4268117   8.7527990
  49.0010929  23.6789727   7.9403341  48.6173582  22.4713206   8.7681669
  84.4766712  19.6775782  13.7782538  85.0812340  19.5759845  13.0431271
  83.6975002  20.0792456  13.3938217  65.5885124  11.6270447  12.0276380
  65.1969194  11.6761684  12.8996897  64.8776436  11.8643284  11.4321589
  65.4980405  65.4144651  62.0124961  65.8301862  64.7493058  61.4096070
  64.9236949  65.9596807  61.4748175  70.3238058  18.0114245  37.0877028
  71.2548113  17.9148829  36.8873692  69.9977875  18.6193132  36.4240646
  53.9448690   1.1986195  21.0299182  54.3303061   0.9261667  21.8626475
  54.2977333   0.5811479  20.3892541  59.5632172  25.7603526  17.3999298
  60.1131868  26.3457441  16.8792725  60.0271893  25.6734467  18.2326412
  74.6403885  12.1983945  27.7684116  74.2125702  11.4162827  28.1169844
  74.0809059  12.9226112  28.0489874   4.2299861  21.2339401  12.2669685
   4.4002455  20.7963395  11.4328551   3.8862437  20.5435157  12.8338754
   1.0607269  52.2791821  54.0810514   1.2139346  52.5302762  53.1701673
   1.7191007  52.7653223  54.5774866  28.8556017  79.8527480   2.1800828
  28.6216272  80.7073569   1.8179628  29.0891613  79.3248837   1.4165118
  56.8600368   1.1155753  36.4843702  56.5052223   2.0038594  36.5203023
  57.8091669   1.2352924  36.5166926  80.2819152  64.3036018  21.7366505
  80.7099051  64.9092315  21.1314487  79.3501468  64.5100985  21.6631746
  45.3983498   5.6878322  36.6622281  45.8485603   5.3198874  37.4225950
  45.9603643   6.4080501  36.3764644  80.5965861  69.2197257  64.0054656
  80.3838595  69.3563014  64.9286810  79.7924670  68.8674742  63.6239637
  67.7761936   3.3070853  20.3880715  67.5286627   2.3931715  20.2476382
  68.3899450   3.2789212  21.1220646   0.2096833  60.1184831  18.8236117
   0.3038443  60.4671703  19.7100556   0.4662741  59.1994224  18.8992441
  38.2911361  61.6918431  16.5977538  38.2641853  61.8525598  17.5409806
  39.1981424  61.8712912  16.3500309   6.7107990  46.6513985  60.4272193
   7.3295238  45.9341651  60.5650229   7.2518804  47.3787892  60.1200289
   6.4356822  34.8790336  37.0667028   5.6796759  35.3735089  36.7501950
   6.2066001  33.9633560  36.9076705  25.8404745  52.7218614  25.0086641
  25.0196088  52.3932228  25.3752828  25.9926475  52.1775565  24.2361307
  64.1220093  36.2461686  23.1702900  63.4353828  35.8589101  23.7132525
  64.4635105  35.5136395  22.6574445  25.7138564  34.3309945  60.1945747
  25.1891830  34.4809866  59.4081534  26.1237075  33.4781462  60.0500012
  26.7110088  40.3035138  68.3630939  26.4804866  40.5301504  69.2640544
  27.5294234  39.8133098  68.4413401  42.1037305  39.7333155  16.5303075
  42.3961080  39.1953431  15.7945538  41.6193784  40.4519949  16.1239445
  55.1663876  22.0461822  28.9002872  55.4895592  22.3385596  28.0480504
  55.9567118  21.8268251  29.3937397  72.7417716  47.8981876  67.9106196
  71.9413908  47.4285406  68.1452533  73.4414395  47.4117917  68.3466440
  53.5053349  13.3277559  44.8322153  54.2643642  12.7462149  44.7884321
  52.8972197  12.9772711  44.1813803  58.7364448  77.7894924  33.6903405
  59.2366470  78.1431086  32.9548264  57.8215374  77.8843097  33.4254193
  68.2297659  10.7673907  12.0820045  68.3232260  11.3712883  12.8187585
  67.3518658  10.9391630  11.7413938  19.8803056  59.9215589  49.7473145
  20.7450927  59.5665417  49.5415497  19.4992365  59.2871962  50.3544378
  40.1930154  53.2353554  15.0252187  39.3582119  53.1040941  14.5756567
  40.8064426  52.6642690  14.5628357  63.7893915   1.6308685  32.2166061
  62.8563929   1.5679362  32.4210167  63.8584614   2.3962322  31.6459227
  58.4061813   5.0413734   4.1892663  58.3489180   4.3439591   4.8423862
  59.0697336   5.6387568   4.5343205  80.1595974  15.9879279  36.1368203
  79.9421787  16.7633653  35.6194615  79.5624733  16.0234225  36.8840933
  45.5266523  26.8861389   5.1752245  45.7165194  26.6561270   6.0847723
  44.6733999  26.4889264   5.0008291  44.5435060  59.9308882  29.3528414
  45.1459039  59.2919622  29.7337937  43.8378299  59.4022522  28.9802909
   2.6581687   4.7892639  38.6211395   3.2322139   4.0384850  38.7729144
   2.2384089   4.6038607  37.7811050   8.7860697  22.3951125  41.5849400
   9.7298449  22.3067474  41.7180061   8.3953112  21.9305634  42.3250294
  29.3978717  48.1722599  68.7080961  30.2765014  48.4770536  68.9346948
  29.5322730  47.2900647  68.3618303  70.2322258   2.5467058  66.8934408
  69.9027980   3.2896849  66.3877804  71.1612571   2.7377792  67.0223416
  42.1682119  13.9741623  51.0290241  42.1583128  13.0173767  51.0026503
  42.6368713  14.1866791  51.8361378   4.8435237   5.8194405  62.2107471
   4.3483379   6.6324693  62.1107233   4.1750171   5.1358634  62.2560484
  12.8152479  79.1396173   3.0816311  12.5386585  79.8690672   3.6362794
  13.7478365  79.0353822   3.2704261  60.3004456  12.0095873  12.1134472
  61.2209988  12.2519672  12.2138000  60.2972651  11.0538590  12.1664131
   0.9781148  22.0925671  52.4489225   1.8310334  21.6716212  52.5564480
   0.7060554  21.8592399  51.5613557  23.6239399  76.1483608   2.0535800
  24.0423025  76.6062970   1.3245386  22.7140678  76.0389362   1.7771868
  71.0095072  18.9662194  17.4100351  70.5258179  18.1933188  17.7014065
  71.9187164  18.6723948  17.3531306  44.5030737  19.9982810  31.6174269
  44.5225382  20.9138489  31.3388753  44.8491812  19.5127118  30.8686495
  65.4644442  22.8591943  40.9231186  66.3586044  23.0074239  40.6153250
  65.4376411  21.9276166  41.1414671   0.2292122  78.3271504  11.5140283
   1.0208906  77.8176154  11.6868031  -0.2551662  77.8070805  10.8728290
  10.5696505  28.9614344  47.5322914  10.9509486  29.8304725  47.6572561
  11.3163966  28.3640313  47.5737047   3.8488501  33.8467860   9.8810202
   3.0588263  33.9947152  10.4008400   4.2006415  34.7232533   9.7252113
  62.3113012  13.9904869  22.2999597  62.8403187  14.1418254  23.0832005
  62.9317999  13.6548316  21.6530061  72.4933624  38.5320187   5.4440540
  71.7204142  38.4786558   4.8819754  72.2682571  39.1930389   6.0987371
  62.2634697   3.6818558  45.2303743  62.3247480   4.0520731  44.3497992
  62.2336817   4.4437921  45.8089924  50.3982353  26.6735196  33.0042338
  51.3381052  26.5493131  32.8721356  50.1052523  25.8618259  33.4184194
  23.0517448  75.0030325  27.3162127  23.0096878  74.0985743  27.0056987
  22.1501077  75.2157239  27.5571370  79.2139072  72.2803096  29.8259974
  79.1132731  73.0017517  29.2050099  78.3899064  71.7968086  29.7670031
   2.8837468  29.4277769  39.4206501   2.4854018  28.5739881  39.2515493
   2.3023727  29.8411339  40.0589085  64.4461060  58.6772299  34.8777676
  63.4954834  58.6774731  34.9897885  64.6237707  57.9051733  34.3405557
  72.5478220  13.6145175  37.2404933  72.0047569  13.2400429  37.9340911
  71.9207144  13.9410746  36.5952587  78.6778355   9.5032090   1.8529987
  77.8765774   9.9780893   1.6322923  79.3839931  10.0577116   1.5211932
   1.0904807   1.9712675  20.5197024   1.3432044   2.8700274  20.3085351
   1.2360018   1.8968581  21.4628458  15.3577155  43.0780697   6.8244177
  14.9832934  42.2109556   6.6690177  15.6561106  43.0506897   7.7335066
   1.4349669  38.2846713  27.4044347   1.9239062  37.9068637  28.1354809
   1.2812442  39.1933107  27.6632309  71.3502563  72.7052621  47.0190859
  70.8232845  73.1739376  47.6662874  72.1486248  72.4646626  47.4891424
  64.4102859  49.9021053  19.8948359  64.3495798  49.0505028  20.3276324
  65.1416206  49.8089266  19.2843473  43.3959150   9.6951401  17.6745307
  43.1483889   9.0630502  18.3493829  44.2599583   9.4061369  17.3810387
   1.1016387  32.9992533   6.3110572   0.7339305  33.5944629   6.9643199
   1.9674224  32.7747321   6.6520065  38.3099487  70.8313686  56.3432444
  38.8289478  70.4656082  57.0595468  37.9412200  70.0672084  55.9001506
  82.0993813  58.2616669  58.9698363  82.6839980  58.9580768  59.2689455
  81.2684687  58.4409791  59.4099069  35.2145316  60.7910591  68.9461889
  36.0228660  60.4793793  68.5391606  34.9582126  61.5486532  68.4202786
  61.1626387  12.1500802  25.6829619  60.4055643  11.6281188  25.4172063
  61.8125153  11.5048718  25.9615254   3.7765616  41.9289780  20.1617360
   4.5140856  41.5729761  19.6662128   3.6764640  41.3326979  20.9038067
  13.1709021  16.9595909  15.8217680  12.7701300  17.1919847  14.9841440
  12.6399535  17.4143028  16.4756584  30.8028473  77.8184430   2.8877628
  31.0538400  77.8873848   3.8088924  30.0936235  78.4529523   2.7846357
   9.3415755  33.8178182  32.2502375   9.8093337  33.0200243  32.4971461
   8.7231368  33.9641190  32.9660273  79.7770834  23.3446527   7.3931944
  79.4168711  22.7844930   8.0807245  80.6077385  23.6584759   7.7506256
  47.4160576  23.4678030  18.5505664  47.6001883  24.0341592  19.2999458
  48.1040478  22.8028679  18.5781217  76.8529797  38.5921240  19.4028342
  77.2402763  38.8387442  18.5629475  76.7964125  37.6371837  19.3693113
  23.3534163  16.6177142  14.0351939  23.8462466  16.9469237  14.7868407
  22.7022761  17.2969902  13.8595986  78.0509758  12.3641443  30.1131248
  77.2675705  12.8754425  30.3158021  77.7579260  11.7236948  29.4649124
  11.2986392   8.2357311  33.9523268  12.1705455   8.6305344  33.9400482
  11.0864276   8.0950052  33.0296183  83.0678749  15.8596575  40.3195477
  83.3432961  16.4324486  39.6038079  83.6524773  16.0832417  41.0437536
  32.0931651  76.1848098  60.2600182  31.3458183  75.9411055  59.7138268
  32.8029182  75.6155711  59.9626113  59.8055506  24.2138791   1.1253540
  58.9159298  24.3818545   0.8145677  59.9396276  23.2783437   0.9735995
  82.6346493  20.9745193  56.7799425  82.3285103  21.3046241  57.6246595
  83.5848808  20.9125686  56.8771267  30.7176521  42.7634644  59.4122208
  30.6514098  43.5512894  59.9518282  30.8190181  43.0926767  58.5191501
   1.2827796  21.4207935  10.5656481   2.1492976  21.7932487  10.4024076
   0.7275981  22.1781683  10.7511091  79.8040056  42.7217484  10.3642344
  79.7894430  43.2386303  11.1697507  79.8901320  41.8162060  10.6622422
  26.1350077  33.1806874  42.5739813  26.2973899  33.9052796  41.9699717
  26.7810839  33.2998109  43.2701397  12.9604071  54.0283585  23.4867167
  12.5149268  54.6387959  22.8992319  13.8912886  54.2153263  23.3653474
   7.7386874  12.2007525   6.4470947   8.5902709  11.7805207   6.3269287
   7.2691840  12.0282483   5.6309813  31.9440200  51.7522710  67.2640248
  32.3030116  52.4614245  66.7306796  31.5788867  52.1915048  68.0321292
  37.0527580  64.8444849  65.6051008  36.9824149  65.1839763  64.7128964
  37.9527213  64.5248777  65.6694934  82.4581718   1.6288613  18.2417107
  82.0512581   2.4528907  17.9740763  81.7211723   1.0461058  18.4246123
  82.8522396   5.8651340  52.3566055  83.7068939   6.2512714  52.5481653
  82.2689819   6.2330192  53.0204582  80.5024910  24.8004413  54.7930622
  80.7548904  25.1226735  53.9277935  79.5964050  24.5110369  54.6859455
  73.9332485  15.2366400  47.1548128  74.2796230  14.3800294  47.4047565
  74.5531273  15.8636510  47.5274229  54.4365835  13.5601676   4.9317983
  53.6220741  13.2032824   4.5776305  54.8468828  12.8208709   5.3804952
  48.8115883  64.8652506  53.8415718  48.0238533  65.1227665  53.3626223
  48.6153126  63.9884615  54.1716385  49.6009029  75.0494454  43.7872982
  50.5562700  75.0020776  43.8228226  49.4150938  75.9546734  43.5377598
   3.7139529  23.3682919  36.1570072   3.9510077  22.4414158  36.1262846
   2.9001445  23.3908176  36.6604233  70.7203436  20.5546665  56.2573290
  70.2579737  21.3915968  56.2126493  71.5937853  20.7450032  55.9151316
   0.7553977  21.9172931  55.2920151   0.4743403  21.9498086  54.3775892
   1.7040271  21.7977166  55.2469110  27.4963201   1.4878317  48.3934880
  26.6233028   1.2067314  48.6674524  27.3352016   2.1949192  47.7687503
  14.7474935  49.9262893  64.8687542  15.4453447  50.4556888  64.4827867
  15.1936176  49.3718970  65.5089516  46.5602172   1.8546243  66.4736924
  46.2460769   1.2057300  65.8440251  45.7801498   2.1054550  66.9684765
  25.6398410  62.2373343   5.9068578  25.5168837  61.2883139   5.9285134
  26.3513869  62.4008512   6.5258884  12.5176824  79.1238731  24.5914960
  12.9725898  78.2930366  24.7293448  13.0751909  79.6033996  23.9787412
  31.5509623  33.7770557  18.9262605  31.2470740  34.2386675  18.1447256
  31.7237204  32.8849101  18.6254907   6.3542670  39.6569252  10.2517068
   6.1932868  38.9784694   9.5959532   7.2554702  39.5056129  10.5366302
  14.2600085  78.6253864  51.9831575  15.2055623  78.7568384  52.0530153
  13.9422157  79.4072372  51.5315498  29.2178553  39.5433903  22.9874301
  29.6194762  38.8832855  22.4224567  29.9143046  40.1813745  23.1428909
  44.3221487  77.6475052  37.3825812  44.6758474  77.3727784  36.5366173
  44.0043129  78.5376858  37.2316122   7.9148883  61.0107803  60.9657097
   8.2276076  61.3819647  61.7907333   8.0194873  61.7185020  60.3297710
  74.3483925  45.6304741  36.3763547  75.2664185  45.4444313  36.5734410
  74.1913366  46.4935303  36.7593718  44.9220848   6.1512876  12.8257966
  44.7948027   6.1680073  11.8772435  45.6306744   5.5221909  12.9613221
  77.0108951  80.1645804  54.1004276  77.7149643  79.6896846  53.6588573
  77.3978962  81.0101461  54.3273163  71.1757946  44.0342474  18.1589246
  70.8244467  44.7162676  18.7313211  70.9350443  44.3150234  17.2760689
  32.4421424   4.5422933  51.3688421  31.5887278   4.3287605  51.7460966
  33.0676097   4.3508494  52.0676756  17.8209808  74.4561392  49.8353685
  17.5243165  75.3649956  49.8823155  18.3356263  74.3306929  50.6326330
   4.7759074  40.9245157  33.9139247   5.6065100  41.3524199  33.7060237
   4.7061747  40.9869242  34.8665404  76.8236542  30.1363182  24.7704077
  77.2364807  29.3011951  24.5504642  76.8778515  30.1862860  25.7247639
  35.1523513  32.2371984  14.3377888  34.2861193  32.4295664  14.6967638
  35.7122153  32.1312189  15.1069164  17.2138097  66.6133267  47.1044899
  17.9333045  66.0103685  46.9174028  16.4258077  66.0740858  47.0373369
  54.6275091  13.0550110  10.1454008  54.5365763  12.6824927  11.0224378
  53.7308216  13.1124067   9.8154080  19.7296598  47.2843510  65.2592347
  18.7826564  47.1524757  65.3042842  20.0687148  46.8566722  66.0455958
  49.3196678  42.4419641  17.6678860  49.2703915  41.4919662  17.7742171
  48.6335754  42.7830935  18.2415915  24.4801738  64.5368320  68.5496286
  23.5987212  64.9087053  68.5182626  24.5349433  64.1227823  69.4109054
   8.2417697  25.7632947  23.0616355   7.9371375  24.9275708  22.7080870
   7.6693839  25.9293962  23.8106489  81.7287636  14.9679852  34.1331792
  81.1383629  15.2752304  33.4452391  81.2378979  15.0960457  34.9448967
   6.7762870  12.1585226  20.6667972   6.2703055  12.8777289  21.0448933
   7.1565837  11.7101884  21.4221811  25.1861789  57.2220749  44.9983240
  25.2149417  57.5125951  44.0867305  24.4294574  57.6750892  45.3703142
  68.6968946  42.5642729  26.1444044  68.8477755  43.0479383  26.9565225
  69.5361900  42.1442127  25.9563446  48.3775676  23.2663675  67.3409725
  48.9218248  23.7247225  67.9812246  48.1466211  22.4420973  67.7693123
  51.8870605  37.1624895  54.9375988  52.1749939  36.5115734  54.2975701
  51.6593231  36.6507479  55.7137991  36.0587043   5.8605093  10.4580450
  35.4223365   6.4982784  10.7813466  36.8850154   6.1184192  10.8666050
  70.3579378  14.6224976  25.7064271  69.6230125  14.8657012  25.1434255
  70.5470943  15.4148757  26.2090087  84.5344067  55.4050732   7.1641201
  85.1315498  54.6630096   7.2589296  84.8199844  55.8412647   6.3613653
  16.6526049  31.6481757  33.7940812  16.8472117  32.3810744  34.3782210
  16.0910434  32.0245767  33.1164360  60.6636333   5.8074671  16.7778933
  61.2595558   5.2939111  17.3232102  60.3075981   5.1764905  16.1523211
  46.4254869  25.3751942  66.7220131  46.7043556  26.2201925  67.0747728
  47.1787037  24.7997185  66.8551392  18.4493043  79.6921426  64.6663288
  18.0076864  78.9496595  65.0785456  17.7677800  80.1172286  64.1456944
  59.7211123  33.3291149   3.0448192  59.6136236  32.7316213   3.7848732
  60.6622934  33.4999013   3.0096200  20.1384081  68.3507536  16.2149656
  20.5329383  68.1221853  17.0565939  20.8701051  68.3444808  15.5978656
  55.2191700  57.3130451  14.8933947  54.4129718  56.9111333  15.2170360
  55.7486023  57.4535642  15.6783664   5.4123229  77.7098131  28.9613199
   5.1191157  77.3728371  28.1147337   5.7374209  78.5894251  28.7694097
  15.5862167  37.7161689  63.5401685  15.0226953  36.9427186  63.5188831
  15.0819471  38.3665267  64.0290255   1.6169661  53.5945415   8.0138451
   2.2232360  54.1063643   7.4783981   2.1811885  53.0223322   8.5339016
  32.3478820  69.0309173  54.8043979  32.0121505  69.4421631  55.6008864
  31.9982364  68.1402022  54.8290790  70.9618139  17.7151835  33.3646965
  70.0833750  17.7901328  32.9919314  71.4058781  17.0780337  32.8051615
  59.4609928  18.2208204   1.6763414  60.2496481  18.5511601   2.1066064
  59.5890665  17.2730696   1.6363911  73.1727409  58.0103588  49.4635248
  72.7062702  58.8260555  49.6459389  73.9894199  58.2889748  49.0492344
  23.5218924  25.1448894  12.5630879  23.4469432  25.8682847  13.1854331
  23.4350795  25.5580401  11.7040181  11.5455749  41.7536667  65.5300013
  12.2844674  41.7212000  66.1376307  10.7926109  41.9702417  66.0798899
   1.8869895  31.2847257  41.8255424   2.3856372  31.0251141  42.6002598
   1.3042086  31.9773293  42.1368170  13.9706725  13.6197257  65.8126497
  14.3080920  13.9352560  64.9743032  14.6923369  13.7537992  66.4270306
  74.3223728  52.5157223   3.8296038  74.6682705  53.3214841   4.2134458
  73.9703716  52.0276842   4.5740157  21.5768888  37.0250904  67.7659429
  20.9739043  36.2823445  67.7348541  22.4467876  36.6299850  67.7076188
   4.6274680  22.7514029  25.5596852   3.7481517  22.6293445  25.9176493
   4.7138232  23.6988688  25.4544091  71.0165310  41.5372133   6.0427880
  71.6448641  41.7665434   6.7275017  70.9982252  42.3026848   5.4683781
  67.2737789  21.1464572  11.9509923  66.9061375  21.3443089  12.8123426
  66.5798092  20.6666660  11.4988375  83.5517883  35.8688259  30.0674176
  83.2063293  35.4923701  29.2579913  83.6521530  35.1205468  30.6558371
  41.1657836  71.2547260  57.6094437  40.9680679  71.5990788  58.4803987
  41.7757632  71.8895274  57.2336984  68.4359993  61.8330906   7.2590023
  68.1310905  61.1351154   7.8387386  67.8597034  61.7800341   6.4965713
   3.1678122  45.5122948  39.1123438   3.4029311  46.2279797  39.7028828
   3.9689845  45.3356218  38.6192465  66.7724800  47.6592064  10.5071759
  66.0101128  47.1354628  10.7535815  66.7899513  48.3719778  11.1458361
  67.6895142  15.1737761  47.1746969  67.3801851  14.4530666  46.6259480
  67.4866629  15.9622347  46.6712904  62.1058130  30.4889727  19.4898069
  62.7921867  29.8391366  19.6409249  61.4691210  30.3314018  20.1869631
  28.8089683  73.7807304  57.0871926  29.0382125  73.7578207  56.1581314
  29.5560386  73.3762914  57.5282705  68.8751507  38.5743904  18.8159835
  69.5776892  39.2092514  18.9560568  68.6972713  38.2180691  19.6863997
  10.8154315  47.8911638  44.4130087  10.8432788  47.5349188  43.5250092
  10.5403632  47.1540976  44.9582577  63.8187456  41.4702940  17.6243401
  63.0963326  41.5069818  16.9974399  64.0823126  40.5501318  17.6324749
   6.0763568  41.4710426  24.0189838   6.5167540  40.6881046  24.3495727
   6.0637873  41.3556051  23.0688548   1.6587657  52.1381235  34.0356064
   2.5704497  52.2617531  33.7714219   1.3303298  51.4554596  33.4505153
  70.7203986  79.2249876  58.6496103  70.9394862  79.4404751  59.5561410
  71.2079456  79.8620659  58.1274439  67.9732084  30.2226377  40.4312325
  67.6907587  30.6703067  39.6337032  68.6274147  29.5909953  40.1324511
  23.1421762  66.1641196   4.0421724  23.2922797  66.2145762   4.9861812
  23.8883166  66.6229252   3.6561536  60.4642391   2.9169694  40.3088713
  60.4981375   1.9685084  40.1843500  59.6626616   3.0641261  40.8109188
  66.7015899  40.9801336  44.9758816  66.7094101  40.0237318  45.0142241
  67.3994602  41.2494894  45.5730892  39.5736434  74.7419268  67.9205481
  38.6358764  74.6387750  68.0823802  39.6467235  75.5780321  67.4603111
  51.2135792   8.5817218  34.6785378  51.2446547   8.4500659  33.7309456
  51.6276169   9.4337755  34.8156762  63.8288212  32.3120522  14.6903431
  63.7811089  33.1104064  14.1644287  63.3263159  32.5146675  15.4794359
  69.1567421  18.6135161  20.9097362  70.0427437  18.7581372  21.2418818
  68.7979078  19.4932818  20.7936192  57.0729221  70.2195213  37.9561377
  57.0622696  69.4665478  38.5470247  57.2429336  69.8437462  37.0923543
   1.2863368  69.8563528  27.4287415   0.4315299  70.2277994  27.2106576
   1.4078444  70.0628710  28.3554649  73.4322309   9.5705885  18.6052740
  72.6810360   9.4064713  19.1753638  74.0519667  10.0477219  19.1570950
  28.1544412  77.6353265  14.2513549  28.6822380  76.8748538  14.0077507
  27.9351581  77.4898014  15.1716638  21.9725206  64.5043951  64.0588850
  22.2940995  63.8989001  64.7268624  21.8142774  65.3211766  64.5322323
  20.9268969  24.3033051  14.1082966  21.2200087  24.7991228  13.3437800
  21.6844481  23.7724400  14.3543231  37.6646376  33.7164283  13.5961294
  37.0580864  34.1855717  14.1690445  37.1012545  33.2784057  12.9581892
  63.4262848  29.0781379  15.6290996  63.8606548  28.2251978  15.6358433
  63.7879944  29.5371270  16.3872087  73.9163113  52.9433441   1.2596333
  73.9392185  52.8527260   2.2122590  73.0092907  53.1776619   1.0630716
  63.7128115  64.5430183  43.8708496  63.6771536  64.0418005  43.0561447
  64.0224838  65.4091120  43.6058617  76.3133097  19.2860949  22.2089195
  75.9757566  19.2596412  21.3136029  76.4321709  18.3667147  22.4473381
  47.9853548  47.3029657  55.9169198  48.9091934  47.5340792  55.8202518
  47.5818504  47.5798364  55.0942684  22.6918281  23.9671942  69.1200253
  23.4199489  23.6682840  68.5753013  22.9329837  23.7034126  70.0079975
  63.7129081  68.7305591  17.2292936  64.0456737  68.0755339  17.8428435
  64.0782989  69.5584343  17.5413013   4.4577044  68.6795378  27.9300332
   4.1362780  69.5380211  27.6545024   4.0534323  68.5357285  28.7856650
  14.2472666  36.8303061  57.1634817  14.5926112  36.5201616  56.3263559
  13.7561339  36.0856462  57.5106239  81.9172859   8.4004265   0.9298664
  81.6928768   9.0176147   0.2334814  81.0964298   7.9469627   1.1217052
  16.1922377  18.6812603   0.5401557  16.6221350  17.8276563   0.5928948
  15.2741355  18.4998894   0.7412492  76.8079901  44.1989517  49.2723179
  77.6082373  44.5935583  49.6189117  76.3620806  44.9169254  48.8229799
  69.7394943  25.4964089  16.4325178  69.5682859  24.9072313  15.6978130
  68.9035416  25.9365606  16.5863979  80.0635242  69.0230942  13.0545771
  79.6012068  68.5424232  12.3679566  79.7751331  68.6127996  13.8698816
  52.3534393  34.4140363  66.1255980  52.5208426  33.4796858  66.0023260
  51.5230560  34.4479704  66.6005182  68.5783482  53.0180407  25.1400900
  67.7929783  52.5696564  25.4537463  69.2833281  52.3830366  25.2666116
   2.3571223  75.0841427   2.9581413   1.9368952  75.6250477   2.2895126
   3.2266730  74.8979855   2.6039237  81.3596725  53.2917547  24.5306897
  82.2864246  53.3683348  24.3037534  80.9757137  52.7977896  23.8062549
  76.7402506  34.8996949  22.3157930  76.9760370  34.0569711  21.9279122
  77.4981356  35.4602647  22.1496463   3.7256259  35.0344181  27.6506901
   3.8871592  34.0959334  27.5538063   2.8690356  35.1729846  27.2466135
  71.1704029  27.9745098  55.8012260  71.8493427  28.2416006  56.4208532
  70.8292450  28.7971779  55.4504347   7.3794574  75.1348543   8.6556119
   7.9007167  74.3343019   8.5953677   7.9574126  75.7652044   9.0855587
  16.1649054  16.6000068  41.8046999  15.6888503  17.4283516  41.7459726
  15.7983702  16.1672604  42.5758171  77.9778910  79.9026299  24.4405150
  78.8502121  80.2966785  24.4444084  77.3794937  80.6446552  24.5274305
  36.3509035  63.8020086  40.9447813  36.8784952  64.4937944  41.3439226
  35.8446383  64.2483377  40.2660179  76.1159857  62.1974999  62.3793865
  75.8419522  62.7932912  63.0766434  76.1721428  61.3415104  62.8040773
   6.3254946  64.9501228   2.0530657   5.9278029  65.8075714   2.2042586
   6.6446131  64.9897289   1.1514992  60.5765963  27.7072167   6.7296517
  61.3597393  27.9686069   7.2140008  60.4464102  28.4066916   6.0893238
  70.0876861   0.3723325  27.3154521  69.3522315  -0.2401171  27.3310304
  70.0128608   0.8574094  28.1372380  53.6242069  31.8753477  52.1991170
  54.5117248  31.6099068  51.9581056  53.7479175  32.5207611  52.8950835
  58.2888794  51.0925913  16.6100073  58.0348396  51.9518852  16.2733889
  58.0564880  50.4827690  15.9097624  20.9628314  37.7649617  21.0763049
  21.1505622  37.5717854  21.9948220  21.7927951  37.6114917  20.6248045
  11.2162703  32.4883533  24.0149736  11.7832583  33.0145216  23.4511495
  10.3681010  32.9307747  23.9815378  83.8734306   3.4446808  66.9340730
  83.4777320   3.0147453  66.1759103  84.3226684   4.2072721  66.5695522
  76.9775343  21.6709948  17.6860464  76.7564011  22.5531340  17.3874462
  77.9190207  21.7044663  17.8554857  84.5576572  49.3681002  28.5160470
  84.6643257  49.9847603  29.2403269  84.8820114  49.8406363  27.7494121
  78.3033013  68.9766455  62.4874020  77.7054995  69.0399599  61.7425156
  77.9761761  69.6233654  63.1126833  84.9457083  36.4646363  56.8442726
  84.8560353  36.9534755  57.6623344  85.2592874  37.1112657  56.2120008
  69.1203541  60.7976580  34.9404216  68.6333627  60.5746174  34.1471219
  69.2234772  59.9645472  35.4003429  18.2446358   4.2274898   7.0347595
  18.9643071   3.6058468   7.1437167  17.6998709   3.8450474   6.3468646
  10.8698797  53.3316660  67.0953655  10.5278766  53.1529951  66.2193823
  11.1928809  54.2314482  67.0474529  72.5595313  59.1005230  37.7489281
  72.0295328  58.9910936  38.5384583  73.1012470  58.3121824  37.7129316
  73.2202226  21.6570020  55.8631182  73.3543903  22.5929570  56.0121775
  72.8223199  21.6075182  54.9939489  11.7052197  50.1854992  56.1677313
  11.6201150  49.2721748  55.8941793  12.6452065  50.3095770  56.2991142
  50.7645236  12.8375425  68.6370897  51.3735472  12.9371252  69.3688059
  51.2989675  12.9912939  67.8580141  68.8250166  39.6554565  46.6262579
  69.0449220  38.8943481  46.0890532  68.1973571  39.3225741  47.2677135
  45.8926258   8.5220283  28.3459281  45.8914993   7.5816435  28.1672954
  46.8068621   8.7849134  28.2396697  56.7066259  19.0319198  22.6464938
  56.0206983  19.6061748  22.3059558  56.3199326  18.6330313  23.4259796
  48.7690101  25.0061458   3.9500188  49.5514355  25.1631159   3.4214305
  48.1110934  25.5983251   3.5857295  37.2146748  69.4532065  28.8370799
  36.7118840  68.8932852  29.4286250  38.0991345  69.0876488  28.8552570
  17.5892733  73.5426120  31.9286060  16.8343066  72.9937796  31.7163753
  17.6795410  73.4687809  32.8786754  49.7202188  11.1194718  53.2720089
  49.5819622  10.4590571  52.5930595  49.2787462  10.7653916  54.0439939
  14.3652499  31.9676876  52.3558712  14.4672728  31.6299200  53.2456684
  14.0999508  31.2065029  51.8396854  36.0638886  73.8322596   8.2823848
  35.2342438  73.6487416   7.8416538  36.2592940  74.7415690   8.0560970
  41.4022587  34.6016353   9.8336791  40.7935295  33.9040321   9.5907211
  41.0430572  35.3872913   9.4214248   7.4875015  34.7804809  44.9451447
   8.0416775  34.0276575  44.7392797   7.1538234  35.0714564  44.0964842
  73.7519829  74.1368703  52.8512573  72.9037016  73.7738113  53.1058883
  73.6095827  74.4832281  51.9703483  37.1436916  13.5111946  25.0962734
  37.7056799  12.8103441  24.7658157  37.7096663  14.2828935  25.1159095
  74.7917444  21.7035556  64.9532127  75.3914565  21.2531114  64.3585062
  75.0020713  21.3509440  65.8178854   5.0957823  20.1869249  38.3568311
   5.8653980  20.6767011  38.6467338   4.9941257  20.4241610  37.4350858
  71.2374479  57.8430367  68.4785557  71.7365855  58.2975626  69.1571569
  70.6796819  57.2321415  68.9601517  51.1663387  17.2504085  27.8516960
  50.6505082  17.5326151  27.0963764  52.0597113  17.5277656  27.6487445
  28.7454024  60.5969719   6.1057090  28.2761879  61.4072923   6.3043355
  28.1353386  59.9009470   6.3498449  70.6023143  14.9038547   2.4597167
  70.9887216  15.5226463   3.0794095  69.7764538  15.3110069   2.1981572
  64.2492018  26.1942428   1.2442159  63.5491202  25.5571073   1.1021709
  64.1832373  26.7924875   0.4999160  10.3903806  14.4847870  62.4352551
  10.4443467  14.1588211  63.3336258  10.1046681  15.3937304  62.5270271
   3.4153041  60.4583549  66.0980988   3.1477535  60.0742579  66.9330359
   2.6418507  60.9333706  65.7941866   5.4976958  70.3014946  58.2533312
   6.1566269  69.8997831  58.8196039   4.8994845  70.7419109  58.8569927
  74.7903953  31.0943931  23.4428596  75.5483578  30.7158274  23.8882922
  74.3502698  30.3455538  23.0406665   8.3947027  58.2286406  24.8862386
   9.2083752  58.7252855  24.7995734   7.7266693  58.7937641  24.4981718
  30.6095556   6.2248220  62.0846510  30.8376284   7.0683660  61.6939497
  30.7437230   5.5905809  61.3803959   4.4223129   3.5670080  48.3581352
   5.1037632   2.9295816  48.5715342   3.7740432   3.0674448  47.8617287
   3.4355402  22.9015875  56.6590118   4.1321665  22.8189826  57.3102570
   3.7107676  22.3323512  55.9403658  28.9447234  47.0048946  18.8924407
  28.8341687  46.2835258  19.5118236  29.8920129  47.1312660  18.8385581
  72.6256024  13.6420145  63.8313484  72.9565274  14.5400037  63.8499355
  73.3275114  13.1200018  64.2200041  80.9804862  79.4750051  18.9713287
  80.9456246  79.3668131  18.0208968  80.0915830  79.2790751  19.2674541
  69.0104967  49.9231339  56.3795614  69.2984003  49.0184164  56.5013361
  69.6814734  50.3147984  55.8204365  72.9959017   5.8644706  65.8429623
  73.9095086   5.9013176  65.5597734  73.0205590   5.3819841  66.6692972
  77.3800371  24.2386001  17.0143604  77.5278280  24.8838180  16.3229274
  77.9815266  24.4947523  17.7135276  23.7205883  51.7217974  26.6507816
  22.9042988  52.1215955  26.3506698  23.4594770  50.8611373  26.9783687
  29.4434677  66.4468435  10.2306842  29.0269796  65.9377412  10.9260845
  30.3068345  66.6678957  10.5799198  52.9536037  19.1648525   9.5707654
  53.8364295  18.8286394   9.7250699  53.0662225  19.8314518   8.8931274
   3.3591835   6.8263620  14.0183162   2.4420563   6.5523094  14.0173625
   3.6323992   6.7517704  13.1039714  41.0140562  20.0843573  56.3114929
  41.3747597  19.6527672  57.0859957  40.1250267  20.3306890  56.5667915
  22.6129556  42.7639341  42.7992916  22.8539085  42.6890993  43.7226391
  21.6885805  43.0121183  42.8123331  64.5614110  74.7366814  14.4664096
  64.5691358  73.9049939  13.9926242  63.8883387  74.6237544  15.1375579
   7.8951899  42.5735706   0.1075219   7.4704901  43.3922714  -0.1485825
   8.8313047  42.7720970   0.0849771  76.4954779  31.4098734  10.9316062
  75.9082911  31.3491672  10.1781082  75.9326802  31.6949552  11.6514778
  72.5870786  22.4981827  13.5399818  72.5729821  22.6218122  12.5909042
  73.5170028  22.4475044  13.7611293  50.4573393  42.5934553  61.1087656
  51.0211515  42.7251434  60.3465319  49.8709631  41.8814993  60.8528090
  75.9948695  75.6497002  52.5776815  76.2668365  76.2279177  53.2903719
  75.3684974  75.0493956  52.9820633  73.8030070  45.7443285  61.4176083
  74.2003828  45.1136160  62.0180464  73.0286878  46.0620975  61.8820286
  53.1885968   5.3455538   7.2353553  53.6506594   5.0959390   8.0356216
  52.4273390   4.7659391   7.2076272   6.7381781  40.6510592  67.4853230
   6.4949274  40.7643080  68.4041500   5.9251022  40.7989025  67.0023298
  22.9438472   6.0641229  50.7543278  23.1264114   6.8896323  50.3055096
  22.2220802   5.6767786  50.2591038  81.1310027  22.8826898  11.4031123
  81.4114306  21.9721454  11.3109493  81.5712855  23.1898540  12.1956062
  14.7710382  71.7558650   1.0455369  13.9800309  71.6622404   1.5763568
  14.9307894  70.8788041   0.6969976  34.5279234   4.5877065  53.3549166
  34.0512388   4.6196832  54.1843605  34.6119337   3.6537637  53.1627941
  70.3154503  64.4336371   0.1790428  70.6818520  63.5499291   0.1468276
  69.5352255  64.3495921   0.7271480  67.5803170   5.9217876  17.1864032
  66.7976294   6.3977188  17.4641036  68.2949255   6.5481514  17.3014354
  22.4110866  21.9162273  63.5599709  22.5445008  20.9784627  63.6979198
  22.7408600  22.0775795  62.6759768  70.9960256  10.3142065  16.6761016
  70.7367716   9.9381250  15.8349227  71.8897507  10.6260294  16.5337848
  75.5525491  42.7902073  12.4633025  75.6163726  42.2976154  13.2815360
  76.3985036  42.6556438  12.0361137  54.3968964  25.2785629   4.1704702
  54.7543801  24.4853824   4.5695972  54.5512783  25.9641928   4.8203277
   8.9187425  49.9229097  55.1023388   9.4535637  49.5885849  55.8223581
   9.4211370  50.6586885  54.7523975  76.1029065  47.0765781  59.5398188
  75.6850320  46.7556810  58.7406731  75.4299957  47.6081228  59.9651241
  79.5428345  15.8400053  22.0630836  79.2666791  15.9608454  22.9715823
  80.4787395  16.0407156  22.0685195  58.8633305  40.8035326  69.1699839
  59.5448929  40.5975580  69.8097324  59.0888816  40.2782822  68.4022188
  36.3423752  79.2320995   8.1924533  37.0276659  79.2908673   7.5267553
  36.4909541  79.9908427   8.7567806  34.7449327  17.3335910  65.3524494
  35.6927752  17.4627149  65.3184605  34.6033406  16.4862883  64.9302387
  17.8130209  80.5193138  55.5726290  17.5547230  80.7884407  54.6911049
  17.5983775  79.5872831  55.6110525  84.9043822  40.7024384  67.1480608
  84.2966944  40.1523590  66.6537333  84.4776909  41.5585327  67.1837378
  12.3663282  69.6175003  68.7072992  12.8152204  68.8225746  68.4195042
  11.5338027  69.6067524  68.2350540  30.6746117  70.1072983  17.8576850
  31.3219093  70.0250034  18.5580158  30.0270279  70.7228188  18.2011985
  74.4001955  26.7583823  57.9660320  74.0535921  26.5513301  58.8339186
  75.3434628  26.8500829  58.1004572  79.2948172  17.8823656   5.3408288
  80.0102756  18.0137867   4.7186708  79.6893857  17.3866838   6.0583591
  77.9676610  16.5461016  64.8348284  77.6817089  17.1659958  65.5057907
  77.3342079  15.8302152  64.8845720   6.9019109  40.5394650  53.9148712
   6.2476313  40.8467245  54.5423603   7.0968831  41.3068914  53.3770275
  74.6148238   0.4570001  15.2941703  74.4894490   1.0720152  14.5714950
  74.0047667  -0.2571183  15.1095199  57.4237945   8.0922979   5.6249475
  57.2167149   7.1807951   5.8311271  56.5888757   8.5526794   5.7097530
  23.7029243  38.7013650  44.3513918  23.1611562  39.2601919  43.7942314
  23.3167672  38.7859130  45.2231550  51.7354158  13.6640686   9.3969964
  51.6672377  14.5972484   9.5988845  51.1713395  13.5424036   8.6332893
  70.3059262  60.5115652  39.2682052  69.6888083  61.2294245  39.1265130
  71.1044830  60.9396267  39.5769191  17.1200744  13.7070602  11.3113975
  16.5740911  13.2016748  11.9136619  17.3787824  13.0782932  10.6376361
  76.5311128  30.4952478  50.1722956  76.6696960  29.7399592  50.7437563
  77.0879895  31.1805224  50.5417776  70.8513325  65.1618958  33.8463569
  70.4997140  64.5754147  34.5161629  70.1816410  65.1733303  33.1625342
  13.3802198  10.6155481  65.5179453  14.2476450  10.2684106  65.3098583
  13.4834062  11.5656843  65.4647875  35.5080102   0.1929945  16.4917278
  34.9175856   0.1581091  17.2443389  35.2482865   0.9843725  16.0200404
  78.2312322  67.0559692  20.9165835  78.0121523  66.3544989  21.5299177
  77.7146745  67.8046942  21.2145925  13.1019974  66.6935349  69.1202497
  13.2290721  66.7182875  70.0686550  12.1955001  66.4075804  69.0074396
  74.0144414  51.8786573  45.2818537  73.5044366  52.4022722  44.6638250
  74.8381537  51.7052507  44.8261547   0.6567763  72.2455978  67.5761700
  -0.2534679  72.5045824  67.7197504   0.7938525  71.5107155  68.1739950
  43.1318115  14.5112791  25.5107117  43.7023925  15.0451173  26.0635948
  42.5302421  15.1391782  25.1105976  65.0526349   6.7670959  22.6587295
  65.6641565   7.4547857  22.9220771  65.5273489   6.2653488  21.9960594
   9.8738408  40.5933523  55.1635695  10.1772618  40.0539303  55.8937693
   9.1075981  40.1298237  54.8255730  53.2736007  16.1808628  12.2539138
  53.8919402  15.7010502  11.7028522  52.5532252  16.4063305  11.6653060
   8.3671492  44.6635246  61.0838079   8.1894964  43.7344646  60.9371042
   8.9908814  44.8994541  60.3971291  51.6721562  29.1552252   9.3338870
  51.5227465  29.3757528  10.2532720  51.3544820  29.9175876   8.8500308
  27.9059243  36.8162584  67.1625042  27.9133916  36.4825845  66.2653780
  28.3559990  36.1426592  67.6723385  78.4668076  63.8190460  39.9250579
  79.2326701  63.7493372  39.3551230  77.9100364  63.0837107  39.6690845
  37.0079731   6.4855089  57.4860716  37.9563259   6.6064729  57.4388885
  36.7675291   6.8133154  58.3526564  77.4110697  11.5258354   3.7852287
  78.0974934  12.1525568   4.0138673  77.8747318  10.6978220   3.6601590
  12.7392924  62.8882980  56.5493107  12.3954189  63.4720230  57.2255087
  12.0022511  62.3197460  56.3262510  24.0617824  75.2205086  30.4715109
  24.8065400  75.8088493  30.5957079  23.7164092  75.4501390  29.6088290
  35.1936178  10.2195444  56.0602570  35.3926562   9.2878904  56.1531734
  35.6408261  10.4808893  55.2553129  35.9099918   0.7420339  61.0520458
  35.6466012  -0.0492106  61.5219259  35.6351464   0.5866518  60.1484156
  37.8013466  30.2781719   2.0769119  37.9676101  30.7878727   1.2839460
  38.6723802  30.0577682   2.4069928  38.3526724  78.1124119  20.5965804
  39.1364931  77.7652983  20.1707076  37.8700231  77.3357681  20.8796119
  82.7271245  20.8969301  18.5914897  83.3948181  20.8402532  17.9079627
  82.3162673  20.0324100  18.5972404  72.1735916  58.4451908   4.1648721
  72.6775859  59.0038914   3.5732030  72.7050684  58.3969253   4.9595022
  72.0467255  11.3118166  33.3180332  72.0849226  10.5663198  32.7188587
  71.8556748  10.9233946  34.1717624  19.5664728  39.0161157  68.4012461
  20.3959084  38.6374617  68.1098890  19.7688508  39.4129872  69.2484570
  15.0868440  46.4468050  53.7194347  15.5455303  45.6351566  53.5024929
  14.9887061  46.4194155  54.6711969  24.0209508  16.3358629  39.9737191
  23.3119059  16.2583745  40.6120634  23.6165643  16.7600048  39.2168784
  27.3746077  19.7145643  38.2753706  27.0540406  18.8679685  38.5864210
  27.7295667  20.1381197  39.0569329  46.6493629   0.9007921  52.8430271
  47.5471555   0.7892599  52.5303602  46.5783285   1.8350019  53.0390644
  61.8857390  73.5625458  57.8977776  61.7733675  72.8044987  58.4713411
  61.0363704  73.6663008  57.4687862  38.1031251  70.0882339  64.1952038
  38.3968234  69.6614885  65.0001001  38.7881613  70.7274342  63.9993048
  16.8017602  69.4490194  66.8313122  17.4073899  69.1924763  67.5267458
  17.2400570  69.1846991  66.0224438  39.7743367  50.4650311   7.6665449
  40.1992558  49.6093611   7.6073503  39.9284672  50.8685962   6.8123721
  38.2041674  16.5340128  56.5263128  39.1282486  16.7768469  56.5840626
  37.7444278  17.3660555  56.4141607  69.5766614  44.8408169  13.0038452
  69.5433984  44.4339889  12.1380424  68.6849270  45.1537651  13.1558513
  78.9586256  14.7909683  11.0376930  79.5870445  15.1573509  11.6598510
  78.4735582  15.5493921  10.7125186  66.6480420   0.0100130  39.8781394
  67.1060334   0.7138532  40.3375720  66.4991782   0.3556484  38.9980220
  62.6779840  33.3131594   0.0456237  61.7354129  33.1599897   0.1114368
  63.0437598  32.8936333   0.8243656  45.1821301  16.8651575   3.6128282
  46.0665379  17.1224254   3.3523130  44.9998043  17.3900455   4.3922376
  32.5750065  19.0765250  55.9586763  33.4408569  18.8479424  55.6206179
  32.2826743  19.7972906  55.4007626  24.3574238  73.4599972  62.5917339
  24.4722009  72.5329447  62.3828697  23.7558866  73.4650755  63.3362865
   6.0633508  47.3286671  11.1173057   6.4826266  47.7788013  10.3839444
   5.1253287  47.4260944  10.9534454  32.7445719  21.9580883   2.2422313
  32.3622153  22.2540611   3.0683278  32.7761410  21.0046476   2.3209190
  65.3993140   1.2606949   9.6759509  64.9961696   1.0180563  10.5095195
  65.8672796   2.0742410   9.8640537  77.4923831  50.5939436  63.9934635
  76.8468696  50.0674295  63.5219479  77.1917349  51.4960766  63.8839197
  25.8108950  71.3500690  60.1531410  25.2597260  71.5923691  60.8972788
  25.9241724  72.1648169  59.6636629  21.8849802  47.5281715  53.3336067
  22.7087617  47.6626539  52.8650665  21.6537619  46.6166973  53.1547832
  71.6890321  10.6527609  12.8993892  72.2739611  10.8290809  13.6362743
  70.8939193  10.3044552  13.3027553  75.2775322   6.9409933  63.8885736
  75.0183092   7.7341451  63.4195995  76.2058913   7.0701589  64.0827465
  81.2886956  78.9623833  64.1007328  80.5084872  79.3110752  64.5319176
  81.5509307  79.6493912  63.4879637  32.2472088   1.7589941  36.9137883
  31.4496778   1.2305822  36.8827891  32.6732175   1.5992918  36.0716224
  13.4602106  42.8864956  47.6472712  12.8195500  43.1394005  46.9825697
  13.1726503  43.3376455  48.4409952  12.2044218  40.9827900  61.9836473
  11.8601346  41.8437052  62.2213936  11.8973982  40.4015636  62.6794529
  29.1021633  33.5660434  43.1362152  29.0442801  34.3793750  42.6348448
  29.8173189  33.7161851  43.7544775  81.9109932  36.1859941  47.7156496
  82.5237757  36.4822173  47.0426130  81.3188219  36.9271183  47.8433180
  64.5915061  52.6266527  64.2536879  65.3555685  52.8742552  63.7329817
  64.7663814  52.9882717  65.1225281   3.0827942  60.4400253  58.3102703
   3.5844085  60.2247906  59.0965843   2.3727873  59.7982168  58.2959652
  64.0364653  71.5200567  57.5265884  64.1451818  71.9245195  56.6658783
  63.6911351  72.2214174  58.0789185  70.7356221  57.4662733  31.6463590
  70.1304311  56.8266296  31.2710810  70.9297150  57.1281576  32.5205660
   3.6098245  49.0001392  65.5215073   3.6727694  49.9043036  65.8293295
   2.8684324  49.0043116  64.9160719  73.9714926  21.1763287  69.1198111
  73.3667332  20.5169845  68.7795734  73.5073727  22.0062804  69.0102386
  10.3524601  78.9445019  67.5793648   9.6297789  79.5319176  67.3582172
  10.0286543  78.4356737  68.3226585  13.5640404  33.3777374  10.0151538
  13.0382655  34.1060203  10.3459024  13.7561486  32.8497022  10.7900810
  80.7039998  13.6336082   9.4195937  80.0046895  13.9191288  10.0075340
  80.5276845  12.7045816   9.2711019  43.6567316  24.7876400  14.7784042
  43.6407779  25.5790228  15.3166389  44.2400728  25.0043577  14.0511035
   8.2250261  50.9028959  62.3659801   7.9816318  51.5933180  61.7492867
   8.8517934  51.3198662  62.9571915  53.3144147  18.5965341  15.1627635
  54.1721932  18.2464498  14.9221706  53.2381518  18.4201092  16.1004733
  75.0731570  41.1109924  40.3322983  74.4569689  41.4990091  39.7110152
  75.7470870  40.7107115  39.7829103  28.2105660  43.4114552  64.0454531
  28.1455398  43.2244015  64.9819469  28.2240033  42.5495052  63.6294127
  35.3973590   0.0836935  46.6416788  35.1236688   0.9051790  46.2336540
  35.4132496  -0.5474482  45.9222078  11.9406712  55.4883480  57.3033810
  11.3779569  56.0822105  56.8064880  11.5608525  55.4775000  58.1819344
  67.9216395   2.2476429   7.5362300  67.3249219   2.8776211   7.9403114
  68.5632620   2.7875418   7.0746421  59.8598920  61.2540440  20.9563922
  60.2977644  61.3549833  21.8015670  60.2858769  60.4967097  20.5548858
  39.7894621  61.8365192  34.9886751  39.9689317  61.7436314  34.0530515
  39.4957042  60.9679794  35.2635908   6.9586903  56.0544729  60.9025717
   7.2357482  56.9061804  60.5648327   7.2417098  56.0558319  61.8169737
  48.9180647   0.3758802  55.5952215  47.9952763   0.1988210  55.7778215
  49.0917789   1.2117567  56.0280895  15.4024021  15.6649488   9.1388368
  16.2387220  15.2686113   8.8944673  15.6130592  16.2292236   9.8827791
  62.2587959  30.5448908   8.0939102  63.0404578  30.6491512   8.6364650
  61.7432753  31.3335937   8.2625055  15.8431232  69.2032528  47.1078300
  16.3244247  68.3902836  47.2616482  15.0279474  69.0953588  47.5978041
  78.2688171  78.2237291  34.2294931  77.5546002  78.8100052  33.9796925
  78.1824142  78.1317091  35.1783347  79.4278985  58.2613134  53.2625103
  80.0165319  59.0120029  53.3412838  80.0072157  57.5202799  53.0850554
  84.1754053  17.1304792   5.0824260  85.0062082  17.5584120   4.8753642
  84.4217513  16.2436527   5.3452682  41.5539122  65.7137442  69.1635084
  41.1971235  65.1889706  69.8801327  41.8110323  65.0718880  68.5015869
  32.2908831  54.9404573  39.5367122  33.1550217  54.9601221  39.1254830
  32.0025682  54.0323353  39.4449449   2.4629871  37.2761005  16.0142707
   1.8336717  37.1910375  16.7304897   2.5445501  36.3903660  15.6606387
  52.5313984  25.0385275  61.6548920  51.9563590  25.7772913  61.4554358
  52.1103822  24.2875471  61.2365580  28.8914148  32.1150535  26.2583732
  29.2475168  33.0035251  26.2647342  28.1217615  32.1614403  26.8255805
  81.4065144  54.8174232   7.6203346  82.2885964  54.5217174   7.8455543
  81.2686680  54.5014232   6.7273807  78.2180188   7.4966425   3.7410068
  78.7217663   6.7128366   3.5216426  78.4745691   8.1391615   3.0795049
  33.3440282  75.3690223   5.3476095  33.9708357  75.0352506   4.7057819
  33.5329913  76.3057951   5.4021978  31.2721992  60.3330803  44.1825390
  31.0811400  60.0532484  43.2873154  30.8081269  61.1648369  44.2776823
  16.3603318  43.9189482  59.1275167  16.0588670  43.1672907  59.6377707
  16.1100066  44.6799660  59.6513700  35.8908706  27.3461618  60.2783298
  35.9421187  28.3006181  60.3295946  36.7308490  27.0809831  59.9036980
  45.9290527  33.2890787  61.5280485  45.4612826  33.8797369  60.9376669
  45.2447366  32.7366342  61.9058704  72.8999863  59.4245285  32.0251560
  72.5350414  59.9729484  31.3306903  72.1941457  59.3500656  32.6673984
  51.1626231  10.0594797  57.1461153  51.7733728  10.7478799  56.8828392
  50.4990255  10.0513830  56.4563322  22.1539330  66.9899654  69.1000462
  23.0317593  67.3185015  69.2942667  21.5704012  67.5462627  69.6160460
  54.8243333   3.7332958  40.2110862  55.0260461   2.8228372  40.4269790
  54.4084329   3.6887974  39.3501090  50.6370913   2.8481950  55.9086037
  51.3279449   3.5003175  55.7915735  50.5050646   2.8064813  56.8557405
  59.4409744  26.4693207  10.0153541  60.2463529  26.8403190   9.6548604
  59.6307779  25.5364651  10.1153135  30.2619407   5.3371801  55.6036949
  30.3010606   6.1859884  55.1629829  31.0051264   5.3460016  56.2068748
  67.9985052  56.5129662  37.3169518  68.6200792  57.1555519  36.9749570
  67.5214309  56.9820070  38.0015206  32.1157857  28.9375009  29.6908116
  32.9115032  29.3585386  29.3655634  31.6829329  29.6136655  30.2120352
  26.1864638  67.6927376  58.7157297  25.9049368  67.3486567  59.5634222
  26.9775629  68.1946993  58.9117575  51.9387350   3.9045519   1.9658422
  51.2068675   4.4203943   1.6274595  52.4645392   4.5317310   2.4622344
  28.8664913  72.5900173  44.4794607  29.7552633  72.4090338  44.1735888
  28.9861846  73.1572008  45.2411795  81.2200830  31.8111461  50.9032249
  81.0678504  32.0839924  49.9984550  80.6337903  32.3624033  51.4214992
  64.6626929  13.0631393   1.3280010  64.1910390  13.1835884   2.1521758
  65.2137528  12.2948784   1.4774703  17.7288638  78.1618909  49.1004276
  17.9022025  79.1031937  49.1120338  18.2646881  77.8108887  49.8117065
  62.4802867  15.0704998   9.0144204  61.9234125  14.3264049   8.7853956
  62.8852818  14.8199457   9.8447418  41.0738373  71.1598587  43.4892035
  41.3159609  71.7101097  44.2340755  41.6638374  71.4340353  42.7870941
   0.4094633  55.7987022  41.6500139  -0.0573848  55.0213528  41.9566250
  -0.2819772  56.3981962  41.3693857  66.9977223   3.4661855  28.2047749
  67.1791397   3.0084791  29.0256429  66.1690508   3.9190569  28.3611369
  69.4390724  33.8678879  14.6775436  69.4028948  33.6304659  15.6041240
  68.6150370  33.5430187  14.3146991  74.2709062  31.8474478   9.3624925
  73.7577436  32.3547977   8.7336110  73.8054405  31.0141558   9.4346046
   1.0066480  55.1865244  67.5209284   1.7617813  54.6082211  67.4133396
   0.2825905  54.7138882  67.1103334   5.7543961  48.3861870  26.9116973
   6.5662185  48.6490387  27.3453903   5.6784216  47.4494022  27.0930576
  18.4261131  53.0238962  37.9780626  19.3819880  52.9748154  37.9893374
  18.2356453  53.9283133  37.7291107  49.1369233  17.2786659  17.1315097
  48.2710789  17.3034519  17.5388526  49.7469250  17.2357410  17.8679084
  67.6478373   4.9585428  31.2230539  68.3737956   5.1472368  31.8177056
  67.2778427   4.1383066  31.5494823  27.0696326  10.7442083  35.8311033
  27.5617661  11.4585962  35.4265189  26.4232779  10.4945459  35.1707029
  83.7085054  31.6518539   3.6859989  84.5750759  31.9064230   3.3690070
  83.7616966  30.7020134   3.7918519  17.0140803  54.6194839  63.2670975
  16.7028785  55.5047417  63.0781460  16.2595892  54.1786718  63.6578178
  66.9860170  79.8920959   3.8672017  66.6918520  78.9813179   3.8537073
  66.8508539  80.1740688   4.7718858  55.0495243  47.4967909  62.6804399
  55.1692629  46.9910145  63.4842300  55.9257412  47.8171015  62.4662399
  67.7095530  37.2140974   2.4383830  67.6385138  36.3011164   2.7170419
  68.5245607  37.2489446   1.9376039  80.7786296  37.5173754  14.1073512
  81.3864205  36.7826408  14.1909503  81.3372062  38.2943004  14.1321372
  46.9037639  13.5016241  33.4875345  47.5447880  13.7760725  34.1432762
  46.8781971  12.5476827  33.5621643   2.5248806  15.2971405   6.0699891
   1.7016450  15.7457489   6.2630367   2.3604170  14.3836397   6.3038730
  10.1006985  38.7764645  48.5669184  10.2845442  38.4723186  49.4556952
  10.4586816  38.0925846  48.0008888  65.8873950  49.9871721  69.5849752
  65.1002895  50.4747762  69.8277569  65.5575477  49.1644754  69.2235899
  67.8539799  19.1491503  28.3190727  68.3160029  19.6100754  29.0192985
  67.3006950  18.5145420  28.7744617  80.8446858  12.6210827  22.6375388
  81.3653753  13.0113691  21.9355487  81.3034246  11.8090433  22.8529167
  46.5910599  44.8787922  18.4762763  47.3320965  45.2270359  17.9804706
  45.8743403  45.4866260  18.2943820  34.1198397  66.2678528  18.2862282
  33.4145975  65.9440327  18.8465905  34.8062992  65.6046104  18.3577693
  59.1383312  30.7844633   4.5498275  59.9262268  30.2548641   4.6722030
  58.6510862  30.3331894   3.8604974  83.9555953  52.6938289   0.4352712
  83.4563301  51.9066471   0.2177333  83.8101456  52.8181309   1.3731574
  53.6555702  22.2487110   1.4247417  52.7403960  22.0992321   1.1873769
  53.8930354  21.4875692   1.9543695  84.9618957  32.5609726   0.4037380
  85.3957031  31.9472212  -0.1890088  84.7725604  33.3257240  -0.1398993
  74.2004286  10.1939096  61.3419247  73.7998473  10.9000959  60.8349037
  75.0207363  10.0068655  60.8854818  66.9729886  28.9746755  23.8812064
  67.8015218  29.0233940  24.3580627  66.5206055  28.2226127  24.2632865
  50.7643544   3.1942644  27.0249081  49.9394547   3.5259237  26.6702604
  50.6090700   3.1239690  27.9668093  14.1962806  38.3448500  18.2822036
  13.4137002  38.4482473  17.7408122  14.6453182  39.1877121  18.2175636
  14.2108010  70.6276445  24.4279575  14.8642110  71.3154916  24.3008613
  14.3687402  70.3084783  25.3164481  52.0559274  10.9336557  63.5654736
  52.3756372  10.5808725  62.7350760  51.7254006  10.1700868  64.0386963
  62.1790086  39.5543470  51.9899464  61.5882670  40.1487531  52.4524832
  61.8027793  38.6854639  52.1303749  71.5004871   8.9194626  40.3866386
  71.2296210   8.0236572  40.5876254  71.4033757   9.3904394  41.2142753
   9.9768702  61.0204262  37.0152282   9.7323243  60.1723522  37.3856353
  10.9286014  61.0578483  37.1103095  63.2062940  50.9302467   2.0811843
  62.6771192  50.3152603   2.5891303  62.6154588  51.6609711   1.8990087
  59.5910416  39.5180458   3.8573884  60.0406209  40.3610176   3.7981748
  58.7186734  39.7344583   4.1865873   7.2662274  33.6764807  15.5602645
   7.8662912  33.6076397  14.8176860   7.5909750  34.4240850  16.0621166
  39.9077401  45.8459228  23.1753730  39.2804895  46.2620014  22.5840473
  40.6958792  46.3846916  23.1061649  70.8670269  12.0571699  59.6216917
  71.6852223  12.5037088  59.8394012  70.2198731  12.7597227  59.5597696
  55.8339408  38.9597505   9.5714425  55.2174463  39.3234152   8.9359044
  56.4672673  39.6620029   9.7196721  54.7026788  18.4864988  50.9098911
  55.0616108  19.3721666  50.8552313  55.2861940  18.0284967  51.5148497
  76.2086426  16.4487829  33.4042144  76.4710175  16.7965879  32.5519109
  76.5731799  15.5639448  33.4243488  20.4133248  54.8840666  66.3375521
  20.9463000  54.9738264  67.1275616  20.5088282  55.7234716  65.8875465
  46.3567542   3.4431734  56.1852312  46.3914012   3.7932672  55.2950239
  46.4332961   2.4956503  56.0731125  53.7160794   4.3932241  33.8019180
  53.6118472   5.1117414  34.4256973  53.7767939   3.6091846  34.3476486
   3.2986789  27.1060743  57.8862953   2.5951533  27.6086225  58.2970572
   3.1227927  26.1990728  58.1365871  64.9032787  46.6668457   0.2013683
  65.6574039  46.1604446   0.5031776  65.0283430  47.5346798   0.5853605
  80.1786635   6.6042274  12.2858238  80.8772061   6.4311689  11.6547012
  80.1219723   7.5589651  12.3245334  13.6559010  71.5859032  18.1102669
  12.9684353  71.2408447  18.6799681  14.1674805  70.8167791  17.8593302
  65.0237475  23.3366960  25.7941150  64.1320644  23.6638254  25.6752776
  65.1450453  23.3112902  26.7432594   7.3926628  20.7253337  67.4925852
   8.1766647  20.5053782  67.9957676   6.7566550  21.0059667  68.1505919
   4.0143167  79.2641548  18.2344722   4.4955384  80.0686936  18.4278106
   3.5669075  79.4454292  17.4079227   2.3479660  54.0137196  45.1109457
   2.2970706  54.9547291  44.9431849   2.5503722  53.9473963  46.0441446
  28.8453142  59.3289036   2.5747394  29.6931449  59.4891113   2.9891633
  28.4188453  58.6867946   3.1422424  10.5081312  27.3726600  17.6038932
  10.1185051  27.8485388  16.8704318  10.3958098  26.4495033  17.3771762
  30.7442882  43.8779440  56.9355154  29.8955696  44.1325464  57.2975731
  30.9128891  44.5200719  56.2459707  51.6474520   3.8736810  40.9292126
  51.5820371   4.5647611  41.5882730  52.2320520   3.2243814  41.3202190
   1.8730585  14.7747415  20.8243083   2.0115773  14.6058172  19.8923683
   1.3098446  14.0580553  21.1165046  51.8470107  20.7617368  58.9827919
  51.2296211  20.8106889  58.2529545  51.4857851  20.0866022  59.5571995
  45.3054190  75.5667543  63.6411047  46.0731602  75.1643467  64.0471649
  44.5611334  75.1003170  64.0215063  15.6227724  76.1772484  15.5885600
  16.4287035  76.5604729  15.9347534  15.3725235  76.7559379  14.8683261
   1.0773770  67.0903152   3.3338308   0.6774751  67.7561611   3.8932657
   0.5872528  66.2907356   3.5253429  35.5472939  25.6538191  48.7925529
  36.2329679  25.9996309  48.2211590  34.8609071  25.3611650  48.1930065
  66.1787027  50.7788420  44.6995544  66.2742144  50.6837606  43.7518883
  66.3516587  51.7054653  44.8659372  72.4092418  77.0639133  66.6033649
  72.5697142  76.1411238  66.8007040  72.6494557  77.5258923  67.4065447
   9.6180260  53.3566236  64.6888924   9.6278501  53.8643789  63.8775253
   8.7538916  53.5233545  65.0653315  39.1368792  42.4257702   9.4212865
  39.6436951  41.7576927   9.8828410  39.5389412  42.4747700   8.5540056
  83.6593949  33.3270254  45.8782244  83.8517605  33.1937685  46.8063784
  84.4267546  33.7872495  45.5382490   1.4566379  11.4514246  49.1522217
   2.3371320  11.1370363  49.3574429   1.5403800  12.4048223  49.1363573
  54.3115021  62.7898258  14.0655040  54.5706017  63.0224651  13.1738853
  54.1682131  61.8439239  14.0341949  67.1483133  29.9332899  21.1690044
  67.9317210  29.5626205  20.7626724  67.1378074  29.5623487  22.0513439
  13.7380946  49.0168333  29.4783330  12.9756463  48.7528753  28.9633274
  13.4596407  49.8155594  29.9263597  82.9571817  37.2970861  10.8797931
  82.1457408  37.7112812  10.5861282  83.6447618  37.7347273  10.3778648
  73.2677768  39.8314899  25.5767345  73.6433277  38.9614672  25.7118320
  73.9221237  40.2965015  25.0553607  69.0679728   1.4480867  38.2492495
  69.2284237   1.7862024  39.1302490  69.9103438   1.5336027  37.8027844
  32.5624751   6.8027963  35.9053683  33.3358582   6.6221895  36.4396811
  32.7885201   7.5941553  35.4166055  55.4040203  15.6172985  10.4449558
  55.2626508  14.7789329  10.0051879  56.3457729  15.7712835  10.3699779
  32.4098895  47.0296234  13.5270976  31.5406201  47.2212070  13.8790893
  32.2395323  46.5578693  12.7118301  18.7684016   6.2566938  51.7947865
  18.0048286   6.4504709  51.2510586  18.8221263   6.9934072  52.4035454
  44.8896438  65.6204748  55.2080727  44.7554952  66.0785818  56.0377550
  45.2344257  66.2903500  54.6176291  77.1971557  14.1678661   1.1510896
  76.7055307  14.9741215   1.3075971  76.5443740  13.5489982   0.8238172
   3.2856059  45.0409698  50.8860159   2.6922116  44.5435810  50.3232384
   2.8749263  45.9019327  50.9654856   8.9065564  65.9648180  37.0346284
   9.1354579  66.8722582  37.2355962   8.3652830  66.0230732  36.2473154
  17.1264076  55.1613426  36.9621968  16.5157914  55.8859348  37.0976329
  17.4658334  55.2963495  36.0774398  58.6003481   9.5083990  62.3776007
  58.6855136   8.5998907  62.0885038  59.4891917   9.8600568  62.3273516
   2.2163634   5.1290979  64.3730116   1.4370160   4.9280347  64.8911095
   2.2248988   4.4635858  63.6850786   4.8079687  68.6961079  33.2607985
   4.9926871  68.7882471  34.1954756   5.6430727  68.8831806  32.8320336
  48.2912349  11.2067403  45.7992887  48.6667405  11.6752901  45.0538397
  49.0243780  10.7118311  46.1650705  75.0538728  27.6965422   9.1348218
  75.6246219  27.1410507   9.6657705  74.9173746  28.4792513   9.6686506
  13.7185788  54.7688627  37.6271987  14.2938638  54.8861361  38.3831906
  12.8374815  54.9140501  37.9719019  15.1132845  61.5802960   2.9582071
  15.7457613  62.2067050   3.3100843  15.4859184  60.7228116   3.1633758
   1.2658016  15.6591362   3.3247804   1.4947287  16.5779251   3.1845855
   1.8224255  15.3819603   4.0525007  37.2574138   3.9350214  63.6685419
  37.6495825   3.4075155  62.9727221  36.3800382   3.5692014  63.7808657
  10.1613990  20.9846729   4.6344995   9.6577088  20.7536358   5.4149818
   9.6130792  20.7011122   3.9029502  27.7793429  68.0486159   7.1498346
  28.7308995  67.9867415   7.0665073  27.6276553  68.1566433   8.0887460
  44.4284474  34.7420110  55.2060699  44.2332112  35.1413431  54.3583345
  45.3134095  35.0418081  55.4139185  24.3007366  66.1528725  15.2738284
  23.7581007  66.9138283  15.0671195  25.1765481  66.3942093  14.9722671
  15.2053999   6.3295641  56.0637522  14.6894037   6.6665449  56.7961597
  14.5988451   6.3298502  55.3232622  58.0217737  42.5970596  14.4150161
  58.5847966  43.3615154  14.5368671  57.4665644  42.8249306  13.6693286
  55.8712790  21.9915527  10.9037208  55.5861776  21.2185901  11.3910293
  55.3678610  22.7123970  11.2821197  49.3776332  36.3082781  48.5749578
  49.2899023  36.9060316  47.8325033  50.1808106  35.8195295  48.3953476
  57.4335244  19.8915857   2.2029685  57.9103892  19.1027588   1.9449186
  57.3557706  20.3994221   1.3953256  48.8066486  34.5575804   3.0952167
  49.2857484  33.8201851   3.4732913  47.8927980  34.3944258   3.3286476
  19.8848239  20.9445137  12.0721340  19.2029039  20.9199423  11.4008617
  19.4535152  21.3236708  12.8379344  72.7683113  27.5354570  14.1412067
  72.0589123  27.0642084  13.7042808  73.2796369  26.8514246  14.5734977
  29.0930510  31.1149740  52.0382261  28.5999966  30.3061724  52.1759462
  29.7247434  31.1357546  52.7570868  56.3258277  23.7888422  37.0720053
  57.0484196  24.3058672  37.4280572  56.7125808  22.9333582  36.8854737
  81.5368483  28.0253738  40.4487228  81.7437933  28.8294405  39.9724006
  80.6498621  28.1650013  40.7803726  59.3905643  40.2793926  12.0106315
  58.8357047  39.6041197  12.4009799  58.8042253  40.7655758  11.4309310
  14.8485557  28.9242309   8.2877635  14.4391624  29.3904489   7.5588798
  14.2459003  29.0493482   9.0208244  79.9050114  58.4452576  21.0674857
  79.0236066  58.1376880  21.2790393  80.3659628  57.6623863  20.7660484
  43.2701159  60.8062792  62.5458050  43.6887074  60.1526642  61.9856262
  43.7454271  60.7509422  63.3748102  11.4732901  74.7357696   6.0632133
  11.0920207  74.9687427   6.9097328  11.5826289  75.5724949   5.6113576
  20.5908338  30.0286764  26.0204696  21.1638919  30.7332367  26.3228511
  19.8755018  30.0122207  26.6562843  40.0569164  12.1865453  23.1616664
  40.2117621  12.0122327  22.2332978  39.6382331  11.3901605  23.4883165
  53.1365279  29.0520567   4.3504094  52.3222438  29.3144602   4.7797345
  53.5629208  28.4709686   4.9802923  13.0965649  20.8451357  51.7196321
  12.9069089  21.6186609  52.2505856  13.7749838  21.1340227  51.1092901
  39.2726945   8.2191362  44.8511839  39.1612159   8.5443964  45.7445002
  38.5006999   7.6747980  44.6964025  10.7623641  54.5430034  10.7456302
  11.2021152  53.8651317  10.2324628  10.3763548  55.1258034  10.0917482
  80.0228665  53.8663811  12.2817325  79.3122456  54.4870418  12.4430656
  80.8214829  54.3806785  12.3998069  55.5125462  25.1521577  56.6498280
  54.6538626  24.8178663  56.9089508  55.3209769  25.8184518  55.9898424
  24.3768207  66.3760704  36.8061256  24.8378793  67.2135395  36.7580318
  23.8309757  66.4478058  37.5891589  84.8264061  19.2561521  52.8630352
  83.9852797  19.4743814  53.2644224  84.9433028  19.9150171  52.1785927
   7.5365392  37.8127283  54.3092346   7.5170819  38.6905140  53.9279842
   8.3106510  37.8132433  54.8722457  67.9222499   7.8880014  28.5590410
  68.4745823   7.5239648  27.8672051  68.2195698   8.7931432  28.6515093
  45.0125944   9.2140093  45.1957893  45.5340635   9.6074667  45.8954287
  44.1367601   9.5816126  45.3141689  30.0203768  48.8707844  11.7858409
  30.7846545  49.4055633  12.0006084  29.9723721  48.8944880  10.8301448
  29.3164897  23.3540034  64.1232061  30.2713084  23.2880735  64.1375494
  29.0571761  23.2755661  65.0412703  54.4917852   8.7760997  56.1102629
  54.1004425   7.9026788  56.0954618  54.3391758   9.1218662  55.2308369
  84.5750850  19.8548222  26.1030555  84.3059042  19.6361518  26.9952202
  85.3390575  19.3013811  25.9409380  73.9677126  74.9063299  50.1486444
  74.9011381  74.9906144  49.9541092  73.7024195  74.1006325  49.7051287
  76.0601957  80.4864472  57.1317530  76.9968386  80.2892921  57.1395922
  75.6466956  79.6988913  57.4853134  44.3873978   1.9945519  68.3707190
  43.5860205   1.7844850  67.8912401  44.0842009   2.4504401  69.1558743
  74.6249301  77.8451807  51.2227201  75.1236875  77.1572498  51.6634274
  74.9304254  77.8190307  50.3159571  25.9545592  48.8233773  11.5990543
  25.0640189  49.1723780  11.5620517  26.0927588  48.6171101  12.5234889
  12.5586963   9.7690421  47.7471066  12.5045300   9.2945749  48.5766697
  13.3695483  10.2735317  47.8122282  68.9909237  69.9349550  17.9055595
  68.6148088  69.4308023  18.6270904  68.6335771  70.8159165  18.0170917
  78.1902123  10.8687449  65.5735302  77.8502041  11.7612159  65.5093241
  79.0157753  10.9605980  66.0491753  82.3169863  18.4791648  55.7150936
  82.2915593  19.3184376  56.1746693  81.6929126  18.5806179  54.9964380
  79.2354715  13.5026991  49.4747066  78.3648193  13.5435820  49.8703384
  79.8352265  13.6967587  50.1950312  30.7550462  23.3860878   3.9375305
  30.6849550  24.1134135   3.3192109  30.7453062  23.8025681   4.7993183
  12.8049350  21.7670131  56.5176821  11.9485164  21.6368246  56.1104584
  13.0174041  20.9179759  56.9052696  45.1371366  42.3209381  62.3138905
  45.0498515  42.3276854  63.2670784  45.4633123  43.1943369  62.0970583
  19.6676922  26.4445162  50.3181553  19.2519200  27.2418094  50.6463194
  19.6973240  26.5631723  49.3688011  58.3168752   2.8108734  30.3036117
  58.1871501   2.5419849  31.2130641  58.9567322   2.1881193  29.9586677
  16.9545615  23.9637804  14.7407937  16.4721870  23.5205269  15.4386997
  16.8767178  24.8946548  14.9497080   8.1562430  40.9220695  50.5254698
   8.7293804  40.4869938  51.1567020   7.9975736  41.7873573  50.9027386
  71.4367719  53.4248147  31.0804272  72.0034714  53.5186849  30.3147411
  71.5098650  52.5011525  31.3207054  60.0521404  29.1364455  62.7162218
  60.4034883  28.7664580  61.9063473  59.1109210  28.9692664  62.6673460
  44.7224265  27.5797510  58.9261961  43.8713199  27.9831481  59.0968418
  45.3380281  28.0860353  59.4562387  17.3926890  27.6675296  63.8786316
  17.9513288  27.9995155  64.5814371  17.8770769  26.9247365  63.5182714
  22.0768476   1.5450297  45.5696535  22.9585862   1.3827479  45.9049654
  21.5157676   0.9592243  46.0778379  13.2363546  12.1982241  58.4733534
  12.8061986  13.0505192  58.5425711  12.8106463  11.7749226  57.7278185
  60.5358351  74.0079508  62.5804853  60.6627146  73.2247374  62.0450306
  60.7482309  74.7351036  61.9953632  17.4050583  70.9645430  44.0959167
  16.5904535  71.1607687  43.6331558  17.2491373  71.2624452  44.9921179
  84.1676310   3.4448296  30.5636477  83.3587843   3.2344472  31.0302711
  84.8250552   2.8672549  30.9515023  11.3972032  33.3266711  28.3707595
  10.6256127  33.0535889  28.8670540  11.0418367  33.7593842  27.5944185
  19.1726577  23.6747265  37.0355439  19.7044289  23.7854457  37.8237009
  19.8070061  23.6588216  36.3189006  80.9250138  27.0516914   9.7536229
  81.1843393  27.9424375   9.5179176  79.9683950  27.0781654   9.7738551
  75.9303498  34.1218925  33.9323902  76.8326819  34.4335890  34.0021992
  75.3955197  34.8883724  34.1390252   2.9753909  36.5075302  32.2655487
   3.8404045  36.3094759  32.6243782   2.5066283  36.9259787  32.9876232
  38.0294323  65.8360720  39.1010308  38.5965061  65.7922745  39.8709249
  38.3279967  66.6125202  38.6275101  45.5530905  31.1282031   3.4533548
  45.6148504  30.7343791   2.5831127  45.7992016  32.0435635   3.3200216
  28.2988505  71.2468676  12.6154613  28.1635276  71.6106013  11.7404651
  27.7055792  71.7460803  13.1767463   2.0853661  42.7034187  62.4687290
   2.4016790  42.9999781  63.3220911   2.8126949  42.8754282  61.8706989
   9.8935282  16.3114405  12.2283602   9.6519542  15.7154012  12.9373109
   9.8872143  15.7643950  11.4429092  18.8066339  24.2843509  33.1257558
  19.5475411  24.6806622  33.5842609  18.1237483  24.9546647  33.1498408
  56.3385801   1.8067926   1.1467122  56.9116202   2.0795339   0.4301452
  56.2301917   2.5944132   1.6797590  23.9396191  32.9548407  57.9838276
  23.5449433  32.4993134  57.2402143  23.9496303  33.8756847  57.7227211
   2.5714907  19.9886525  48.6453962   2.9391137  20.5325913  49.3419743
   1.7266120  19.6981943  48.9889765   0.6969056  42.3759222  31.0072279
   0.1978771  43.1304979  30.6944728   1.3217716  42.7442217  31.6318297
  59.7087842   3.7620410  47.4890471  59.9883539   4.4665712  46.9044876
  60.4318959   3.6636096  48.1084442  17.3666668   7.1448469  46.8186474
  17.2188652   6.2684214  46.4633131  18.1900752   7.4285889  46.4215088
   9.9604803  30.6244755  55.0335836  10.1090741  29.6841240  55.1330423
  10.0648320  30.7855844  54.0958261  57.5644833  31.1523271  62.2535086
  56.6679364  30.8711481  62.4361849  57.6979715  30.9416533  61.3293695
  80.6628993  35.6155038  52.7477789  81.0491851  35.8563709  53.5898018
  81.0064366  36.2633753  52.1325779  74.4945294  35.8658481  63.5958147
  74.1884738  35.0156164  63.9115191  74.4682759  36.4314985  64.3675566
  83.9688797  62.5116062  43.8529634  83.9158215  61.7972898  43.2180071
  84.8988215  62.7363443  43.8834906  83.3212464  15.6062202  12.5700759
  83.6415618  16.2591843  13.1923866  83.8497298  15.7449035  11.7841338
  81.0542542  40.6139374  58.9267588  80.6072500  39.8450947  59.2807341
  80.9628275  41.2792921  59.6087980  83.9520606  35.3991914  54.5757580
  83.1062418  35.8421588  54.6435976  84.3763029  35.5626988  55.4180861
  35.1797650   1.3991636   0.7512521  34.4881175   1.9131178   1.1680364
  35.9703777   1.9272846   0.8619451   6.0428214  32.1216178  60.3201485
   5.3423160  31.4955902  60.1368141   5.5953199  32.8767920  60.7018423
  19.4768428  69.3881969   5.1795577  19.2970400  68.5022477   4.8649263
  18.9918904  69.4532232   6.0022544  17.7370965  18.7371314  61.6931295
  17.8692842  18.7493229  62.6410818  18.1584442  17.9281306  61.4029312
   8.1636423  25.0740576  28.2047677   8.3236265  24.9157310  29.1351271
   9.0219259  24.9721980  27.7934217  33.1984663  41.2383461  59.0739584
  33.5183239  42.0901489  59.3712091  32.2951055  41.4027882  58.8035345
  33.9152455  36.9652033  29.6548557  33.0111456  37.1900225  29.4351053
  34.3728709  36.9639969  28.8141346  48.9699650  40.5084372  60.0288248
  49.7293711  40.1551914  60.4922342  49.2857075  40.6698704  59.1397381
   0.6823365  32.9150724  66.6690445   0.0678391  32.6150775  65.9992504
   1.5465079  32.7645493  66.2859249   4.2924887  35.4208970  69.0008402
   4.5009756  36.1739755  68.4479952   4.8822683  34.7306228  68.6976671
  40.3656422  57.7609924   0.9098863  40.8537566  58.3586876   0.3435468
  40.9967743  57.4959711   1.5789651  83.5643332  67.3424749   7.3727702
  83.4436195  66.6358642   6.7384528  82.7464264  67.8384642   7.3373365
  13.8187861  45.2172995  63.0244207  13.0048645  44.7145939  63.0567980
  13.5800791  46.0814476  63.3598375  21.1000371  32.9076838  52.0537281
  20.7233071  33.1383514  52.9029036  20.4104614  32.4115944  51.6125774
  37.5475550   9.3458641  63.5495853  36.6159296   9.1336632  63.4923506
  37.8450251   8.9055347  64.3457317  70.8025771  63.1156588  48.3934546
  70.5488700  63.1111002  47.4704981  71.7256671  62.8624392  48.3893538
  27.5229071  32.0249561   5.9780311  27.0699263  31.4849363   5.3304099
  28.0815549  32.6034526   5.4589128  55.2554208  63.9470196  24.3320560
  56.0262924  64.3031025  23.8902545  55.1744348  64.4689512  25.1303411
  37.4954081   2.4495338  47.1870995  36.8845129   2.5586793  47.9158831
  37.8318095   1.5590766  47.2878647  22.8194642  37.1108365  62.3596478
  22.2037101  37.3586440  61.6699648  22.3169565  37.1929073  63.1701946
  78.7747667  41.4625210  20.1689720  79.0515492  40.6342262  20.5608367
  79.4703028  42.0794529  20.3966712  52.3529879  13.8343519  13.7231826
  51.6688929  13.9452833  14.3834400  52.8973995  14.6170181  13.8085269
  18.1889914  53.7228314  23.6713504  18.1684874  53.2972686  22.8142070
  17.2925114  53.6466626  23.9980888  23.0088632  61.0495834  30.2685546
  23.3780460  61.6455487  29.6168136  23.5801141  61.1445097  31.0307121
  28.6689687  40.7647705  26.2131739  29.6236825  40.8212852  26.1736608
  28.4227037  41.3621092  26.9194126  77.0033211  14.7829902  36.6020155
  76.0531485  14.8981881  36.5904307  77.3313594  15.5463624  37.0772886
   3.1838608  29.5845461  19.3441308   3.4008554  29.9960971  18.5076070
   2.5627244  30.1869464  19.7534394  70.0880557  14.2678571  28.7559819
  69.6375841  14.9748456  29.2180157  70.1016647  14.5499539  27.8413939
  11.0099936  27.5834298  28.2846642  10.8639526  26.6929698  27.9653144
  11.9416595  27.7424240  28.1331730  22.8767674  61.8657307   3.3750963
  23.7539272  62.2323589   3.4864806  22.3307066  62.6171164   3.1438588
  25.0005477  63.3215837  46.5094852  24.5713647  62.4696664  46.5886783
  24.3752332  63.8606981  46.0251617  68.1980103  43.4085941  43.2292604
  67.6527649  43.2786083  44.0051746  68.7993866  44.1118622  43.4741974
  11.9874835   8.3282274  43.7874937  12.2627866   7.4624300  44.0888786
  12.6158714   8.9311427  44.1847992  76.8894428  29.4401193  43.8485241
  76.1573523  29.6043515  44.4429159  76.4757389  29.1896915  43.0224705
   9.4177574  47.4356747  18.3584583   9.2728704  47.2085238  19.2769575
   8.5845095  47.8076744  18.0694139  69.6663016  35.3096390  53.1026125
  69.5633537  36.1184049  52.6010847  70.6000310  35.1077342  53.0424833
  19.6631145  52.6168537  25.7513499  18.7809980  52.2555351  25.8382320
  19.5314109  53.4770060  25.3525710   9.9206465  51.5401888  49.1153717
  10.2803361  52.4258518  49.0657997   9.0863580  51.6457510  49.5725918
  49.5331036  68.8495497  23.4895515  49.7688161  67.9423813  23.2953357
  48.6589610  68.9554934  23.1142139  20.2986050  48.2272577  41.3131571
  20.5326700  47.3148966  41.4835787  19.7285247  48.1888390  40.5451965
  83.7847725  35.6229329  42.6844501  83.6993617  36.5214562  42.3657131
  83.0515239  35.1559567  42.2838068  55.5637823  62.3485998   9.4413566
  55.3051721  61.4422588   9.2743253  55.9141885  62.3374204  10.3320455
  25.8201385  41.0948753  52.9206514  26.0064411  40.4478836  52.2402620
  26.3236213  40.7973289  53.6784124  81.4053905  38.6228561  29.4737649
  82.2333607  38.5026908  29.0087318  80.7494992  38.6949897  28.7803435
   7.2531664  20.1080275  59.7329187   6.8114614  19.2934084  59.4930744
   6.5943789  20.6033802  60.2195930  64.7418052  34.2291975  58.5166311
  64.4895631  34.3126512  59.4362211  64.0696031  33.6652303  58.1341171
  71.4438421   6.0117108  24.2773795  71.4586645   5.1466578  24.6868849
  71.3666898   5.8318585  23.3403993  21.9113343  62.9193358   0.1255941
  21.3952880  63.4908251  -0.4430247  21.8902652  63.3496312   0.9803676
  32.4510481  73.1603960   3.3465528  33.3137118  73.5141901   3.5630512
  32.0982250  73.7695769   2.6979780  73.3523114  70.1705239  65.5927610
  72.8418822  69.4575057  65.2089691  73.9741630  69.7336457  66.1747169
  26.4561677  30.9797907  63.6022711  27.0372891  31.6739535  63.9131880
  25.5746770  31.3307691  63.7288475  80.1240480  25.9161139  48.3130503
  79.6465772  25.8267736  49.1378403  80.0283200  26.8394828  48.0796909
  65.4938191  38.9908838  19.9516392  66.2478215  39.1281080  19.3781567
  65.7485503  39.3923712  20.7823920  11.9030570  74.8688535   0.8712386
  11.3289594  74.8819045   0.1054239  12.0262514  73.9390639   1.0624122
  28.3393025  67.5778484  56.7607498  28.6861324  68.3586454  57.1923733
  27.4405217  67.5058460  57.0820618   7.5557917  31.3543773  56.7466497
   8.4309280  31.1089659  56.4464092   7.6366144  32.2759056  56.9925833
  79.1686416  28.0573177  46.7849874  78.6222518  27.4762201  46.2558222
  78.5465187  28.5465646  47.3233461  26.5317293  33.6900638   8.2094573
  25.7132031  33.2007394   8.1269407  27.1577855  33.2014523   7.6750898
   1.4111638  30.7432199  55.2745199   0.4909815  30.4800963  55.2907324
   1.5914159  30.9273458  54.3526506  60.9257332  16.6047043  24.4184112
  60.0138671  16.7247480  24.6835994  61.1609853  17.4278301  23.9902114
  20.9509754  40.0219154  45.0163841  20.2890491  40.6201506  44.6696901
  20.8641815  40.0935316  45.9669447  63.8598400  24.6540523  68.9494848
  62.9145581  24.5650935  68.8279963  64.1624719  25.0976181  68.1570864
  23.1861292  35.2072833  44.5236396  23.0631076  35.5028046  43.6215495
  22.8211551  34.3225078  44.5377063  22.0075345  41.8893099  38.8179731
  21.8158293  41.3265371  38.0677915  21.1545157  42.0488691  39.2218661
  33.8997746   4.9185938  40.1805019  33.3158803   4.2296606  39.8632169
  34.7736907   4.5304364  40.1376390  12.7558744  32.4477267  33.4406281
  12.0286441  31.8265224  33.4022784  13.2036877  32.2418833  34.2611909
  41.2190256   4.1297478  19.4371414  41.9503556   4.7472853  19.4429778
  40.6458709   4.4438690  18.7378215  80.8099756  58.8637686  41.9760036
  80.1210302  58.4407520  42.4884939  81.1929321  59.5060110  42.5735807
  62.0936428  77.2898630  14.2999935  62.6730143  76.6751675  14.7502231
  62.2649466  78.1324224  14.7206878  64.7307640  63.7264395  56.1074829
  64.1294771  63.0835581  56.4835072  64.4555551  64.5616150  56.4855957
  69.4224018  46.2223148  53.6975479  70.2184254  46.6776466  53.9718676
  69.3347031  45.4984951  54.3177271  44.9982058  50.9073226  11.7558860
  44.5298790  51.3731889  12.4486160  45.6264459  51.5465287  11.4197921
  11.6418278  25.0828600  46.6497993  12.0532119  24.2229724  46.7369175
  11.0615170  24.9952388  45.8936310  18.4254335  50.9819380   4.3544530
  18.2086765  50.3053657   3.7129735  19.3798410  51.0468392   4.3209028
  70.6158549  26.9941950  53.1216860  71.3502985  26.3969874  53.2636929
  70.5354291  27.4750471  53.9454269   6.7194164  39.8063731  36.0334015
   6.0207641  39.3608499  36.5125942   6.7493087  40.6839418  36.4144635
  27.1999502  25.1733637  29.3077993  27.1848130  24.6908092  30.1343226
  26.2988877  25.1288056  28.9879036  79.1809267  53.4892368  61.8473959
  79.3422276  52.7875900  61.2165976  79.6945208  53.2425594  62.6165533
  18.0601549  48.4597301  39.5699835  17.3060703  48.1377554  40.0638628
  17.6782441  48.9599705  38.8487792  52.9396015   9.2720729  15.0527704
  53.8639814   9.0606642  14.9221575  52.5022703   8.4214246  15.0897861
   3.4833187   0.6228378  67.6158571   3.7383312   1.0354993  68.4410334
   3.6730823  -0.3065494  67.7441597  12.5200665  51.0511398  53.0465412
  11.9166481  51.4925194  53.6442900  13.3342505  50.9717083  53.5435581
  15.1436090  35.6278753  49.2549896  15.2514184  34.6834159  49.1427135
  14.5641589  35.7144880  50.0119352  74.7306258  34.7042441  68.9226913
  74.8712283  34.5403051  67.9901743  74.5155591  33.8456345  69.2870617
   0.3129536  61.9628716  34.7097826   1.0354601  62.1201181  34.1019273
   0.6703444  62.1856213  35.5693674  80.9188914   7.6228130  67.5518847
  81.5695015   7.6846749  66.8525171  81.2820613   8.1491917  68.2641077
  36.2134647  23.3365583  65.3241396  36.9849539  22.8644967  65.0107813
  35.4943252  22.7126431  65.2251434   8.9992756  39.6592140  26.2060452
   8.1085384  39.6883488  26.5552902   9.2833942  38.7564850  26.3495445
  62.1504680  37.3392099   2.5622415  62.1510718  38.1240219   3.1102418
  63.0404673  37.2900099   2.2133684   3.9176419  19.8025441  65.7341290
   4.8418382  19.7896624  65.4852772   3.8936397  19.3717349  66.5885639
  43.4161435   0.2611818  46.7094374  43.6977052  -0.6461392  46.5922594
  43.9012717   0.5653371  47.4764872   9.4775385  27.4925613  59.4736528
   9.4857115  28.3007550  58.9608288  10.3783393  27.3957944  59.7825623
  19.9002349   0.8398742  31.4298129  20.2138400   0.2187540  30.7724762
  19.0807068   1.1775917  31.0684919  36.7840123   2.8025171  42.0793152
  36.5785456   3.0801055  41.1865902  37.4307609   3.4385115  42.3850298
  27.7300620  18.2993305  42.7816725  27.3199487  18.9043665  43.3997107
  27.9588127  18.8444614  42.0288563  23.4103966   3.5283178  66.8535376
  23.4608316   2.6201224  67.1516466  23.4652925   4.0472102  67.6560163
  69.9441773  21.4347816  42.2187662  70.3156954  21.9858861  42.9076004
  69.4176406  20.7874823  42.6878023  70.8907682  23.4971499  23.3646035
  70.1043469  23.9944220  23.1398964  70.6439799  22.5828648  23.2252789
  40.5583525  21.4894485  48.7665558  39.8124528  20.8895755  48.7709999
  41.3219261  20.9214211  48.6639547  50.1910378  72.9876141  38.5988879
  50.4249967  72.3025684  37.9726243  50.8149071  72.8791283  39.3166971
  60.6728250  51.0477114  47.7889729  61.3513666  50.4623222  47.4526262
  59.8507839  50.5955029  47.5992537  62.3633654  68.7636206  25.8325815
  61.7850481  68.9499698  25.0929499  62.7356328  67.9042087  25.6349421
  63.7266111  74.4218063  66.6330767  62.8566408  74.8122311  66.5497160
  63.6568499  73.8408947  67.3906422  33.7933802  25.1783552  16.7993402
  34.0667765  25.2718725  15.8867943  32.8850060  24.8809518  16.7479455
  18.7313020  79.3389559   6.2187040  18.4281731  79.7824144   5.4264355
  19.2235303  78.5836792   5.8969915  62.2413951  11.5667284  29.3415189
  62.3573142  11.1036980  28.5118222  61.6064316  11.0376728  29.8243761
  44.1367990  33.2567954  65.0150347  44.6903783  33.8551521  64.5132828
  44.2850047  33.5023260  65.9282637  83.7855051  38.4636110   0.2023792
  83.9331625  37.5935119   0.5730056  83.8159321  38.3288091  -0.7447911
  27.0161963  74.1741848  50.8923721  26.1808062  73.7070131  50.9025431
  26.9092107  74.8703432  51.5405655  76.4545995  40.3826904  63.9337444
  76.3089478  40.0998116  64.8365164  76.0484177  39.6996069  63.4002209
  36.0513306   3.5532239  27.9345059  36.3551116   2.8271437  27.3897529
  36.7274070   3.6484987  28.6053824   1.6895837  51.1672211  60.8918428
   1.4823064  50.4156542  60.3364944   1.8716788  50.7870293  61.7512178
  55.2775699  46.7744398  47.2178602  54.3941003  47.0495367  46.9728470
  55.5171043  47.3542261  47.9408407  29.3109155  26.3331413  27.4327540
  29.1089129  27.1742868  27.0229936  29.1013718  26.4609647  28.3579469
  44.2396711  43.8532571  19.5948505  44.3354772  43.1495438  18.9531040
  45.0827288  44.3063555  19.5811080  70.4964191  46.1066628  65.8596134
  69.6876544  46.5582371  65.6183481  70.5163759  46.1455917  66.8158150
   0.3171324   1.0496455  39.2259169  -0.0067085   1.7159413  38.6197734
   0.6865258   1.5481693  39.9547887  16.6029346  16.7069578  31.9816637
  17.5393760  16.8590939  32.1087980  16.5096295  16.5610135  31.0402679
  43.7455605  76.1544017   9.6877908  43.3369552  75.8598689  10.5017471
  44.4725071  76.7086772   9.9716186  68.3616680  15.9961712  41.1449194
  68.2518941  15.1769674  41.6277075  69.0205985  15.7959414  40.4801226
  75.5255294  28.8218832   5.4544902  74.6024054  28.9251280   5.6856084
  75.9818894  29.4636917   5.9985942   6.1893135  17.6056099  59.9805832
   5.4305267  17.1905971  59.5704126   5.8485597  17.9766178  60.7945061
  38.1403804   4.8561788  43.3057070  37.8073645   5.6834042  42.9578161
  38.1841063   4.9945396  44.2518473  49.2610442  72.1874098   5.4495334
  48.4409510  72.2150616   4.9566745  49.2572867  71.3288764   5.8727836
  50.4809578  74.5208126  58.6161531  50.9575780  75.0649673  57.9892862
  50.9495862  73.6861807  58.6136795  72.2597641  25.8682013  41.9185209
  72.1992022  25.2673483  42.6611805  71.8035203  26.6572165  42.2109747
   0.1398494  14.3435740  65.8839130   0.7837120  14.6445632  65.2427578
  -0.6486303  14.8493397  65.6871080  21.6953104  75.1001934  24.3640708
  22.6199614  74.9904684  24.1422271  21.2681006  75.2819065  23.5269832
   1.5749855  48.5712147  37.9135609   0.8501384  47.9632282  37.7680278
   1.2945148  49.3835688  37.4920726  21.3497591  45.0042343  52.2045994
  21.4575362  45.0553751  51.2548637  22.0261335  44.3898296  52.4896669
  15.7089949  50.2513361  10.5742836  15.7269013  51.2063265  10.5117917
  16.1121833  49.9504232   9.7599602  40.3385769  75.5548171  31.7577552
  39.4891118  75.2060990  32.0280074  40.5143021  76.2637047  32.3764896
  42.6148402  68.9610271   2.1583080  41.7802071  68.7830238   1.7247962
  42.9886137  69.6926455   1.6671275  23.3312964  33.0872893  42.6681566
  23.3314013  32.8243256  43.5885286  24.2434883  32.9959345  42.3928547
  17.9621673  33.4714246  63.8496399  17.8601098  34.3866348  64.1107988
  18.5470319  33.5021901  63.0925274   3.1911823  26.0168695  67.3526525
   3.7652153  26.5988731  66.8546677   2.3520593  26.4764261  67.3828554
  32.7257628  78.5110200  29.2450023  33.6664338  78.4010465  29.1061616
  32.5367613  77.9920695  30.0267935  72.4426228  36.6723633  57.5584364
  73.1649345  36.3404870  58.0916882  71.8986720  35.9036517  57.3868895
  77.2526771  29.7478008  47.6762819  76.4501148  29.3455362  47.3441553
  77.0264244  30.0401282  48.5592270  30.7146506  79.2323474   9.8496389
  31.0684239  78.5593800  10.4311847  29.8881673  78.8663558   9.5346641
  65.7182393   1.5008396   5.0970888  66.3934986   1.6456217   5.7598829
  64.8924372   1.6068834   5.5693578  37.0399468  56.5519933   7.8490972
  37.4290179  56.7364673   6.9942140  37.0924269  57.3833768   8.3205604
  72.3188145  74.2118744  55.6444502  71.5572281  74.0987710  56.2131548
  72.1823401  73.5851715  54.9339247  23.3010268  31.5000248  30.2194953
  22.3745823  31.2782502  30.1259494  23.7142587  31.1382031  29.4355583
  19.3747962  25.0033617  47.1997690  19.8177290  24.1715693  47.0319510
  19.3751979  25.4500079  46.3531685  51.0240541   0.2680296   4.7644710
  51.1725251  -0.0520378   3.8746690  50.5148993   1.0702556   4.6485996
   1.9389150  46.6298151  23.3105087   1.8322755  45.6786680  23.3239841
   1.4758526  46.9115877  22.5215793  19.6949911  12.9607844  53.7176228
  20.5252123  13.1222332  53.2694054  19.6016014  12.0081627  53.7129974
  72.0736343  21.9565463  63.1401157  72.7679163  21.6220188  63.7078285
  71.2845558  21.5003490  63.4324694   0.9121688  38.2336020  22.4144149
   1.1412451  38.0711293  23.3294868   1.3773923  37.5539231  21.9267344
  27.3151326  28.4124804  44.7391701  28.2404804  28.2109809  44.8783112
  27.2270465  29.3282413  45.0034666  11.2291050  14.7032762  55.8317661
  11.1175179  14.2774057  54.9818134  10.3668523  15.0673413  56.0322857
  73.7665242  23.8857412  26.8730450  72.9988951  23.3139825  26.8647361
  73.8030201  24.2247200  27.7674699  81.1135459  52.9483461  50.8398914
  80.1686662  52.9501486  50.6868172  81.4974257  52.8646564  49.9670458
  18.5532093  29.7396326  32.9256010  19.1395950  30.4598236  33.1573462
  17.6744652  30.1097345  33.0096436   5.8244461  45.2458525  45.3508043
   5.7083142  46.1747646  45.5504608   6.4704293  44.9426842  45.9887934
  19.9675882  73.2455015  55.8578968  20.6256318  73.4097576  56.5333462
  19.9527013  72.2929764  55.7646132  10.3277504  11.3303101  38.6547589
  10.6249166  11.9809580  39.2908263   9.4101530  11.5519643  38.4962821
  81.9828773  43.6555529  30.2415085  81.0448012  43.8390398  30.2922773
  82.1204647  42.9383039  30.8602643  48.0357653  52.6057959  63.5299921
  48.4127432  52.1008635  64.2505217  48.1670862  52.0557880  62.7576685
  17.5966668  52.1103287  14.1625893  18.4693623  51.9299412  13.8131666
  17.0437717  51.4217234  13.7933159  81.4999888  35.7149452   7.0726060
  81.1663101  35.8166784   7.9639768  81.7018340  36.6066641   6.7891931
  85.1585170  62.5590801  13.3381236  84.5864398  61.8298388  13.0990374
  84.7759902  62.9098606  14.1423988   3.7940821  57.3346519  63.9843464
   3.5401702  58.1705666  63.5931826   3.9254674  56.7507362  63.2373428
  18.5262859  47.4987125  60.3384161  18.7004328  46.7196703  60.8666277
  19.0095460  47.3499584  59.5256662   4.4298259  44.1237873   1.2403201
   4.8747317  43.7486976   2.0003223   4.2088357  43.3685631   0.6953096
  60.8839369  36.3953114  53.7818289  60.9373951  36.3802743  52.8262424
  61.3642836  37.1832108  54.0362167  77.8899514   6.6988744  47.0995092
  77.1234833   6.1362447  46.9890213  77.5698506   7.5802126  46.9071436
  23.7909975   3.1556883  43.5864162  24.7472756   3.1976785  43.5876036
  23.5862692   2.3449888  44.0523481  14.1133952  39.0640163  65.3292227
  13.2092094  39.0058780  65.6379271  14.6056092  38.4951353  65.9211111
  18.9794064  65.7384014  56.2501478  18.1758177  65.7333040  55.7300949
  18.7274349  65.3420973  57.0842218  47.6206160  60.7299948  22.4759483
  47.0059156  60.5328941  21.7691755  47.5290298  59.9968004  23.0844450
  67.2840661  30.2711868  60.8356142  66.8757850  30.9124899  60.2540064
  68.1377429  30.6489921  61.0471106  47.6242256   7.3013049  63.2862473
  48.2934666   7.2865111  62.6020479  46.8314648   7.5982207  62.8394699
  52.2270690  19.0504160  41.6161966  53.0267345  18.5488786  41.7750168
  51.5637361  18.6209478  42.1563673   1.7683657  56.6100168  44.5271158
   1.1017704  56.5860176  43.8405991   1.9839561  57.5380564  44.6192884
  83.3725125  23.5687089  34.7423005  83.3067365  23.6257267  33.7890673
  82.4644715  23.5611749  35.0450158  36.7911768  23.8500404  29.6979380
  37.4169993  23.6103487  30.3814054  36.5058875  24.7328925  29.9333453
  24.4314837  26.9399261  39.3581247  23.8956594  27.7234268  39.2346263
  23.8107944  26.2136030  39.2995572  69.8736650  14.9914348  64.1891527
  70.6955487  15.0763857  63.7059069  69.8464984  14.0725374  64.4558382
  27.9353926  75.5310706  16.3199901  27.6187483  74.7166995  16.7108440
  28.6312352  75.8243541  16.9082260  38.5903262  23.3580021  12.9505252
  38.5150670  23.6027829  13.8728237  39.2129277  23.9869658  12.5858211
  19.3110418  60.7098913  62.2696066  19.3257034  61.6661406  62.3096132
  18.5488415  60.4599762  62.7919340  72.5360864  21.0508919  21.9543266
  73.4553581  20.9415436  22.1976686  72.5548047  21.2017345  21.0092711
  20.0870991  35.4755974  57.3903894  19.2253709  35.6807828  57.0276833
  19.9915242  34.5940185  57.7508259   6.0304117  51.4278793  55.7626438
   6.2500215  50.8002090  56.4511490   6.8384749  51.9212294  55.6216717
  22.0085430   5.5302501  33.3965468  22.7279949   5.0417548  33.7965417
  22.3761606   5.8744597  32.5825381  27.8054428  62.2609615  40.5910158
  28.4234929  62.7070570  40.0120163  27.3653722  62.9684019  41.0622883
   7.2931826  63.3284426  67.8011417   6.4796382  62.8536034  67.6311350
   7.2967637  63.4659815  68.7484026  15.8238041  55.5925083  43.4283209
  15.5928195  56.2917614  42.8168297  16.7809629  55.5863810  43.4346819
  82.6296663  59.6035004  63.6173487  83.2997234  60.2154875  63.3128357
  82.8017007  58.7979317  63.1298113  63.3479320  80.6786684   2.7460336
  63.3781492  80.0918845   3.5016822  62.8070198  80.2167038   2.1055364
  10.9387219  29.4723988  57.9306698  11.5402436  30.0174284  57.4233770
  11.3588953  28.6127591  57.9572296  45.9886502  72.7395848   7.2053670
  46.7243658  73.0938772   6.7059373  46.2855028  72.7585701   8.1151771
  28.9342237  15.6314003  38.8666797  28.3508277  16.2910962  39.2417550
  28.4852505  15.3374851  38.0740476  75.7189165  17.3961439  46.9154692
  75.8528649  17.3661985  47.8627777  75.7335078  18.3288660  46.7008829
  61.1101914   9.1770119   6.3831615  61.8042553   8.5907167   6.6844367
  60.3562827   8.9566892   6.9302558  61.7425143   0.5979528  17.8345191
  60.9650194   0.5511083  18.3908820  61.7149054  -0.2062521  17.3161447
  21.5660906  68.7066317  53.0727530  21.7344141  68.9232254  53.9898062
  20.7802272  69.2053127  52.8492165  11.3148272  37.2001886  68.5401917
  11.2348878  37.7110863  69.3456888  11.7630768  36.3981986  68.8087320
  20.3597641  51.4006233  53.8566780  21.2329555  51.2714624  53.4864283
  20.1552272  52.3176241  53.6736107  20.5972219  41.4833021  56.7801666
  20.5895185  42.3841333  57.1037149  19.9091411  41.0435534  57.2795630
  80.0039589  58.3306980  65.4477215  79.1499311  57.8997803  65.4820538
  79.8826826  59.0540838  64.8327160  21.6455269  29.0967584  64.9982786
  22.5832486  29.0081954  65.1687670  21.3688684  29.8255157  65.5538034
  12.0463430  11.0715189  45.2972555  11.8294894  10.4635801  46.0040903
  11.2287330  11.1739530  44.8101664  48.6296693  32.9468054   7.8767585
  48.7344841  33.8678354   8.1154012  47.7477131  32.7215523   8.1728076
  79.9799845   8.6515421   5.6222867  79.5443294   8.1919044   4.9045371
  80.5983303   9.2401880   5.1894235  18.7234783  55.9462929  43.6499214
  19.3418753  56.6225147  43.3732510  19.1686463  55.1211882  43.4569073
  59.3839667  16.1484951   5.6337594  60.2254669  16.5118736   5.9095620
  59.2475357  15.3963035   6.2098026  78.9199424  71.3382006  68.4686184
  78.8369524  71.1893702  67.5267076  78.6105186  72.2347736  68.5976124
  22.5596285  59.5803785  27.0849729  23.5125971  59.6164846  27.1672893
  22.3220420  58.7189913  27.4281931  58.9119355  28.3159441  12.3176288
  58.9835439  27.8017849  11.5134334  58.1500260  27.9513544  12.7679633
  19.3957520  54.1233110  53.2647896  19.1126716  54.1157198  54.1791391
  18.7076056  54.6042252  52.8049946   3.7892753  43.2458735  40.3792524
   4.6087483  43.5179234  40.7923889   3.2495648  44.0363884  40.3743029
  39.0953350  51.7315722  34.8155808  38.9353371  52.2662973  34.0379524
  40.0406313  51.5811062  34.8124385  57.1000814  76.1967182  27.6404905
  57.4107933  75.3572845  27.3013115  57.5884104  76.8519688  27.1420789
   8.5943079  64.0357351  60.4062939   8.1665546  64.8913670  60.4402924
   8.3737409  63.6919212  59.5406294  30.4722929  51.2741709  26.9087887
  30.1225734  52.0084953  26.4041138  29.9428892  50.5239630  26.6383314
  13.0419970  79.3352175  55.8644247  12.1064901  79.2833138  55.6685543
  13.3249927  78.4228182  55.9250259  18.2655346  50.0801706  37.3293424
  18.4652221  51.0148525  37.3815727  18.8513803  49.7477293  36.6492701
  77.2774678  30.2580786  64.6386862  78.1216824  30.7061720  64.5862913
  76.9523710  30.2536654  63.7383938  27.4240875  45.6255245  28.4194779
  27.0251298  46.4879465  28.3042097  27.8982329  45.6898355  29.2485023
  85.2284441  71.0913277  59.5357609  84.5291764  70.6681824  59.0375614
  84.7720554  71.5859318  60.2164268  43.8936234  49.9492073  15.6927931
  43.8932133  50.2393770  14.7806346  43.1004667  50.3331232  16.0666180
  36.9834447  65.2025986  68.8153982  36.5330219  64.4619036  68.4095383
  37.5177288  64.8091793  69.5053196  75.0243300  63.8562489  60.2843857
  75.8793783  63.7577295  59.8655558  75.0276154  63.2100010  60.9904909
  17.3908317  45.5801964  40.6755257  17.3658860  45.0531530  41.4741755
  16.7164302  46.2465906  40.8071709  84.8115937  54.2009401  20.3694987
  84.2693929  54.5568323  21.0734820  84.9019184  53.2722139  20.5829144
  49.6008205  65.2338886  17.1727180  48.7799597  65.5821133  16.8246412
  49.3756628  64.3578529  17.4859321  10.0342751  31.2324023  32.5771070
   9.9740058  30.6534076  31.8172646   9.7719890  30.6846762  33.3169961
   5.2648360  53.8490152  48.7457228   5.7551122  53.5448790  47.9819441
   5.9380484  54.0897322  49.3821764  21.2325621  39.8870182  36.9572926
  20.7882953  39.4544506  37.6864982  21.7028570  39.1825128  36.5115047
  22.8502165  69.6485070   1.8756723  23.4695106  68.9218120   1.8076801
  22.9417114  70.1194648   1.0473871  42.8213739  26.4054179  53.9569998
  43.3764553  25.9412026  53.3304071  43.3873320  26.5533590  54.7146511
  77.6536775   9.3239743  53.5120821  77.9188383   8.4605092  53.1953001
  76.7467779   9.2071456  53.7951279  38.4404145  32.2281689   6.4908265
  37.4884293  32.2004408   6.3949727  38.6920808  31.3178581   6.6464853
  11.2695456  68.0355120  62.2662020  10.4591966  67.5710630  62.0567846
  11.1184454  68.9302111  61.9613743  30.7714343  24.4335938  28.5967278
  30.0459266  23.8849282  28.8947868  30.3561044  25.1100397  28.0617929
  54.6724492  64.6333551  51.3344574  54.9522263  63.7205935  51.4038849
  55.4597718  65.1052046  51.0629511  13.7758970  60.2458143  63.2478571
  14.4739890  60.8196640  62.9322720  13.4117317  60.7053852  64.0044355
  14.6433163  28.7702131   4.0930688  14.3491375  28.3942366   3.2634106
  13.8453174  29.1090488   4.4988021  71.9276828  50.7864189  68.1111288
  72.2428554  50.7077408  69.0115213  72.3087066  50.0346136  67.6574373
  12.4040842  57.8532600  68.6277103  11.6288674  58.4143829  68.6479950
  13.1402552  58.4633732  68.5824919   4.7207052  64.0303373  46.8868208
   5.6421411  63.8067770  47.0180035   4.7081804  64.9870062  46.8574858
  34.0163422  55.9407616  30.6634235  34.9608755  55.7952166  30.7173252
  33.6777592  55.6295967  31.5029287   9.8190868  73.0589008  35.1758456
  10.4857922  73.0916023  34.4897938   8.9905810  72.9891920  34.7015548
  10.5532209  29.8165029  42.6318263  10.2276484  30.2583641  41.8476104
  10.0878541  28.9801639  42.6461410  15.1033378  13.7084734  47.7948093
  14.6420503  13.8064706  48.6277819  14.4387674  13.3778346  47.1904469
   6.1203563  46.3289356  38.8737178   6.9525236  46.8004131  38.9116764
   5.5914104  46.7203093  39.5688963  10.6477857  54.9480104  59.6574402
  10.2891588  55.7932663  59.9279165  11.1646461  54.6558189  60.4082489
  15.2955461  72.5459433  38.4139132  14.9669135  71.7530918  38.8377285
  14.5577085  72.8622675  37.8925991  26.7019701  31.8981290  60.0979996
  27.1845722  31.1128688  59.8397493  25.7885456  31.6150117  60.1396656
  36.2247632  26.2650055  19.1707706  35.9228728  25.8442301  18.3657646
  35.9885714  27.1862787  19.0625953  80.1868386   4.0956255  66.0717723
  81.0867758   3.7700029  66.0540698  79.7758670   3.7058254  65.3001571
  57.3732104  78.1661058  58.6434460  58.1810668  78.5656465  58.3210039
  56.8297238  78.9072000  58.9110899  71.7612467   3.6311668  17.1195411
  71.2183509   4.1253132  17.7338027  71.1378083   3.2534975  16.4991187
  75.0725883  63.1153584  39.6871495  75.7454151  62.4492979  39.8282099
  74.2885178  62.7553177  40.1016808  24.6582977   6.5496963  43.8041782
  23.9894859   6.6469425  44.4820117  25.2973882   7.2353786  43.9981651
  82.0360294  43.8574409  45.3938246  82.1954966  44.2243195  46.2634230
  81.2850341  43.2760715  45.5131817  55.2088290  29.6439004  21.7836380
  54.4279057  29.2341089  21.4115334  54.9959213  29.7693849  22.7083850
   2.7106041  30.6140757  62.4040556   2.7762386  29.7027040  62.1188784
   3.0679327  31.1197734  61.6741133  10.6959748  40.7744455  52.2442245
  11.4202237  41.1945724  51.7803431  10.9626865  40.7839489  53.1634665
  25.3169346  35.5545592  46.2322330  24.4518018  35.4876637  45.8281326
  25.6019783  34.6471071  46.3395452  58.9344075  33.1189245   7.4115466
  59.5749495  33.4797567   6.7985725  59.4472007  32.8901619   8.1867503
  68.5308260  47.0439386  34.0400934  68.5108715  47.6576328  33.3057785
  69.2150432  47.3831272  34.6171808  24.6065187  43.4576702  61.0274267
  24.0216231  43.5334063  60.2735090  25.4843926  43.5646820  60.6612110
  22.8185725  61.2226486  46.1029339  22.4680185  61.4997387  46.9494390
  22.0456147  61.1030388  45.5511570   0.9877425  58.1600094  29.7950816
   0.7328899  57.6250458  29.0433550   0.1752736  58.5810661  30.0758624
  81.2434289  25.7100940  57.1791506  81.2641066  25.3338337  56.2992477
  82.1544957  25.6853652  57.4716902  21.9344354  47.4211550   7.8716421
  22.1898413  47.5380039   6.9565767  22.7068567  47.0399332   8.2890946
   8.4158522  53.0450296  26.1255789   8.6089581  52.1544933  25.8325148
   7.4602777  53.0813313  26.1679101  80.2855203  66.2517595  27.7297425
  81.1623734  65.9254789  27.9319882  80.4377496  67.0490313  27.2223854
  36.4681506  59.2958498  40.0139713  36.5416932  59.6735239  39.1375089
  36.8176150  59.9708700  40.5957413  51.8758861  15.1625675  16.3080501
  52.0718262  14.2817968  16.6275596  51.5954021  15.6430286  17.0869636
  10.3854727  32.8815983   3.8838624   9.9852632  33.5429273   3.3193206
  11.0905873  32.5094728   3.3541774   3.5051453  65.7455111  61.8261480
   3.3739749  66.3324833  61.0815096   2.7285585  65.1859283  61.8297291
   2.6109570  29.1632843  46.6549063   2.4895051  28.5271859  47.3597908
   3.0677381  29.8954391  47.0690727  60.9741400   4.0784353  28.9375972
  61.1540774   4.9774546  28.6626243  61.5111397   3.5385460  28.3576106
  32.0439826  19.1451254  67.8509140  31.8585693  19.7761907  68.5463333
  31.1902799  18.7709322  67.6331902  20.7396483  34.2492771  37.8104186
  20.1900172  34.9309897  37.4238873  21.1790943  34.6822548  38.5422993
  46.9546543   1.3571729  36.2635922  46.5437602   0.8885946  36.9901133
  46.3728677   2.0988836  36.0973668   7.8319919  74.7821712  45.0755739
   8.3916181  75.5257368  45.2995396   7.2103572  74.7231817  45.8010530
  57.6782202   5.3757376  12.1598911  56.9711132   5.9918159  12.3514079
  57.5660347   4.6751207  12.8023719   0.6777005  27.3093224  66.6430092
  -0.2331543  27.4179864  66.9164419   0.9513970  28.1845140  66.3684845
  54.1194235   2.2849836  59.6293449  54.4492351   2.6315965  60.4583883
  53.9298593   1.3648691  59.8129034  16.0897231  27.3690438  37.6328826
  16.3196027  28.1279755  37.0967746  16.8072629  27.2939992  38.2619596
  54.8966525   4.3527027  65.4729871  54.7757029   3.4169288  65.3119603
  55.1701834   4.4047542  66.3887945  67.3123752  48.3606360   5.5224990
  67.4011122  48.2739131   4.5733737  67.7518402  49.1853408   5.7297801
  10.2140284  29.3454432  62.1965361  10.0831091  30.1176667  61.6462994
  10.9952927  28.9250040  61.8372488  36.5455352  76.1744909   0.0725459
  36.5856897  76.8570570  -0.5973197  35.7902925  76.4113192   0.6108379
   0.3037258  20.4934788  57.5893545   0.6641766  20.6531549  56.7171097
   1.0714725  20.4245710  58.1568480  35.2396356  80.5515055  11.7691135
  35.1896726  79.7191099  12.2390651  34.3288230  80.7706074  11.5725231
  72.5877768  59.8028851  14.1454577  72.2254246  60.6882858  14.1138649
  72.8284341  59.6751833  15.0630665   7.1400797  79.7630501  28.3169436
   7.0067090  80.5072403  27.7298975   7.5337321  79.0887499  27.7632403
  63.1148128  22.4513811  42.7112579  63.3724503  22.2844166  43.6178874
  63.9348338  22.6601547  42.2638130  80.4192588  22.9977703  50.9812832
  79.7341067  22.6815486  51.5701818  80.9030873  23.6404777  51.5000010
  84.4433077  36.4625955  62.3886728  84.8905653  36.5910029  63.2251549
  85.0580165  35.9488845  61.8647766  15.7832849  45.3761959  61.2412596
  15.2363420  45.2625608  62.0185471  15.8049619  46.3226557  61.0999250
  13.8574278  56.6361666  35.1382804  13.8401425  55.7540798  35.5095649
  14.1798663  57.1892691  35.8498597  12.5299346  71.2059593  35.9787774
  12.5614190  70.3037119  35.6606746  12.2784340  71.7214632  35.2124643
  42.4913597  19.2062616  29.0592670  42.2210598  19.4010866  29.9566031
  41.8533468  19.6643233  28.5121393   2.2868101  59.7239017  21.3318872
   1.3588230  59.6480846  21.5539742   2.6662385  60.2228022  22.0553279
  74.7887490  20.8917993   9.4472932  75.5298934  21.3238949   9.8718309
  74.8609135  21.1423296   8.5262870  20.0329041  67.3706770  40.5235052
  20.0174665  67.7829170  41.3872480  20.4657197  68.0118704  39.9597883
  23.7609339  29.8723626  51.8934822  23.1850600  29.7522998  51.1383724
  23.7582517  30.8168459  52.0489645  24.4066715  70.0856161  41.2755775
  24.3311739  71.0089827  41.0349131  25.1506853  69.7652483  40.7656384
   3.0818629  67.6568317  31.3497305   2.4718261  68.2209587  30.8744955
   3.3547062  68.1802702  32.1032572  19.4244075  70.2651024  53.7206793
  18.4712660  70.2798271  53.6338711  19.5826340  70.4238415  54.6512699
  48.8810632  31.2254471   1.2206506  49.3031428  30.5545610   1.7573022
  49.5305804  31.4402860   0.5511712  18.9223663  42.6102489   9.4813442
  19.3797819  41.9288200   8.9887475  19.4796697  43.3836120   9.3944358
  26.1928511  54.6903181  59.9742794  26.9134116  54.0636063  60.0395298
  25.8536315  54.5737123  59.0868282  68.3874475  78.0935768  25.7348918
  69.0181910  77.7238921  25.1170444  68.8464247  78.8340596  26.1314487
  41.2344526   0.5746450  50.3990936  41.4765953   1.0417165  49.5994425
  40.8810054   1.2527551  50.9748411  10.7203710  35.0628257  65.0246525
  10.9005725  34.8582578  65.9422064  10.2820051  34.2818642  64.6867657
  10.6575739  65.7243490  69.2239141  10.0422335  65.4630136  69.9089622
  10.4738796  65.1290989  68.4971666  39.7231841  56.2168694  44.8965359
  39.0714741  55.7229805  45.3941011  39.3540192  56.2808037  44.0157032
  50.0593196  76.6593079  25.4374408  50.0240790  76.0831742  26.2010288
  50.3734170  76.0982470  24.7283649  22.0385432  30.3605485  61.8979120
  22.2317648  29.4408560  62.0797539  22.6122427  30.8473516  62.4896240
  31.4891442  62.8352241  14.0909862  32.0616784  62.8997902  13.3266162
  31.4437221  63.7283353  14.4323348  28.4977616  49.4400088  26.3204860
  28.2354917  49.2317359  25.4237842  27.8375719  49.0149883  26.8679618
  82.3311090  55.5143833  63.9574575  81.6684952  56.0003138  63.4664965
  82.9272711  55.1789999  63.2878733  35.5787754  40.1448536  57.7188778
  35.0329971  40.6281185  57.0985460  35.0779581  40.1519060  58.5345745
   5.5311576  10.2056307   1.7276668   4.5768324  10.2617115   1.7761182
   5.7454983  10.5229276   0.8503913  28.0763316  65.7234764  62.9142857
  28.9425540  65.6457186  62.5144815  27.9898143  66.6544724  63.1192017
  18.5639811  75.4434061  63.2888031  18.8914561  75.6114674  64.1724014
  18.9919269  76.1047077  62.7449560  75.0477526  54.9926227   4.9058818
  74.5053134  54.6746105   5.6275939  75.8666644  55.2615112   5.3221940
  10.6400836  55.1933479  38.2428312   9.7918808  55.5082655  37.9304075
  10.7330155  55.5796099  39.1136909  70.2257130  29.1890282  38.8996314
  70.3777144  29.8400253  38.2145595  71.0392080  29.1776270  39.4039440
  11.5288043  24.9167562  10.8315444  10.9595227  25.6625652  11.0210645
  11.1052656  24.1758943  11.2651002  66.1474699  12.1333182  51.0327721
  66.8653113  12.7617490  50.9552479  65.7094187  12.1639550  50.1822424
  64.1393429  49.1776943  52.3525524  65.0743538  49.1240644  52.5503063
  63.7875301  49.7698498  53.0172396  32.4100061  43.1453059   2.6687526
  31.5001975  43.0298154   2.3946332  32.9253821  42.8696070   1.9107246
   9.8668605  63.9807367  49.9529266   9.9345130  64.6716738  49.2939425
  10.1660800  63.1905842  49.5030785  58.3181101  54.8648214  66.9543743
  58.0593354  55.7829714  67.0335770  57.5267059  54.4179821  66.6539669
   8.1349891  42.9168797  52.9259396   8.5050744  42.5009012  53.7045479
   8.1866562  43.8551426  53.1082058  24.6592212  41.6442204  31.8900180
  24.3996644  40.7229614  31.9018388  23.8329816  42.1252680  31.8436503
  24.8249125  48.8174582  43.1478071  24.2821336  48.1517076  42.7254295
  25.5741072  48.3319521  43.4930897  84.8087785  14.7182220  18.1803417
  85.2130649  13.8513702  18.1436443  84.5976279  14.9227804  17.2694015
   7.4125051  35.9970307  60.1973677   6.8252951  35.2539134  60.3359032
   8.2390475  35.7270145  60.5975580  83.9716564  40.1543999  51.8120909
  84.5315275  40.8323288  52.1904850  83.1891450  40.1547575  52.3633671
  70.5442578  72.7412939  35.1061773  70.0069481  72.7863359  35.8970618
  71.2810069  73.3260870  35.2835250  27.9626560  62.2543716  66.5492201
  27.8606725  62.8148365  65.7799911  28.2237411  62.8531313  67.2489023
   4.5100990  47.8070784  46.0341930   4.0462622  48.6423302  46.0928631
   4.6553168  47.5492954  46.9445181  38.1491637  30.6746507  58.2717371
  38.5722947  31.5243244  58.3952093  37.9605937  30.3697610  59.1592693
  35.5942321  22.8599668  69.4981337  35.3663564  22.1326804  68.9190292
  35.4747128  23.6418653  68.9590788  21.0461044  30.0131297  29.5713067
  21.7610717  29.8754025  28.9499497  20.5516219  29.1937518  29.5529175
  80.2106971  68.9607954  55.0381470  79.3863958  69.2409611  55.4359770
  80.8374116  68.9590502  55.7616520  11.0146260  66.4342642  21.2293530
  11.7587411  66.1444044  20.7016182  10.6367874  67.1599102  20.7324553
  65.4994724  -0.3279716   1.7581319  65.2442912   0.5267948   2.1052503
  66.2826137  -0.1507813   1.2370538   6.8396062  49.1138887  68.5819197
   6.7986012  48.2267857  68.2247066   7.0509624  49.6657658  67.8289318
  78.5632807  38.8641787  67.1064138  78.6815578  37.9339886  66.9140863
  79.4491136  39.2265129  67.0907831  73.0973059  46.5618610  64.3949938
  72.4859399  46.7088079  63.6732817  72.5633663  46.1675406  65.0846672
  25.7910872  28.4999990  36.4436865  25.5698419  29.2767835  35.9299827
  26.7368484  28.5625863  36.5772867  32.7957582  13.5214281  41.4844942
  32.9915142  12.9228878  40.7636213  32.6353598  14.3639398  41.0594368
  24.9799442  64.2984724  54.2007160  25.1423240  65.1244354  54.6563959
  25.1776361  63.6237097  54.8502159   8.5127455  45.2673292  56.0700512
   7.9213053  44.5551109  56.3133144   7.9418397  45.9312534  55.6833982
  23.6037493  27.0489359  55.2207422  23.7171698  26.1852503  54.8239851
  22.8149796  26.9647098  55.7564497   0.2298818  36.6306543  64.8363686
   0.5020491  37.4404335  65.2681303  -0.4905139  36.3026857  65.3746033
   7.5312340  63.9923429  48.0875921   7.8460205  63.5001945  47.3293495
   8.0193770  64.8152065  48.0585098  51.7578220  74.7467470  52.9697609
  52.6713943  74.7893238  52.6872587  51.5967560  75.5925846  53.3879042
  54.0596329   0.3768530  54.3333673  54.3347465   1.2890710  54.4249821
  53.1430875   0.4291620  54.0623760  71.9195830  29.1286173  69.4951630
  71.1848723  28.6848631  69.0714741  72.6712643  28.9357652  68.9347839
  42.8120565  74.6931314  59.4968653  42.7071381  75.3410101  58.8001060
  43.2637167  75.1649427  60.1966047  11.7249827   9.0012159  31.0629320
  11.3913207   9.3550005  30.2384663  12.6283174   9.3142976  31.1097717
  31.6353218  49.6732754   2.5231313  32.3592369  49.0537876   2.4314117
  31.0449163  49.2601436   3.1531905   2.2088567   8.8588756  15.9937000
   1.3289849   8.8490623  15.6169223   2.5780145   8.0065817  15.7622909
  56.3884401  77.6888657  52.4511814  56.9704294  76.9441366  52.6025009
  56.6389751  78.3280277  53.1182098  39.0393853  33.1658864  58.3778811
  38.5174918  33.8174677  57.9095840  38.8774824  33.3494353  59.3032646
  26.6703916  76.7235184  49.0608025  27.1596813  76.9972563  49.8366213
  26.1216283  77.4776125  48.8453150  79.0188978  23.8156837  13.4371852
  79.8403499  23.6145395  13.8855075  78.3543418  23.3296293  13.9253997
  38.6853266  66.0017252  41.7283678  38.5539508  66.7386246  42.3249817
  39.6050334  65.7622242  41.8424368   0.2283864  45.2616262  45.8031940
   0.8385932  45.7841778  45.2827883  -0.2626507  44.7533607  45.1576042
  71.2206208   1.5921869  57.5147438  71.1030470   1.7820825  56.5839672
  72.1672474   1.5001287  57.6226950   5.9326367  47.8793611  51.6298485
   5.6495099  48.1666650  50.7617903   6.5036063  48.5820951  51.9403124
  72.9477154  13.8915529  45.0093794  72.9275309  14.3862619  44.1901779
  73.2819926  14.5129099  45.6562281  53.1092154   7.5591077  45.1594496
  52.6583659   6.7154493  45.1246166  53.1624304   7.7638712  46.0929775
  53.6347543  21.7053499  54.6747208  54.5110737  21.4615621  54.3766165
  53.1357633  20.8890619  54.6444988  47.6352500   8.3445158  49.3588448
  48.5656630   8.4452047  49.1577864  47.5934862   7.5680151  49.9169970
  38.2006786  27.5935596   0.3996753  38.6276708  27.3053068  -0.4070569
  38.5451887  28.4735674   0.5517721  61.9632707  30.0349230   4.1307592
  62.6490376  29.4523805   3.8042592  62.3705164  30.9010834   4.1428947
  73.2460878  47.3918098   8.8363361  73.6433337  48.1199497   8.3585929
  73.9213143  47.1149772   9.4557475  55.0076782  28.9408102  49.8576546
  54.7471224  28.1217279  49.4364119  54.2011916  29.4544782  49.9019480
  41.1797724  49.3459457  21.4479160  41.7835007  48.6208576  21.6091251
  41.5320454  50.0703949  21.9649314  26.4720702  59.5023489  47.2724247
  26.6976142  59.9199963  46.4412022  25.8446074  58.8196135  47.0349407
  50.3417193   5.9542837  49.0870428  50.9540211   5.2185430  49.0863037
  50.2624499   6.1989870  50.0090361  16.6343713  67.9644632  29.9600267
  17.5598395  67.7220011  29.9908710  16.3382220  67.8950834  30.8676147
  10.1100886  38.2590413  61.5823936  10.2757299  38.5875511  62.4660683
  10.5915523  38.8568163  61.0104752  55.9329143  36.8187708   3.7241506
  55.3684972  36.7159361   2.9579305  56.7891867  36.5035385   3.4349155
   7.1869153  70.1676369  66.4980221   6.2859231  69.8809719  66.3487911
   7.5383520  70.3195238  65.6207228  34.9696492  19.3057336  49.7391367
  34.7533577  19.6214475  48.8617659  35.3011339  18.4186830  49.5995188
  25.2375531  77.5246048  42.8194237  26.1841178  77.3884821  42.7780008
  25.0946116  78.3537483  42.3629999  40.4569149  76.6362000  26.4718771
  39.9606872  77.2319746  27.0331669  40.0226688  75.7897854  26.5779352
  18.2142508  58.4714079  65.8376503  18.7474597  59.2567301  65.9609032
  18.8411450  57.7933931  65.5855942  18.7621665  29.0114570  66.4987946
  18.0321062  28.6286163  66.9852877  19.5303261  28.5243797  66.7969894
  28.5916511  40.8592457   6.3787317  29.5258228  40.6897301   6.2569999
  28.3288757  40.2611774   7.0783710  10.3448844  78.0593491  21.7866373
  10.8314812  77.7475595  21.0235882  10.1051438  78.9594889  21.5663981
  72.7378737  80.1729182   8.3613538  73.4124791  79.8975925   7.7405929
  72.4218117  81.0081343   8.0167531  17.2679893  29.9136299   8.3497047
  16.3727418  29.5832628   8.4246539  17.7697793  29.3894333   8.9739274
  39.2480790   4.6223249  46.5793180  40.0744711   4.2765703  46.2420321
  38.7480294   3.8456049  46.8300819  39.7366118  39.1834760  47.6916981
  40.3973007  38.4948730  47.6172161  38.9094234  38.7120652  47.7904940
  17.3932830  54.2202038   4.2172431  16.8324033  53.4533733   4.1005325
  16.8561641  54.9565452   3.9247798  22.5273681  61.6349173  68.5045052
  22.4450612  60.6812620  68.5050011  23.3743095  61.8020058  68.0909777
  77.9622433  66.3846248   2.7387428  77.5150202  66.3172954   3.5823583
  78.2152841  67.3055404   2.6746225  43.8146458  22.0401615  13.4014510
  44.2227183  21.3417238  12.8896999  44.1406427  22.8486151  13.0060291
  36.5833163  76.4660025  21.8591237  36.4159036  75.5322170  21.9865894
  35.7494903  76.8889999  22.0641637   1.9499120  71.3554525  65.0838614
   2.6063564  70.8438683  65.5567217   1.6473931  72.0034742  65.7200909
  35.3951287  71.1507702  27.6811242  36.1568952  70.5900812  27.8279972
  34.9496078  71.1761904  28.5279393  50.2732574   2.1528616  32.5665855
  49.6249496   1.7199316  32.0111537  50.0577151   1.8664922  33.4541440
  22.2133111  11.0538664  43.5058737  23.0578660  11.3119115  43.8751602
  22.3155670  10.1245584  43.3005667  -0.1995301  44.4101381  36.7031622
   0.3201521  44.7511864  35.9752560  -0.0167582  45.0074339  37.4284649
  25.6718969  70.5150032  48.8412380  25.3606701  70.4859161  47.9365110
  24.9372911  70.1840115  49.3579865  39.7805905  71.5582371  51.5431309
  39.8654556  71.9271946  50.6639814  40.4501486  70.8752918  51.5819263
  14.8770118  68.3384323  20.4288793  15.4740238  68.2440901  19.6866477
  15.4273856  68.1946802  21.1987209  57.4374591  43.2172956  68.4670639
  57.6753842  42.2962465  68.5733366  57.4417387  43.3580675  67.5202847
  82.5014311  76.2155771  32.2324514  82.0195714  75.6511259  31.6279364
  82.9557835  76.8398237  31.6666651  34.4034839  67.9937029  20.6929398
  34.9972486  68.1010485  21.4360094  34.1948247  67.0595455  20.6860924
  48.5833836  65.3421831  38.3345366  49.0195942  64.5213747  38.1060052
  49.2991209  65.9568214  38.4963155  44.4204484   6.1181726  45.8587551
  44.8229467   6.8859281  45.4528284  44.8878514   6.0126295  46.6873884
   4.1193239  43.0579037  17.0479297   3.8157956  42.2420734  17.4460887
   5.0330559  42.8873962  16.8193340  49.0259086  13.2540884  65.6891632
  48.7490069  12.6081743  66.3390446  48.4472357  13.1048002  64.9414444
  24.0255380  48.5668278  28.0512166  23.9121342  47.6212931  27.9546237
  23.1349564  48.9174414  28.0381775  55.5660368  49.0995067   5.4562139
  54.7188667  49.5376724   5.3753232  55.6314137  48.8740009   6.3841724
  10.4635751  48.7078953  39.5131946  11.3198185  49.1138601  39.6483755
   9.9144900  49.4144487  39.1733122  49.8238837  11.7346563  41.0474348
  49.2437445  11.5694799  40.3042078  50.1257907  10.8660879  41.3132763
  83.9390085  10.2442116   1.7930030  83.1139825   9.7652096   1.8712568
  84.5329926   9.7984165   2.3968934  35.0997186  79.4043064  53.5161877
  35.6721449  79.6357679  54.2476130  34.2385340  79.7345114  53.7722254
  11.5853131  43.2407236  38.2834649  11.7807508  42.3163795  38.4371686
  10.8913815  43.4462023  38.9099383  76.4169371  50.3191900  44.6450520
  76.8705165  50.7777500  43.9377880  75.9900755  49.5781851  44.2150116
  33.4975778  12.6035871  63.1878042  33.0848132  13.2515802  63.7587309
  33.7090098  13.0877294  62.3896027  76.1659143  30.8109230  17.9922580
  75.4547701  31.4420885  18.1024169  75.8979497  30.0546593  18.5142612
   5.6467462  43.8719130  65.8946657   5.7080770  43.6933422  64.9562740
   5.4918694  43.0149269  66.2919378  61.6999693  12.1944183   8.5327339
  61.9961146  12.1264595   7.6250409  60.7482434  12.2742027   8.4688281
  31.7635465  47.3092365  31.0713339  31.6007352  47.5411654  31.9856262
  32.4193192  47.9413509  30.7770085   8.9179651  61.3188785   7.9177141
   8.4658877  60.8661884   8.6297035   8.2195059  61.5765327   7.3160457
  63.8325745  65.7392788  63.9959717  64.4673210  65.5421686  63.3071518
  63.6878139  66.6828346  63.9253998  39.1667199  74.3593168  28.3583093
  39.5473742  73.8630724  27.6336884  38.9747643  73.7001371  29.0252900
  51.4091455   0.6634512  54.3300295  50.8879529   1.3767328  54.6985722
  50.7730018  -0.0276862  54.1459465  55.6192886   7.6143922  60.6621647
  55.4666673   8.0404081  61.5056372  55.3112780   8.2482900  60.0144529
   8.4708965  66.3406610  63.1610203   8.4895980  66.4096880  64.1155481
   7.5573361  66.1448956  62.9528952  57.6755021   8.4966034  19.0449046
  57.1485933   9.2842859  18.9101791  57.1972434   7.9990763  19.7082137
  65.1817213  25.0036420  21.9409227  65.2915226  25.0235452  22.8915977
  65.9734069  25.4195490  21.5996218  66.2887060  12.6894464  60.8256578
  65.7629429  11.8895807  60.8281898  66.3565003  12.9285803  59.9012947
  35.5975412   6.9320860  32.4404454  34.7167115   6.7567720  32.1093345
  35.5019449   6.9214239  33.3928013  22.0664382  74.0807629  57.4728012
  22.4371982  73.6916399  58.2648563  21.5997362  74.8567581  57.7830410
  52.8373289  71.6400480  32.5945616  52.8262663  72.5245810  32.9602218
  51.9605637  71.2978220  32.7689075  55.9362245  33.4705299   1.8926048
  55.1629772  33.0334228   1.5358781  55.7778012  34.4017261   1.7376613
  70.8299134  29.7037786   6.1114501  69.9148188  29.7279495   5.8317184
  70.7996593  29.3470329   6.9991683  30.7003585   8.6058277  16.7323875
  30.7302228   9.1955704  17.4857425  30.2851907   7.8108448  17.0668601
  55.9771595  44.3836063   2.6888847  56.9222522  44.3684810   2.8398895
  55.8356292  45.1500553   2.1332311  84.6550856  57.2808266   5.0214779
  83.9133954  57.8343248   5.2659476  84.4704248  57.0173550   4.1199708
  85.0554406   1.2968816  52.2798586  85.8577572   0.8104505  52.4693489
  84.6880041   0.8623209  51.5101957  81.6768536  45.3066826  56.8248224
  81.9473201  46.1695004  57.1388721  80.8913335  45.4764652  56.3048601
  55.5846948  11.2520880   6.2019920  55.9586261  11.0972828   7.0694255
  55.0731752  10.4643148   6.0176086  34.7034012   8.1479349  50.3307819
  34.6744316   8.2200422  49.3767405  35.3279613   7.4422922  50.4987907
  31.8956733  48.4875441  37.4735141  31.7266321  47.5785780  37.2256446
  31.0261726  48.8657331  37.6045656  11.7197311  76.0483122  50.5802727
  12.4430549  76.2413549  49.9838066  12.0739377  76.2258148  51.4516306
  18.8387609  65.0584459  23.2250142  18.2870722  64.5166302  23.7891984
  19.3251109  64.4303226  22.6910114  82.7274007  76.7930889  50.6450176
  82.1011964  76.0718822  50.5821133  83.3372864  76.6444540  49.9223995
  41.2039732  79.4663529   1.1161994  40.8195149  79.4783525   1.9927167
  40.6813704  80.0938420   0.6168222  64.4823265  67.3145151  60.3082514
  65.0183201  68.0784035  60.5213594  63.6075115  67.6711893  60.1542377
  62.9473368  12.4954122   6.0840749  62.8661231  11.7998308   5.4315376
  63.8385562  12.8261465   5.9719419  43.4647166   9.0704431  63.8471317
  42.7145254   8.4911623  63.9808035  43.1206762   9.7894563  63.3171368
  36.3154888  70.9927940  38.3274698  37.0711374  71.5252352  38.0790043
  36.1524296  70.4377508  37.5648594  15.6049645  32.5382710  59.1453505
  16.3023841  33.0285668  59.5806026  15.8027375  32.6177621  58.2121849
  77.9936741  49.9157471  13.2514762  77.3729894  49.7537178  13.9619159
  77.9380629  49.1340011  12.7019023  36.9735925   1.0907068  53.6504078
  37.5236325   0.3093710  53.7069225  36.0849302   0.7509317  53.5452318
  28.3441114  65.1553249  66.1092138  28.3489990  66.0493994  65.7674074
  29.0553761  64.7165823  65.6424809  37.0404761   4.3834104  59.4662619
  37.8218036   3.8734140  59.2525816  36.8378960   4.8599043  58.6611843
  22.6113796  59.6265936  49.6086884  23.1050324  60.3917313  49.9038219
  23.1566668  59.2392731  48.9239454  80.0533766  55.8011198  31.1740327
  80.8808452  55.3304863  31.2741780  79.8754138  56.1603165  32.0432496
  54.0959207  49.3292183   1.6823720  54.2981906  48.8204712   2.4675416
  54.9468026  49.4865555   1.2731313  72.9056536  16.9382753  49.3316460
  72.8491770  16.2577047  48.6609316  72.6235091  17.7373018  48.8864613
  16.0384285  63.4765196  49.6357584  15.7948184  64.3389893  49.9719620
  16.0183477  62.9056263  50.4038143  50.5142437  29.5497217  68.2428598
  50.1421152  28.6678209  68.2424259  50.3384863  29.8842802  67.3634195
   6.9092405  50.4009628  52.7799797   5.9768569  50.4994869  52.9728174
   7.3108649  50.2140188  53.6284971  32.4148035  67.1501780  61.8823290
  32.6490521  67.3889732  62.7791786  32.9942513  67.6795626  61.3344002
  19.2390668  52.9507732  60.6284904  19.6235406  52.9574060  61.5050554
  19.4462216  52.0826054  60.2826500   7.2974318  57.4853945  20.8217096
   7.0589125  56.5640545  20.9240198   6.4611048  57.9391479  20.7173061
  55.7500826  46.2084856  52.5797701  55.4915630  45.3588571  52.9368782
  55.0726282  46.8123712  52.8841019   4.6001905  70.6268311  42.8290319
   4.5180494  69.8037815  43.3107758   5.5243480  70.8618593  42.9122496
  77.6685845   5.3713312  55.2460766  77.2427069   5.4236211  54.3904352
  78.0751644   6.2298097  55.3641129  67.0244824   9.0523805  63.0936861
  66.6416942   8.1750478  63.0915117  67.5257312   9.0970125  62.2794437
  25.3407216  57.4857473  41.8286085  24.5771599  57.7566147  41.3188648
  25.7822728  58.3050346  42.0523024  12.8715801  39.0458059  60.3008604
  13.0677450  39.8140264  60.8371305  13.5584319  39.0373421  59.6342278
  69.8183380   5.9857263  68.2226229  70.3261792   6.6671266  68.6630917
  70.4733979   5.3571500  67.9192686  26.2007475  28.3402109  68.6134863
  26.8273163  27.8744030  68.0597115  26.1361265  27.8050804  69.4044924
   2.1652751  14.0880193  49.1956377   2.7019935  14.6893491  49.7119427
   1.4231782  14.6183576  48.9053535   5.6179166  65.8835554  63.3918333
   5.2518028  65.4486704  64.1619396   4.9298060  65.8175564  62.7297306
  69.2133128  11.6077890  46.7823315  69.6201931  11.7451944  45.9268808
  69.5643174  12.3099413  47.3300648  39.6854160   6.6956800   0.9682893
  39.5123861   5.8040899   1.2705564  39.3038211   6.7294830   0.0910901
  71.2228381  14.2124262  34.9423170  71.4602457  14.7698583  34.2012763
  70.2938496  14.0225973  34.8112798  14.6488325  28.7365192   0.5005359
  14.3218032  29.0246767  -0.3516675  15.5340091  29.0971559   0.5518150
  77.6321112   5.4602708  37.7089047  77.6889120   6.4037122  37.5574756
  77.2915541   5.3807916  38.5999346  50.0806128  14.1904630  48.2960176
  49.1316997  14.1747560  48.4207153  50.4397308  14.0845194  49.1769505
   0.5404764  72.1985245  45.9260130   0.0209032  71.7136717  45.2847719
   1.0906486  71.5338087  46.3403654  45.9133719  32.4132242  35.5651450
  46.4633869  31.9763078  34.9148989  45.8111702  31.7680254  36.2647939
  46.2060881  65.9443092  32.3532009  45.8401728  65.7137108  31.4992905
  46.7166090  65.1765108  32.6102638  23.6594248  32.8961277  51.9469118
  22.7228761  33.0707288  51.8540525  23.8562131  33.1221104  52.8559971
  13.9534163  61.7920589  53.8087845  13.2210433  61.8781424  53.1984949
  13.5532236  61.4811993  54.6208429  10.5692935  71.1776781  62.3247576
  11.4125025  71.5459776  62.5885534  10.5656898  71.2472248  61.3700962
  37.7588511  39.1024780  56.5884161  36.9021416  39.4161296  56.8780804
  38.3614564  39.8121738  56.8107462  57.1833812   9.5110883  31.1399817
  56.9073998  10.4274549  31.1582875  56.9879209   9.1844930  32.0182538
  55.9128673  54.8727173   8.7946843  56.5411043  55.4478306   8.3578872
  56.4102057  54.4725174   9.5079374  26.4186263  55.6837368  47.6490879
  26.9041920  55.4967260  48.4525108  26.8521023  56.4536858  47.2809696
  17.3553348  73.6859179  57.2014427  17.7683067  73.6397266  56.3391495
  16.4625978  73.3724546  57.0565557  41.4519358  69.9212456  61.6605949
  40.9467793  69.4812965  60.9768581  42.3360443  69.5653105  61.5717316
  82.8181646   7.7564424   7.4006080  82.5069068   7.9308266   6.5123844
  83.4526060   7.0472092   7.2971486  20.9770060  69.5697212  49.4634008
  21.0393405  69.1772652  48.5925817  20.2290750  69.1323376  49.8702526
   2.7091190  36.9950724  29.6155763   2.8483510  36.8626118  30.5532861
   2.8811294  36.1384869  29.2245436  31.8477464  51.6844177  35.5709910
  31.5662813  51.9829369  36.4358020  31.1457849  51.1033535  35.2780008
  79.7116256  78.4507704  59.3003035  78.9873934  78.1147337  58.7722874
  80.4501745  77.8816986  59.0836573  14.1484177  62.0726633  31.4696074
  14.7480786  62.4407864  32.1185493  13.4040761  62.6744413  31.4627695
  39.0058970  65.5935240  45.4451561  38.4342647  66.3087177  45.1659346
  39.5622277  65.4210663  44.6855640  69.9483191  10.0703325  61.7122126
  70.4231821  10.5179777  61.0119581  70.5482327  10.0882425  62.4578762
  20.2992558  58.1727457  43.0196667  20.8269262  57.4170780  43.2780647
  20.5950737  58.3795452  42.1331215  22.0218158  75.0029135  52.4171114
  21.9082522  75.0076199  51.4666843  22.4151039  75.8527279  52.6155424
  24.8032165  65.3068447  51.5831232  24.8417711  64.7855425  52.3849869
  24.9905896  66.2008142  51.8693876  54.1106510  74.0111208  58.1692934
  53.5087538  74.4722557  57.5850773  54.7183704  74.6871138  58.4691811
  45.8675598  65.7855610  13.0518054  46.4844607  66.5165810  13.0161094
  45.2304148  65.9760050  12.3633289   1.4766890  31.8690085  20.8017015
   1.9624585  32.3991680  21.4335179   1.0940759  31.1642671  21.3243675
  14.2881528  25.7182640  10.6191158  13.4736721  25.2271122  10.7269382
  14.9747840  25.0518125  10.6437682  24.5317745  75.4894590  50.5323648
  25.4026699  75.7461023  50.2292061  24.0983868  75.1446199  49.7516680
   4.7877902  76.5579796  59.8990536   5.5449110  76.4551592  59.3224907
   4.3526003  75.7057095  59.8772001  60.7156240   1.3482370  55.9611893
  61.3324725   1.3332643  56.6929722  59.8526560   1.3309755  56.3749743
  82.6405952  62.3833698   0.0761699  83.4867308  62.1152920   0.4345226
  82.7875517  63.2730049  -0.2450562  31.8651414  73.0301619  60.4715586
  32.1535659  72.4358177  61.1642313  32.0135951  73.9053345  60.8297014
  15.0687373  66.6014433  66.5050220  15.3907788  66.2934685  65.6578636
  15.1258647  67.5553846  66.4505672  77.8227650  16.3727274  49.8717499
  78.0494534  16.3097086  50.7995844  77.0378386  16.9202604  49.8536158
   2.7162659  73.3284521  69.3781614   2.3521714  74.0276480  69.9211073
   2.1515772  73.3064318  68.6055899  15.2310467  68.8511992  58.5712004
  15.4093802  68.1146669  59.1559649  14.6950090  68.4773922  57.8717947
  40.4765606  55.4141808  35.3228974  40.7622528  56.3182926  35.4540253
  41.2806749  54.8981380  35.3806448  38.2818937  73.9348507  32.7573133
  38.3719039  73.5754442  33.6398983  37.7630925  74.7306776  32.8745413
  27.1602392  39.7530675  34.1954899  26.7834044  40.5982065  34.4403839
  28.0171919  39.9702501  33.8284802  46.6682528  20.0415697  60.2139235
  46.5556215  19.7568502  61.1208296  45.9548353  20.6627264  60.0675440
  63.2888762  26.7483085  21.4301967  63.4163300  27.0504421  20.5309200
  64.0277431  26.1619228  21.5928459  37.4882340  73.6801052  59.6926594
  38.3282089  74.0759087  59.4602537  36.8872881  73.9742708  59.0081453
  13.8619781  59.9612522  27.4498224  13.6771774  59.5544195  26.6033196
  14.6700251  60.4541922  27.3073435  53.0373393   3.2672491  63.5201883
  53.3450376   4.0015020  62.9887486  52.3318254   3.6355772  64.0519953
  57.6804978  73.5225868  46.4778852  57.2164041  74.1961098  46.9750929
  58.6063153  73.7402821  46.5860510   8.9089290  56.5627617   1.2613630
   8.9851800  57.5166267   1.2376355   8.8922493  56.3008446   0.3408479
  34.5140648  56.5789127  58.5788822  34.0102530  55.7689238  58.6583996
  34.1796613  57.1387482  59.2795897  47.0802187  16.9497575  39.5242357
  47.2992336  17.6258363  40.1654720  47.6398276  16.2088194  39.7567677
  84.5348141  21.1060280   3.4636115  84.3268011  21.2341160   4.3891143
  85.4806707  21.2426514   3.4095764  62.4596249  20.9428682  61.3833380
  62.4874126  21.5385713  60.6346035  61.5872656  20.5507364  61.3451815
  54.9095774  60.3772688  51.1466074  55.5605888  60.3756809  50.4448843
  54.2216969  60.9648228  50.8338165  84.8114560  49.7603935  11.9069576
  83.8719366  49.7793526  12.0890998  85.2039979  50.2631038  12.6206874
  53.1516818  39.0032286  12.8182792  52.4620373  39.5931810  13.1225490
  52.8038765  38.6244148  12.0109653  27.5792495  42.8572697  16.5723419
  27.6211874  41.9770187  16.1986541  28.3710519  43.2906574  16.2538337
   2.2946506  38.5127535  24.9411297   2.8941493  39.2574300  24.9890709
   1.8406634  38.5161199  25.7838154  27.7283279  45.4926723   0.6763505
  27.5307552  44.9530262   1.4418411  28.3965675  44.9988216   0.2011728
  10.7740299  51.9992012   0.8977460  11.0247461  51.3270229   0.2640724
  11.1627571  52.8053325   0.5582237  46.2482309  72.4212265  48.7285757
  46.7469168  72.1483469  49.4986963  45.7378244  73.1736040  49.0279818
  45.7502651  80.3869343  36.6168261  45.9022188  79.4472170  36.5164495
  46.6267014  80.7649040  36.6891098  38.7988464  34.6880764   0.2234792
  39.0989343  34.1890043  -0.5361939  39.4390527  35.3938288   0.3145122
  67.0096109  41.6227478   7.0301055  67.4991606  42.2781223   6.5330552
  67.6826546  41.1071533   7.4744081  38.7574315  45.7460737  27.0918870
  38.3821464  46.4292765  26.5363503  38.2057047  45.7434654  27.8740764
  27.6379991  74.5680285  61.9985723  27.1382952  74.2721128  62.7594662
  27.1704483  75.3451443  61.6924381  81.9076239  19.1945257  59.5600843
  81.9074046  18.2526197  59.3896627  81.0182558  19.3840494  59.8589659
  49.1610861  70.4390049  56.9991827  49.3832445  69.5295811  57.1987581
  49.9884653  70.8323288  56.7217398  33.8441539  66.4633703  35.0770450
  34.5483947  67.0382500  34.7773981  33.2005072  67.0556784  35.4657888
  33.0814316   2.6204576  48.9704323  33.1029268   3.2687750  48.2665443
  32.4971958   2.9993047  49.6272278  61.4211920   2.5406869  21.7082881
  60.6155136   2.7411493  21.2319183  62.1100929   2.9792436  21.2089824
  81.8980644  48.1736988  31.0820579  81.3350556  48.1340259  31.8551540
  82.3220728  49.0300220  31.1382293  61.0662280   8.2803812  23.5779643
  61.1019694   8.2947054  22.6215386  61.0205161   7.3509016  23.8020396
  33.4918164  24.3906107  58.6332226  33.8556491  23.8242902  57.9526854
  33.6920248  25.2788534  58.3379650  73.9036356   1.7275514  58.2933187
  74.1919648   0.9946527  57.7493095  74.2984902   1.5604677  59.1491270
  76.8772841  68.5617208  60.1943874  76.4600605  67.7645540  60.5210114
  76.9453949  68.4264135  59.2492485  42.6809263  72.9801321  63.2294178
  43.3984423  72.8717232  62.6051950  43.1038523  72.9523039  64.0876627
   7.2061210   7.9401388  48.7514639   6.7754274   8.2281580  49.5563126
   7.5129800   7.0549287  48.9476013  62.0677554  27.6250734  59.7958755
  62.9968225  27.7296533  60.0011253  61.9028126  26.6882791  59.9028444
  72.4615762  14.8444599   0.1295566  71.7960785  14.2770332  -0.2595139
  72.1049474  15.0793785   0.9862136  42.1739769  66.3789606  35.1447177
  43.0964184  66.3440752  34.8915052  41.7491484  65.7222033  34.5929766
   4.8615424  61.3668674   1.1077165   5.0875417  61.9113678   0.3536128
   5.4474393  60.6127209   1.0427856  56.4959394  28.0106249  54.4303322
  56.7342149  27.5893392  53.6045122  55.5390488  28.0328645  54.4205046
  15.0993460  76.4294910  50.4672241  15.3172129  77.2713137  50.8673525
  14.8023337  76.6532469  49.5852137  42.3046409   4.2427244  55.8663750
  41.6739856   4.2555513  56.5863371  42.6352583   3.3445348  55.8535528
   4.3594853   3.8619369   5.4260444   5.0562564   3.4381765   5.9272146
   3.9266006   4.4372076   6.0568427  34.7381449  77.1446943  50.3752422
  34.5299721  78.0675888  50.2297640  34.4143677  76.6997862  49.5920086
  12.7965283  60.3558826   5.2726936  13.4716964  59.7072506   5.4718333
  13.2309353  61.1997080   5.3971052  42.5083200  62.2385258   0.8267164
  43.1062929  61.5278095   0.5953311  42.8142349  62.5399822   1.6821527
  61.2211214  13.4180345  36.3869047  60.2671515  13.3835878  36.4575171
  61.4193307  12.9371633  35.5833507  51.6638938  69.1939205   4.4756460
  52.1396057  69.5771831   5.2125549  52.0389644  69.6161312   3.7028074
  50.5394411  58.3465147  51.6366959  51.4798927  58.3879232  51.8100977
  50.3900194  59.0127420  50.9658384  11.8239057  57.5145912  51.6235209
  12.1348715  56.6145420  51.5263605  12.5264978  58.0516052  51.2571716
  24.6783829  76.8892622  62.2630596  25.3911400  77.4200726  61.9074631
  24.0535307  76.8132973  61.5419340  35.7394545   2.3311700  36.8133402
  34.8259829   2.5697412  36.9710803  35.7013236   1.6984453  36.0960937
  27.6922226  67.3083019  29.3431950  27.0597863  67.9434443  29.0072608
  27.3958611  67.1236277  30.2344298  53.4533787  58.0242443  52.3337793
  53.6234188  57.2802544  51.7560291  53.9660311  58.7405157  51.9591093
  80.9793637  30.3847212   1.5291166  80.5609772  30.3169674   2.3873662
  81.8040989  30.8395428   1.6999482  28.9726377  68.4346437  67.6841545
  28.9920974  67.9714775  66.8466997  29.5469499  67.9232216  68.2541084
  79.7987431  58.1373453  47.2375154  79.9412191  59.0571070  47.4610567
  79.6118230  57.7134609  48.0751371  16.6256273  77.9332876  56.0454941
  16.4685786  77.4638414  55.2262306  16.1376309  77.4374914  56.7029715
   0.7562356   8.1548490  61.9330025   1.6908746   7.9497995  61.9582129
   0.5722194   8.3204736  61.0083723  55.6327868  79.7544718  26.3627052
  55.5908632  79.9472284  27.2993588  56.3324118  79.1061258  26.2826824
  69.5739924   4.0018739  53.4425306  69.8316561   3.1188573  53.1777287
  69.8899351   4.0838518  54.3423605  42.8545380  65.8619595  18.6357200
  42.5826693  66.7127800  18.2915986  42.1917200  65.6460094  19.2916703
  63.2440615  65.8818531  48.3641958  63.4864283  64.9571896  48.4140205
  62.3073721  65.8736610  48.1672764  13.9681911  54.5816374  40.7892466
  14.6645164  55.2094984  40.5964994  13.2025421  55.1238728  40.9789705
  60.8198844  21.3263502  41.6490316  60.2323185  22.0645036  41.4874077
  61.5302693  21.6960325  42.1733618  35.5162621  72.2502375  61.4985752
  36.1937404  72.6119566  60.9272432  35.1958847  73.0025196  61.9962311
  49.8640490  58.9358425  61.4222527  50.7071114  59.1631174  61.8144512
  50.0918913  58.4552813  60.6264019  64.6336733  12.4031438  38.4079266
  63.7507140  12.5827207  38.7309861  64.5973717  11.4965334  38.1030035
   1.9404416  17.9575243  44.5538092   1.6427856  18.7587824  44.9846554
   2.8061633  18.1778803  44.2099953   1.9145695  34.1962665  19.5705699
   1.7090169  33.2614416  19.5613288   2.0973221  34.4103664  18.6556911
  82.2318922   1.8414488  59.6168804  82.7061497   2.5645342  60.0273037
  81.4535509   2.2499361  59.2379999  12.5288682   6.1287489  47.8286314
  12.8490214   6.6118993  47.0668507  12.5876289   6.7541208  48.5509109
  77.4516331  10.5262460  39.7110701  77.5805985  11.1540689  39.0001297
  78.2339035   9.9750795  39.6887207  54.4801461  24.8522939  68.7540770
  55.1449906  25.2740373  69.2984533  54.4832908  25.3550901  67.9395676
  54.2873335  73.9916277  51.5388060  55.2086353  73.8162851  51.3472414
  54.2850161  74.8690891  51.9212723  57.9836184  70.3469181  52.6093292
  58.1296045  69.7959566  53.3783340  57.2759420  69.9118185  52.1338177
  39.0627753   0.6734552  65.0908947  38.4096490   0.7724085  65.7836151
  38.6197614   0.1596441  64.4156408  43.6782311  17.5433244  42.6824284
  42.9097532  16.9756689  42.6238203  43.4727072  18.2842817  42.1123695
  34.5022821  43.2527065  27.3173809  34.8870921  43.3604622  28.1871748
  35.2545476  43.1844616  26.7294431  81.3814948  16.1575884  18.9690875
  81.1350367  16.4357847  19.8511886  82.3136351  16.3652462  18.9041232
  56.7076111  73.4055471  59.8899031  57.1251535  74.2108107  60.1955795
  56.7611504  73.4553719  58.9355040  35.9236217  72.3520756  55.4317379
  36.4939547  71.7644596  55.9273767  35.9020495  71.9782591  54.5508146
  80.0224339  16.3664713  56.3385248  80.8164631  16.2341489  55.8206081
  80.1111351  17.2519960  56.6909504  20.3272653  67.1149635  59.3303967
  19.6150136  67.5896311  59.7589064  21.0507679  67.1528721  59.9559641
  42.9233562  15.5256738  56.6974831  43.0954205  14.6115389  56.9232750
  43.7883829  15.8958521  56.5216160  55.8809363   3.9940061  57.0658064
  55.0757991   3.8889494  57.5727081  55.6166445   4.5025243  56.2991333
  22.8034806  67.8537560  60.7660627  23.5988235  67.5556803  61.2074375
  23.1127119  68.4828758  60.1142883  10.0598245   4.6918001  54.4699287
  10.5989366   4.4735326  55.2301598   9.2370038   5.0083532  54.8427486
  72.6572297  34.7965950  24.3189620  73.5907743  34.9975103  24.2529392
  72.2426520  35.3699726  23.6742973  35.5956642  44.8516315  12.4461078
  36.1568252  44.4026226  11.8138694  36.1811391  45.0751728  13.1696224
  42.5740949  19.8530001   3.8519668  43.4828893  19.9793810   3.5792827
  42.1635047  20.7075924   3.7203979  15.5854612  35.1524915  39.4173884
  15.1046233  34.3350782  39.2875552  16.2041812  34.9572267  40.1211548
  79.3211591  65.3081942  58.6935377  79.8004955  65.8608246  58.0762291
  79.2171645  65.8541107  59.4728899  56.1743509  15.6993093  59.3320274
  56.4428889  15.9726705  60.2091789  56.8521630  15.0826826  59.0553188
  23.5615325  71.0938168  33.1684804  24.1478038  71.4311838  33.8457537
  23.3276367  71.8631554  32.6492119  81.1522961  58.4142828  56.3044071
  80.9713268  57.4746084  56.3266993  81.4987659  58.6121750  57.1744823
  46.2881115   5.9192499  16.8672561  45.6113460   5.2426847  16.8455314
  47.0186689   5.5123838  17.3330592  47.3687363  54.9415493  52.3746872
  48.2202339  55.2544975  52.6800585  47.5499296  54.0779638  52.0037079
  15.4237890  33.6951208  56.6220188  15.1005244  34.2308998  55.8976746
  16.0039699  34.2785430  57.1111441  67.4404764  72.4301910  14.5400488
  67.4249601  72.8752851  15.3873289  67.5309086  73.1363249  13.9001775
  65.4177854  38.1383365   3.6281108  66.2864486  38.1883758   3.2291698
  65.5893300  37.9810518   4.5565843  47.3570691  13.9061536  48.7612915
  46.4343690  14.1553297  48.8139057  47.5458299  13.5058489  49.6100330
  19.6172416  68.4707165  47.0542622  18.9156139  68.5658693  46.4101362
  19.1651762  68.4339952  47.8971863  31.4677763  60.7621241  47.3162889
  31.6902900  59.8434973  47.1651316  32.3134303  61.2032938  47.3967266
  69.5051050  76.0921860  53.4441376  69.4941998  77.0004082  53.7462091
  70.3358841  76.0051918  52.9767323   6.3534800  25.8510965   7.8787612
   6.9733159  25.2994531   7.4015569   5.5119578  25.6904596   7.4518298
  35.1822877  76.8575716   7.8656530  35.5225039  77.6993418   8.1688148
  34.7864747  77.0512247   7.0159096  82.4460350  11.8451490  42.3611593
  83.1231057  12.3804178  41.9472790  82.0545851  11.3536539  41.6390610
  12.5248008   7.7937879  50.1378012  13.2420497   7.8539743  50.7688046
  11.7604690   7.5620737  50.6653786  55.2289192  15.6293339  28.3836650
  54.8219577  16.4382213  28.0733108  56.1655799  15.8253616  28.4050845
  41.3298940   1.5763082  40.7251120  40.5110966   1.0899534  40.8213902
  41.2022423   2.3665132  41.2500048  72.7348839   7.9447355  62.1152353
  73.0617415   8.7547674  61.7237711  72.5833546   8.1668176  63.0339003
  40.2225971  79.1065216  51.4168215  40.2938747  79.2037153  50.4672432
  39.2854857  78.9943743  51.5764380  61.2185291  20.5967802  33.3667659
  60.9801868  21.4326423  32.9658126  61.3561861  20.8050197  34.2908382
  76.8137083  17.1715587   2.7380132  76.4113388  17.9591936   3.1040286
  76.0913012  16.5487236   2.6577758  63.5039603   3.7334242  56.2752199
  64.1439520   3.0232420  56.3230610  63.4953915   4.1078558  57.1561050
  11.7049168  11.5464582  56.3181353  11.9264494  11.1282148  55.4861355
  10.8643018  11.9741716  56.1548471  57.7734696  11.1978140  60.2116299
  58.4170972  11.9033708  60.1470137  58.0555855  10.6848707  60.9689474
  71.1950026  57.9391998   7.1330547  71.1276028  57.9048008   6.1788511
  70.4168842  57.4771446   7.4449396  25.1372806  30.3005833   5.1369523
  24.9646799  30.3219313   6.0782194  25.6404296  29.4972414   5.0038671
  81.3549219  27.2327127  17.6860702  81.9524371  26.8795290  17.0269275
  80.9649836  28.0008783  17.2688103  73.7272165  39.4415039  11.0415172
  72.7875076  39.2610926  11.0164260  73.7876342  40.3967804  11.0472774
  58.6639493  68.3848804   9.7438716  59.4943706  67.9746670   9.9854516
  58.9130666  69.2361778   9.3840694  78.4730504  37.8765339  24.4885539
  79.2406843  37.8629536  23.9169025  78.4418581  36.9985575  24.8685741
  14.5560324  59.4724369  68.7036324  15.5018771  59.3261337  68.6893320
  14.4222987  60.1059866  69.4085884  57.6188898  77.8787708  61.8682814
  57.1706533  78.7073946  62.0376730  58.4457636  78.1331301  61.4586258
  56.9392930  23.9605131  40.3466988  57.6685749  24.1455640  40.9384203
  57.1748029  24.4022646  39.5308423  17.0222114   1.4079466  49.9197769
  16.6552853   1.9246759  50.6371212  17.6882707   0.8603182  50.3353500
  33.4411812  73.9595127  28.0418134  33.0943918  73.5407019  27.2540522
  34.2295671  73.4589672  28.2518911  76.4976155   2.8250303  59.8398495
  75.8547531   2.8120222  60.5489302  76.4922987   1.9319906  59.4953299
  37.5624752  75.3037119  42.1778631  36.7527366  75.7200098  42.4732447
  37.9815769  75.9617233  41.6232395  78.9370725  56.3055271  24.0228080
  78.9580009  55.4721206  23.5524558  78.0853961  56.3126892  24.4596481
  71.8712317  12.3422994  56.2263775  71.7264687  13.0801382  56.8187237
  71.4870726  12.6230135  55.3957987  75.0260592  72.4359417  38.8099837
  75.9386444  72.3303175  39.0788078  75.0472784  72.3615742  37.8559136
  67.4684572  69.6852255  20.0615168  66.9840813  70.4280519  20.4218197
  66.7998981  69.0200520  19.8977983  29.4500160  74.2054939  54.0714312
  30.3435564  74.5158100  53.9247179  29.3500924  73.4691477  53.4680748
  29.4096809  20.9633531  14.3180394  29.2756229  20.4809847  13.5022116
  28.6243873  21.5030565  14.4089854  31.1146824   5.2098741  28.8366270
  31.0005619   4.7597875  29.6736622  32.0305680   5.4880514  28.8371849
  84.0252100  24.7738733  64.2170143  83.2028805  24.9003305  64.6903133
  83.7994372  24.1836824  63.4980392  48.0706588  63.3270687  21.8046283
  48.6453477  63.6982006  22.4741172  47.8632156  62.4498218  22.1265601
  48.9581039   4.7670587  18.0151557  49.6108177   4.0716203  17.9341125
  48.2944372   4.4053873  18.6025047  68.6288344  32.5213899  44.8724794
  69.0500294  31.7361154  45.2220154  69.3329464  33.1677045  44.8201227
  11.4590406  65.6062555  54.3866491  11.4963222  66.5403700  54.1810417
  12.2664523  65.2475357  54.0183592  15.1224518  55.7126856  46.2065554
  15.0440240  56.0160255  45.3020859  15.6583571  54.9217129  46.1482811
  13.9371479  54.8037815  49.8744917  13.9910364  53.9237452  49.5018435
  14.8131061  54.9705696  50.2225018  16.6308056  16.7161836  65.7823706
  16.8893420  15.9043684  65.3460884  17.2087358  17.3824777  65.4105139
  17.4311160  12.0054330  64.6428061  18.2342910  11.5768327  64.9385118
  16.8301689  11.2845029  64.4548130  38.4264861   5.6319990  61.4930487
  37.7707659   5.1893129  60.9542608  38.1100755   5.5265703  62.3902702
  80.4029976  15.2365198  40.0347376  79.8804222  15.9561052  39.6806931
  81.3064944  15.5482568  39.9823022  61.4336878  58.4002352  60.5728292
  61.4167243  57.4705553  60.8000708  61.6661721  58.4156656  59.6444225
  78.9557253  28.2407369  33.0816221  78.8925349  29.0420618  33.6013532
  78.4481799  27.5954141  33.5737514  66.2402879  41.6656866  63.6308956
  66.9494044  42.1723070  64.0267754  66.2419378  40.8367815  64.1095877
  33.1046825  15.1667394  38.4720850  32.7215915  15.7970037  37.8619671
  32.4614291  15.0946130  39.1772437  46.5910673  46.8596268  51.6265202
  46.2127638  46.3861656  52.3674345  47.4942589  46.5463686  51.5780687
  55.2133703  70.0698376  59.9600697  54.4252014  70.5992794  60.0813580
  54.9394035  69.1789961  60.1781893  27.5845122  48.3058596  17.0222509
  26.7040539  48.1540108  17.3657143  28.1424284  47.7091503  17.5211465
  72.8495608  35.9698433   6.7447185  72.7888725  36.8110651   6.2920665
  72.3484061  36.0947985   7.5506114  16.3204873  75.3713465  36.0344100
  15.6162214  75.6969500  36.5949655  15.8987641  74.7200346  35.4739022
  77.1690499  21.9500246  54.9935722  76.6300188  21.1610975  54.9364233
  77.0532690  22.2545328  55.8936310   0.1006131   8.1781473  59.2359543
  -0.6930728   8.1849851  58.7009335   0.7183128   8.7290754  58.7551737
  65.9154331  30.5537977  51.9556189  66.8575536  30.7185640  51.9942427
  65.5683719  30.9607401  52.7494574   4.6077715   1.6394224  51.3190651
   5.4998456   1.5362444  50.9877205   4.6247279   1.2299814  52.1841145
  29.4802690  74.0530300  46.6725874  30.3736949  73.7412691  46.8169069
  29.2210531  74.4339371  47.5116062  58.1638288  54.6204996  41.1915541
  57.4694204  55.0092840  41.7234135  58.5307598  53.9303446  41.7440796
  28.7657036   6.5446558  59.1141462  28.4709022   6.9610681  59.9240398
  29.0086588   7.2743787  58.5443163  28.2151031  68.9359426  22.8160453
  27.2956800  68.8326597  22.5706434  28.2494378  69.7798586  23.2664418
  84.7272574  29.5071973  42.4102545  85.0931298  30.1423826  41.7946911
  85.0303446  29.8034372  43.2685184  67.3681736  59.6565628  60.7630348
  66.9190311  60.0453711  61.5135908  66.7846775  58.9561081  60.4712629
  11.0673654  60.5645847  60.5737257  11.7654729  59.9444151  60.3633308
  10.7142878  60.2539682  61.4074421   9.7976414  29.4398731  13.2695197
   9.0765063  29.1992325  13.8511466  10.2715341  30.1220888  13.7451648
  52.9441745  56.2630695  11.3139724  53.4141538  55.7467502  11.9687652
  52.1984468  56.6302532  11.7886257  35.3919237  21.4583578  53.4473133
  35.9505789  21.1196699  52.7477264  34.5564978  21.0070600  53.3263826
  57.5562035   7.7635755  65.7668447  57.0962774   8.5256948  65.4148769
  57.3228418   7.7506055  66.6950703   3.3141343  25.1074117   4.4848251
   2.9079286  24.9754518   3.6281967   3.9506213  24.3964666   4.5601606
  55.8380365  43.2477903  64.0274000  55.0270224  42.9740095  63.5989904
  56.2314415  43.8727570  63.4184027  59.5811330  76.3675336  15.1501655
  59.0593373  76.4878468  14.3567657  60.4886423  76.4122633  14.8490714
   2.8695350  25.7172670  41.4619064   3.7292104  26.1168756  41.3296318
   2.4202161  26.3096990  42.0647049  70.3370415   7.2614851  49.8944712
  70.0873886   8.1829538  49.9638033  70.2794968   6.9296827  50.7904768
  29.3070650  68.2274675  59.6001053  30.1594234  68.1673098  60.0314951
  28.8894629  68.9902306  60.0001431   9.8721938   6.6366377  32.1143532
  10.2742820   6.1215105  32.8137898   8.9644914   6.7537965  32.3946786
  69.9237477   4.6629324  33.0078101  69.6420561   4.9127664  33.8878465
  70.6600891   5.2443018  32.8179479   7.4829774   9.9242677  40.1633501
   8.3046155   9.7911062  40.6360149   7.6477199  10.6850137  39.6062589
  26.7800002  29.5588674  27.9169583  26.9203902  30.2674093  28.5450435
  27.6475993  29.1743841  27.7917504  35.9484426  59.2436832  28.0256366
  35.5564205  59.5433945  28.8458347  36.7767087  59.7200054  27.9679489
  82.6864468  35.5284490  37.7640796  81.9205319  35.3056421  38.2931995
  82.3449932  35.6183138  36.8743777  31.2526742  20.1189560   6.3832521
  30.5748598  19.4508451   6.2811374  31.1812202  20.3949398   7.2970151
  74.8502194  76.1613659  15.5634975  74.3414437  76.7182187  14.9741840
  75.7503640  76.2370066  15.2468776  15.0437347  78.1819576   0.1708125
  15.6596366  78.0393070   0.8895254  14.4498149  77.4324364   0.2120113
  15.9548383  12.2087278  36.8521309  16.0797458  12.0877638  35.9108567
  15.1117997  11.7948045  37.0370150  33.8035909  51.3168377  13.3091640
  34.0983573  50.4859966  12.9362678  32.9632179  51.1108917  13.7185382
  54.7566735   0.8538427  26.2188411  55.0109731   1.6561594  26.6747475
  55.4145180   0.2101602  26.4818025  20.8729640  33.0293220  11.1546707
  20.1730720  33.6350626  10.9108257  21.4867250  33.5631222  11.6592311
  52.4174423  34.0185732   8.9451360  52.1903569  34.3064588   9.8293208
  51.9919265  34.6541447   8.3696222  65.2439820   8.4714498   9.8422474
  65.9326660   8.7426557   9.2352921  64.5796954   9.1570940   9.7725993
  42.5523472  63.1457710  27.5184417  42.3346567  62.8538990  26.6331983
  43.4859467  62.9556656  27.6105213  60.9408628   4.9858465  38.6955595
  61.0559188   4.5795335  37.8365493  60.4613315   4.3338480  39.2066193
  75.6376094  66.2226248  53.1275606  74.7232252  66.1959362  52.8457451
  76.0643595  65.5309153  52.6219320  11.4815775  48.3135551   3.5597753
  10.7065336  48.3270687   2.9982089  11.1478392  48.5170311   4.4335317
  61.4078914  21.8199434  63.7319708  62.0380198  22.2123804  64.3362617
  61.9056999  21.6755762  62.9272509  81.3411175  20.8642759  67.3166466
  81.3199126  19.9073209  67.3119831  81.5529286  21.0947504  68.2212162
  64.3552362   2.8468122  48.6157417  64.2142784   2.2138395  47.9116774
  63.4739338   3.0877103  48.9012384  34.7589485  56.6239685  11.7104720
  35.0580493  55.7178158  11.7857360  35.1055089  57.0561928  12.4910545
   6.1919313  16.8200197  66.9291973   5.7638698  17.0097532  67.7640629
   7.0735316  16.5362920  67.1710920  23.0088798  35.6272310  34.9594688
  23.0585996  34.9126619  35.5944061  22.2937910  36.1793560  35.2757549
  11.9656825  74.1346073  30.5990005  11.5682554  73.6740065  29.8599935
  11.4917755  74.9649000  30.6465936  45.0828687   8.2005018   6.4561796
  44.1821233   7.9354996   6.2699890  45.6016199   7.7873415   5.7659435
   8.7728993  55.3060860  15.3246307   9.5762292  55.1248878  14.8367214
   8.7812392  56.2541717  15.4561424  16.1333995   3.3565893  55.9704924
  15.9645562   4.2428579  55.6507254  15.6385284   3.2985105  56.7877817
   0.9939066  34.0446228  10.9428787   1.2379257  33.6732429  11.7906761
   0.0375740  34.0799278  10.9631824   2.1041028  39.3982691   5.7039928
   1.4217559  38.7274021   5.7279014   2.8519289  38.9647287   5.2928542
  26.8424026  69.2300743   0.7460641  27.2240583  68.5346168   1.2817048
  25.9397403  68.9489979   0.5962848  54.7913027  67.0586109  63.5413837
  54.7259617  68.0098295  63.4568644  55.0650454  66.9169188  64.4475985
  21.1135215  62.9478788  26.8020821  21.3588160  62.1615028  27.2895980
  21.3860625  63.6730099  27.3643422  18.7738519  13.4947385  48.6741161
  18.1482034  12.8288927  48.3887243  19.5860725  13.2705297  48.2199526
  53.3121382  11.9673147  67.4801874  53.0920874  11.3547506  66.7783403
  53.8693177  11.4625826  68.0726624  35.9525148  35.8656019  10.1698160
  35.1834718  36.3793033  10.4166221  35.8173076  35.0156254  10.5887412
  36.6303687   2.8099336  24.0288496  37.2267776   3.4722032  23.6796689
  36.4596419   2.2273245  23.2888150   3.4646850   9.2377367  18.8026512
   3.2664209   9.1151704  17.8742659   3.8626676  10.1070013  18.8498461
   2.6383214  15.3600111  29.8307967   3.3902650  15.9521665  29.8178458
   2.8897433  14.6409025  29.2512226  15.7287030  32.3246088  28.9139771
  16.4624267  31.8628683  28.5081720  16.0587649  32.5916280  29.7718763
  13.3924918  22.9355802  45.5967617  13.7810092  22.1928968  46.0590410
  13.8879542  23.6947336  45.9040594  64.8924160  63.1955671  14.4465411
  65.2673340  62.5960684  15.0917280  65.6306362  63.7352562  14.1636980
  27.8830481  68.3679676  51.8341732  27.5627875  69.2661285  51.9176769
  27.5678706  68.0799818  50.9774542  61.1172324   0.5453857  36.2299562
  61.0293609   1.4398494  36.5592647  60.3004748   0.1154708  36.4835548
   8.1161870  58.4318004  60.4963446   8.9203848  58.1723938  60.9460115
   8.0154742  59.3610535  60.7026911  85.1674686  32.7376318  43.4592056
  85.3627998  33.6271429  43.1645060  84.2406589  32.7622700  43.6972141
  82.5019476  21.8611217  45.5180883  81.6294312  21.4740086  45.4467487
  82.3542938  22.8026271  45.4286623  58.5816199  24.4531798  21.2681746
  58.3657247  23.9817691  22.0727825  59.4674283  24.7847772  21.4152074
  62.1223103  53.0717353  14.6883392  62.9000174  53.3392409  14.1985988
  61.8899309  52.2187046  14.3214988  14.5229650  14.8130810  30.1574659
  15.1557994  14.3995047  30.7445836  14.9757624  15.5880344  29.8248172
  58.6521975  60.8347235   1.0388471  57.9664704  61.5007935   1.0874286
  58.1882180  60.0296007   0.8092096   7.0808852  11.5387678  45.9061766
   6.1615646  11.3945925  46.1304426   7.3815155  10.6933701  45.5727768
  50.5683947  19.1837847  60.9337425  49.6849871  19.2064679  61.3015890
  51.1304522  19.5007062  61.6407681  55.5283144  64.5853005  66.5221786
  56.0399507  64.0888307  65.8834457  55.5355703  65.4827474  66.1893606
  25.5984068  27.3167706  64.4896555  25.9698462  27.5205755  65.3479815
  25.9346533  26.4444494  64.2841673  12.9652750  44.4262695   9.4024938
  12.6470244  43.9197159   8.6552662  12.2407210  44.4116354  10.0278246
  15.8776820  38.3640337  51.9255018  16.1925411  37.6430035  52.4706697
  16.6580129  38.8897419  51.7495823  80.9015462  33.2648039  56.4887333
  81.4305738  34.0433168  56.6627359  81.3813588  32.5505447  56.9080687
  63.5821849  10.2938807  35.8697486  64.3592459  10.7256198  35.5147696
  63.6913401  10.3470671  36.8192172   2.0258130  63.7099634  46.9203138
   2.9440273  63.8253639  47.1648455   1.5662278  64.4155059  47.3755312
   4.9064955  11.5030694  10.6512272   5.4960763  12.2545922  10.5892563
   5.0544089  11.1544585  11.5303314  47.5190050  66.1546479  67.0917225
  47.0164908  65.5993770  66.4955807  46.9205333  66.3293574  67.8180408
  11.4216864  54.2768764  32.4738026  11.3440609  54.3494987  33.4250808
  12.2810543  54.6483898  32.2745633   3.0437520  11.8438506  55.0334740
   2.2419822  12.2830009  55.3172779   2.7798712  10.9357429  54.8853540
  80.1896567  67.7188168  32.9120207  79.7523518  68.4494362  32.4747634
  81.0188193  67.6211295  32.4438572  78.8566322  74.8196659  56.8948841
  78.3343120  75.5727423  57.1710920  78.9339681  74.2802445  57.6818275
  28.0714989  37.8087258  26.5628052  28.3023047  38.7372160  26.5922189
  27.5497603  37.6664829  27.3526073   3.7125391  21.5789890  50.5169868
   4.6057081  21.2581849  50.6417513   3.8139406  22.3701620  49.9878454
  25.3661466   5.9123719  25.6713414  26.0849881   5.9993392  25.0452948
  25.1894665   4.9721882  25.7040739  82.6484075  40.2739000  34.1734052
  82.4995232  39.3290734  34.2104006  83.3927773  40.3760290  33.5803485
  17.1571791  18.5006285  56.0427141  17.7872241  18.3285213  55.3429604
  17.0242107  17.6494813  56.4599657  40.6107616  20.6743622  27.8550768
  39.9180532  20.0141597  27.8323126  40.5961037  21.0670924  26.9822764
  39.8107251  32.6955074  68.1909817  40.5245360  33.1547368  67.7484731
  39.0320726  32.9126209  67.6783477  58.4331224  78.5248054  26.6576672
  58.9130283  78.5070219  25.8296537  58.8084884  79.2639330  27.1362305
  73.3706766  18.3825648  61.1007881  72.5508505  18.3138525  60.6115055
  74.0536934  18.2481217  60.4437876  16.9320726  34.5104313  41.7523193
  17.4356127  33.6991835  41.8198395  17.0769417  34.9525762  42.5888348
   4.7018096  48.7728643  33.0135107   4.4377530  49.6301651  33.3474946
   5.6540489  48.7611055  33.1101227  43.8427039  68.7342745  61.3665385
  43.9278110  67.8541952  61.7332090  44.7424515  69.0067202  61.1863697
  65.3422314  43.9803505   2.9118097  65.8049446  43.1468773   2.8255263
  65.0039774  43.9749336   3.8072354   1.9273418  50.2288198  51.2462950
   1.7592850  51.1254120  51.5363073   1.5623251  50.1906586  50.3622484
  56.3984870   4.1326469   2.6941442  55.8272148   4.0905136   3.4610271
  57.2039604   4.5363230   3.0173921  11.4933348  19.8449540  44.5913267
  11.9632876  20.2285218  45.3317690  10.9115434  19.1960323  44.9871206
  65.2836305  24.0402389  51.1467981  65.8109492  24.2200541  51.9251490
  65.1049691  23.1008673  51.1903048  79.9243742  21.1838245  65.0674868
  80.3479078  21.2842178  65.9199953  80.6279573  20.9038305  64.4819880
  66.6594762  24.5339561  33.6579323  66.0879606  23.7985063  33.8786435
  66.7854136  24.9964619  34.4864607   1.8068606  38.1734848  37.8551388
   1.4865085  37.4294591  37.3452020   1.0319705  38.7167192  37.9989195
   4.4780859  24.3527007  31.2071323   4.1887420  24.0608573  32.0716214
   5.1025087  23.6842155  30.9252524   5.1385725  28.0996060   3.2477176
   5.1985252  28.8257504   3.8684839   5.5116779  28.4460163   2.4371478
  77.0594627  12.9228103  17.0769048  77.1286392  13.0437517  18.0239105
  77.9505575  12.7143168  16.7963481  15.7054877  23.3575559  63.2314205
  15.0121248  24.0171552  63.2516766  15.3313684  22.6027536  63.6858892
  75.9137791  45.3505373  32.8407669  75.9857816  46.3017368  32.9199338
  75.2919966  45.0997210  33.5239291   4.3600756  30.9890151  51.5837574
   4.4110093  31.6377139  50.8817387   3.4535515  31.0355258  51.8875408
  10.7252860  21.8922877  38.5643268  10.1275480  21.2255049  38.2261825
  11.1978030  21.4537168  39.2718673  49.8008497  66.0430811  14.2744958
  49.2841763  65.4959820  14.8660719  50.6486196  65.6020639  14.2195237
   1.5576647   9.8129886  52.5062180   1.3762634  10.7466400  52.3984194
   1.0640654   9.5616663  53.2868767  67.2822493  39.3908048  52.7871609
  68.0064660  38.8801527  52.4252558  67.0372909  38.9255071  53.5869884
   1.5070308  59.6879135  55.1664400   0.8439888  59.0051065  55.0645304
   1.6758050  59.7192417  56.1081219   7.2824210  15.0222003  58.2958126
   6.5409780  15.5168140  58.6448860   7.1340197  14.1251278  58.5949278
  22.8191543  20.6294084  40.8838511  22.3563838  19.9118614  40.4511833
  22.5586200  20.5630040  41.8025160  22.1951866   2.3150612  29.9503446
  22.1772838   1.8097232  30.7630849  23.0700827   2.7027646  29.9285960
   4.3103966  23.5911393  40.3427410   3.8324761  24.2710948  40.8175945
   4.9420765  24.0716481  39.8076487  78.5636992  78.2735136  44.0486574
  79.4147105  77.9598796  44.3546724  78.1044001  77.4826346  43.7661886
  78.1899381  33.9382958  37.8443122  77.7673936  34.0936780  38.6890292
  77.5898135  33.3547330  37.3800564  36.5874611  28.5793785   3.7883901
  35.7326208  28.8698594   4.1063499  36.8508934  29.2523734   3.1607627
  35.2838206   5.2817482  49.1578913  35.0453210   4.9196121  48.3045435
  34.7555017   4.7869202  49.7841978  59.1497218  79.7498516   1.6048955
  58.6063277  80.3208117   2.1479940  59.7652255  80.3433708   1.1746358
  14.4404197   1.8059173  21.6762829  14.4339013   0.9869384  22.1717238
  15.3682029   1.9885269  21.5276098  52.6716720  51.6419772  12.0820903
  53.4675919  52.0708887  12.3963832  52.9754983  51.0441736  11.3990402
  75.7739788  13.1434739  62.0707989  76.2243295  12.7691901  61.3136148
  75.9642333  14.0803874  62.0236158  84.2184870  53.0131499  24.2646407
  84.3451421  52.2763423  23.6668968  85.0580804  53.4728090  24.2594909
   3.0025543  67.7803169  44.3572617   2.3200143  67.1449147  44.1413116
   3.8028730  67.2592841  44.4224358   0.0290665  27.1968126  64.0086842
  -0.3922001  26.3393068  63.9499569   0.4071727  27.2182155  64.8877764
  67.4134023  79.3902474  56.3966274  67.2028429  78.5888038  56.8757772
  66.5882893  79.8744469  56.3654518  71.3499373  34.1950631  57.2245455
  71.7446440  33.4531593  57.6828194  70.4126412  34.0010118  57.2174025
  13.4609302  47.7775907  68.6392453  14.3486770  48.0351555  68.8878363
  13.0618759  47.4754322  69.4551417  35.9293341  63.5729961  11.1595821
  36.2678318  62.9421548  10.5242156  36.5981172  64.2567329  11.1978435
  82.2230143  76.3295884  40.7918167  81.3094897  76.5034927  41.0186768
  82.7099914  76.5250648  41.5923643  77.9672191   0.0393528   0.7751035
  78.8983772  -0.0638348   0.5788087  77.9477093   0.3947491   1.6636657
   2.4038590   3.7731096  30.3755760   2.9012677   2.9662675  30.2420759
   1.7787114   3.5573605  31.0675836  35.5556425  67.9313713  56.6727567
  36.4837178  67.7623516  56.5104604  35.2252128  67.1144825  57.0465744
  38.3897998  46.4635736  67.2718150  39.2584129  46.3752901  67.6641802
  38.0950280  47.3350459  67.5361568  72.9781861  60.3819011  61.5266705
  72.4238164  59.7940884  61.0134602  72.6208312  61.2541745  61.3603306
  75.5480886  33.4915280  46.6691160  76.4252049  33.1136537  46.7332220
  75.4556859  33.7271500  45.7459831  11.9899046  35.5305314  40.0961685
  12.4056339  34.9674463  40.7491112  11.1893141  35.8388662  40.5206871
   6.3645244  31.4578056  35.0424242   6.7504513  30.9579873  35.7617807
   6.1638021  30.8013749  34.3753099  -0.0229274  25.3931522  60.7161045
   0.9241771  25.2581882  60.6843233  -0.1258166  26.3284302  60.8918810
  75.9329076  57.4867521  46.7694330  75.0960500  57.0493970  46.9263506
  75.7478387  58.4153686  46.9096279  83.0493176   4.2814383  49.1042805
  83.2687649   5.1783293  49.3565941  83.0600180   4.2924470  48.1472063
  74.8687488  52.2671795  42.0993614  75.5708450  52.8869200  42.2973919
  75.3203398  51.4415121  41.9245243  73.0972177  45.9582043  41.2675476
  72.5195211  46.6004610  40.8552265  72.5033301  45.3455210  41.7013073
  66.9553132  76.8511451  62.3643684  67.3742897  76.0639126  62.0165825
  67.3214645  76.9489221  63.2433462  37.9174514  76.5888757  37.9839587
  37.7782733  77.0346702  37.1484184  38.7917073  76.2064595  37.9086852
   7.7438450  42.5850534  37.1891904   8.1109756  42.1537352  37.9608202
   8.0407643  43.4924316  37.2580051  15.1735961  52.1422052  40.6842375
  14.9621606  53.0736828  40.6219196  15.3739846  51.8814278  39.7853088
   1.8064703  76.6886822  46.7633486   1.7774094  77.0024533  47.6671934
   2.5111116  77.1933759  46.3571501  84.5030154   7.3124349  16.4029038
  84.3452539   8.0914557  15.8695471  84.0670421   7.4991053  17.2343564
  77.5425978  79.5943321  46.3282967  77.7851839  79.3457288  45.4363441
  76.7105491  80.0572246  46.2300158   6.9080126  22.7889633  31.0498190
   7.2297615  23.6509943  30.7859778   7.4918461  22.1706247  30.6104684
  70.0656003  32.4052453  34.4469047  69.9556524  33.3460212  34.3087506
  70.5923039  32.1138167  33.7026715  13.1355441  58.3554411  59.4732428
  13.4178507  58.0179453  58.6231661  13.9490175  58.5892773  59.9202490
  16.6164752  39.9280781  68.6888207  17.4913426  39.6956268  68.9999553
  16.4356681  40.7762226  69.0940264   4.5232067  52.9549551   4.2109710
   4.8350307  53.8529634   4.3231505   4.3448153  52.8786945   3.2736385
  38.3674288  26.2926507  29.0319180  37.7458215  26.5942740  28.3694530
  38.8605404  27.0770192  29.2724180  21.6192794   8.1972098  48.8183451
  20.7476664   7.8077316  48.7488365  22.0583057   7.9485214  48.0049324
  10.7760252  75.2931515   8.6605054  10.2886571  76.0671515   8.9426929
  11.3728250  75.1083444   9.3857002  19.0534782   3.8572910  52.6357269
  18.8251066   4.7530115  52.3872042  19.1836953   3.8974151  53.5831785
   5.1135005  73.3810178  60.1630259   4.4096483  72.7324430  60.1761246
   5.5401553  73.2543699  59.3155813  48.8651806   9.9273276  55.7954979
  48.8496810  10.8664584  55.9799576  47.9424316   9.6774286  55.7473850
  13.8329148  29.0977550  34.8188734  13.0094182  28.7322330  34.4956398
  13.5715234  29.8690319  35.3219032  28.5167170  61.1100578  33.8422227
  27.9362416  61.0664558  34.6020770  27.9526067  60.9013939  33.0975938
  26.2065244  36.1664796  54.3530846  25.7346034  36.9019794  54.7436762
  27.0558500  36.1652970  54.7945309  18.6404240  39.5043135  34.4368601
  18.1754279  39.1779113  35.2072310  17.9689384  39.9552631  33.9250183
  78.7994999  11.9544780  42.4990511  78.3075154  11.2750494  42.0380068
  78.4178060  12.7767682  42.1918392  24.7876740  10.9676743  44.7508049
  25.6994557  11.2374175  44.6406984  24.6297979  11.0357738  45.6924343
   1.2533892  73.4346805  43.2863808   0.6593693  73.1026975  43.9595556
   1.3034190  72.7287809  42.6418400  64.1704095  67.9505787  14.4005477
  63.8662959  67.5200758  15.1995552  64.6925623  68.6903403  14.7109365
  63.0667062  58.4914074  65.5548239  63.7600202  58.1267200  65.0047779
  63.4795345  58.6159740  66.4093924  27.9421186  22.8212690  35.0033092
  28.1623769  22.8297615  34.0718341  26.9899464  22.9167676  35.0251555
  28.3018422  34.4587183  39.3565249  27.5827503  34.9970889  39.6871233
  27.9403853  33.5731888  39.3188953  30.1814294   5.9367925  42.9536819
  29.3534184   5.5192631  42.7164125  30.1105261   6.8250877  42.6042032
  18.6771095  31.8791628  50.8983660  18.5588026  31.0334826  51.3308716
  18.6056900  31.6825414  49.9643040  55.1178442  60.2311043   4.2227840
  55.7743107  59.5390193   4.3021535  54.3416702  59.8758022   4.6558523
  77.2043128  65.9794412  40.9833431  77.5828118  65.1349280  40.7388687
  77.5957103  66.6033218  40.3719378  72.1491069  18.8256299  41.8123007
  71.5679377  18.1961346  42.2391605  72.4753708  19.3729687  42.5265884
  68.3424920  17.7449870  32.5554800  67.6050395  17.3084390  32.9818845
  68.0355126  18.6384821  32.4016571  -0.2003101  20.5567026  16.8181205
  -0.3056211  20.7014108  15.8778012   0.5914572  20.0237966  16.8912482
  75.9550030  64.8412786  44.8695660  76.5097589  65.4843054  45.3111506
  76.5376229  64.1022370  44.6946287  75.8063753  79.5324182  33.6902356
  74.9613864  79.1409410  33.4689403  76.0278983  80.0698044  32.9297256
  84.8619671  76.6067404   9.3860978  84.3017931  76.8736992   8.6572838
  85.6757207  77.0929513   9.2533004  78.3870053  25.1313448  52.2151661
  78.0932045  24.2526793  51.9746256  79.2932528  25.1728272  51.9098377
  13.2213283  60.7206917  12.5262630  14.1141224  61.0373259  12.6637161
  12.9124308  61.2010765  11.7581177  21.4829040   1.4837493  40.5798101
  21.5759659   1.1172374  41.4591503  22.0719099   0.9587166  40.0379181
  70.5092342  62.5234411  64.8513603  69.7482915  61.9792662  64.6486950
  70.6097598  62.4506924  65.8004808  71.0322959  69.8301707  53.2676411
  70.8524949  70.0115917  54.1901350  70.2279587  69.4263456  52.9417610
   3.3055457   6.6530067  48.4257793   3.7847582   7.2613871  48.9883280
   3.8438484   5.8615786  48.4155893   3.8058540  38.2029343  19.7053933
   4.6214336  38.5535550  20.0633407   3.4564072  38.9124060  19.1661644
  33.4603642  66.1201815   8.3371591  33.6297410  65.1967577   8.5237884
  32.8938197  66.1086206   7.5657129  20.5171657  58.6428452  46.3633156
  20.2584124  59.4670677  45.9510851  19.7634935  58.0659676  46.2391138
  19.3404329  14.3625104  38.9199066  19.0113556  14.6848500  39.7589779
  19.9749029  13.6856377  39.1555405   2.8966692  62.6157141  13.2470906
   2.5874171  62.2128820  12.4357188   2.7767321  63.5552597  13.1088972
  58.2571697  17.8631556  34.1354227  59.1288996  18.0665410  34.4744658
  58.1504679  16.9255745  34.2960119  67.8300732  33.3698511  47.4000263
  68.7863475  33.3398080  47.4295044  67.6119524  33.1658864  46.4906025
  26.3356550  44.0209130  22.7709674  26.8924158  44.6391583  23.2442760
  26.5188459  43.1739048  23.1774806  65.4843789  15.1224923  41.2059069
  66.2361437  15.3519380  40.6596136  64.7729665  14.9720812  40.5834103
  77.6012659  44.3345928  40.2755499  76.8207806  44.6060228  39.7924376
  78.1831563  43.9731598  39.6069670  24.9981666   6.6409725  15.7360017
  24.5301557   5.9701389  15.2388299  25.1200891   7.3584628  15.1142502
  34.1183949  79.8041344  40.6368160  34.4103694  79.7780943  41.5480280
  34.4039679  78.9674854  40.2697992  35.1153636  39.2879415  20.9002852
  35.1117015  40.2448750  20.8779621  35.8861947  39.0394092  20.3901052
  13.3595634  66.1943674  19.5909822  13.8311601  66.8804455  20.0633430
  13.7891519  66.1531591  18.7365901  39.6077013  50.8494854  10.1740944
  39.6019006  50.7408571   9.2230964  38.6924720  51.0125637  10.4021227
   4.7928113  41.7830849   9.7299147   5.3554875  41.0132742   9.6461612
   4.4605571  41.7404890  10.6265891  19.3447375  38.0544567  24.7976327
  19.3823922  38.6528063  24.0514469  18.6359513  37.4480557  24.5828462
  22.8727865  45.5221224  24.8272061  23.1661487  44.8890543  25.4824901
  22.6781273  46.3135910  25.3291225  83.9476790  22.7067351  29.3527317
  84.5634600  22.0473146  29.6724343  83.0947202  22.2735476  29.3850207
  68.6930960  27.8644824  30.6115127  68.5647076  27.9029584  29.6637416
  69.4585234  27.3014140  30.7268620  36.9522810  22.9569197  21.8749475
  36.4527440  22.7894521  22.6741028  37.1690559  22.0863914  21.5411472
  10.7122195  49.0488338   6.6080469   9.7949439  49.1684771   6.3620311
  10.6828630  48.4630919   7.3645341   3.9982253  74.5363569  55.4476118
   4.3490914  73.6529350  55.5602789   4.7378728  75.0478077  55.1196337
   7.1009851   0.5265976  66.7073774   6.4112401   1.1783908  66.5822840
   6.7762852  -0.2546695  66.2596941  82.6984137   9.8029315  64.3508959
  82.5251713   9.3364620  65.1685905  81.9120634   9.6621120  63.8235855
  27.1700740  10.0250733  28.5712814  27.6864028   9.2195272  28.5441875
  27.2010088  10.3596497  27.6749921  22.3849929  63.3211587  22.2818232
  22.1113504  62.6097546  21.7028117  23.3110584  63.1487904  22.4518943
  18.9032328  12.2499847  69.2335272  17.9602110  12.0990849  69.2981148
  19.1643429  12.5150096  70.1154613  72.8635615  27.2250032  44.7310019
  72.1979481  27.8726244  44.9628973  73.3864814  27.6515293  44.0521336
  38.5940456  26.3641620  58.7364388  38.9799333  26.4559126  59.6075916
  38.1144071  25.5366039  58.7728930  47.9164743  17.3508942  47.2435331
  47.0456505  16.9973564  47.4249601  48.1596756  16.9678187  46.4007187
   0.2154763  37.4370694  31.3408804  -0.3461977  37.1041822  30.6409216
   1.0874710  37.1056986  31.1262846  19.2132545  67.2628832  21.8223047
  19.9344957  66.7713308  21.4293432  18.8116431  66.6486979  22.4368882
  51.9894325  37.2485165  15.5973815  51.8854081  36.4695970  15.0508499
  52.8005563  37.6516695  15.2878951   8.2760775  44.0327883   5.3642082
   8.3728921  43.7997961   6.2875575   9.1721320  44.0591431   5.0286132
  54.0101719  19.0389597  69.2774296  54.0372705  19.0839052  70.2331877
  54.0606880  19.9515927  68.9932060  10.0699212  64.1954261  62.5932789
   9.6908691  63.7951142  61.8107838   9.6316221  65.0433713  62.6647914
  28.5334144  57.0791392   4.4525146  28.4861421  56.4964894   5.2104854
  28.4729707  56.4946000   3.6969423  18.0766225  70.6124210  31.6941261
  18.7601388  71.2310219  31.4364958  18.5503674  69.8900604  32.1064281
  38.0117464  10.1883399  49.7739077  38.1985593  11.0398757  50.1691532
  38.3440018   9.5522207  50.4073048  72.3005110  26.8193555  35.8382225
  72.8845185  26.1725092  36.2341499  71.6108984  26.9495869  36.4891505
  72.7229235   1.9179434   0.7092952  71.7941544   1.7079109   0.6118059
  72.7339790   2.8377813   0.9738921  31.6254209  63.3681873   7.4814271
  30.9665488  63.5345630   6.8073081  31.1203473  63.2489542   8.2857370
  33.4659147  13.9639568  29.3012190  34.0765429  14.5359063  29.7662354
  32.7341795  14.5348322  29.0669155  20.0462627   7.0956814  12.2178602
  19.0931296   7.1559083  12.2822201  20.1999044   6.3813776  11.5994787
  18.4786224  36.6962981  51.0084343  18.5878992  37.4019933  50.3710270
  18.3610582  35.9092116  50.4765463  10.0151527  32.1753812  16.6468477
   9.3594182  32.8584313  16.7871547  10.0388515  31.6927600  17.4731326
  16.7591596  36.9921708  60.7464933  17.6102304  36.5559173  60.7065964
  16.7068076  37.3339415  61.6390657  45.2770471  47.4033330   8.6365985
  45.7283603  47.5123117   9.4736575  44.3480812  47.4829094   8.8532161
   3.5170716  49.0302801  53.3986855   3.0132273  49.4804811  52.7206802
   3.9131808  48.2848072  52.9474735  35.9343219  31.6841197   5.8263606
  35.9382987  30.8100343   6.2164766  35.3703952  32.2007418   6.4019668
   9.7603625  44.4876909  26.3031554  10.4177856  44.2570210  26.9595242
   9.3270934  43.6594915  26.0967755  12.3450041  39.4039488  42.2099733
  13.0944324  38.8597584  41.9682169  12.6188827  39.8452020  43.0140352
   5.9891695  16.6462445  22.9874086   5.1053572  16.4771652  22.6610351
   5.9418625  16.4452767  23.9220786  33.1156230  25.5978060  43.0478859
  33.1097341  25.7276416  42.0995522  34.0274835  25.3943825  43.2561255
  69.2892963  64.1533709   4.0055045  69.3306738  64.7802401   4.7276914
  68.7510651  64.5864677   3.3429566  29.3676662  22.9916906  23.1855249
  28.6966944  23.6706543  23.1145501  30.1964903  23.4672594  23.1296825
  21.0877895   7.8596020  22.7312469  21.6386199   7.7445006  21.9569278
  21.7062950   7.9073286  23.4602213  12.6713233  30.2969740  24.5490646
  12.0100217  29.6443121  24.7791671  12.1850448  31.1191241  24.4871425
   6.9509829  76.6257567  31.2223482   7.6848615  77.2382356  31.2725782
   6.1763872  77.1846626  31.1602259  22.3488235  31.7376494  19.1294765
  21.4889050  32.0127773  19.4474018  22.5051451  30.8966279  19.5589888
  26.2243581  35.5674696  35.0815678  26.5351081  36.2724972  35.6495476
  25.3779364  35.3170681  35.4518366  73.2118565  15.5106175  42.8714705
  73.8006872  16.1659598  43.2456827  73.2162064  15.6933928  41.9318914
  83.5059054  53.4860086  35.1213288  83.6051707  53.1637287  34.2254972
  84.3990805  53.6775255  35.4073191  79.1376817  32.2737098  48.8353062
  78.2895291  32.2590733  49.2787647  79.3832201  33.1987286  48.8184643
  20.7647467  37.8766155   8.6370677  20.2247429  37.1052742   8.4648430
  20.2412081  38.4060502   9.2385960  15.4684341  20.5016994  34.8384643
  15.1703465  19.8370337  34.2175031  16.3345432  20.2011037  35.1136518
  46.0424852  30.4086757  37.4314570  45.8921862  29.4808793  37.2502542
  46.9884205  30.4772806  37.5607896  26.7125940   8.1141251  40.2930593
  26.3644838   8.3686084  39.4384885  26.1782360   8.5977083  40.9230137
  38.4960008  15.3267694  47.7179623  38.4506536  16.2715232  47.5709391
  37.7012610  14.9825275  47.3103857  21.9218874   2.0013894  33.0244422
  21.1850929   1.4245418  32.8229213  21.5249729   2.7505857  33.4687352
   1.6732152   3.5495192  25.0162482   0.9908064   4.1302997  25.3527665
   1.7981569   2.9004318  25.7085681   9.0949970  31.4527893  19.5248437
   8.3957875  32.0910192  19.3834174   8.8890243  31.0554147  20.3709507
  66.7203814  27.4589324  32.5626922  67.6594955  27.4005580  32.3869419
  66.5143234  26.6517925  33.0341768  81.5002960  27.5736785  45.3342628
  81.6250977  28.5223842  45.3590631  80.6552133  27.4320412  45.7608843
  67.3265308  32.3774695  65.2143240  67.6906389  32.8370261  65.9709406
  66.6474885  31.8116689  65.5817556  39.2631340  10.3418386  34.5914245
  38.3135796  10.4007542  34.4860291  39.4076180  10.4588759  35.5303907
   9.2475861  30.1434183  27.6128459   9.1896027  30.7078218  28.3837652
   9.9977374  29.5752048  27.7878809  30.7965136  18.8378525  49.4086504
  31.1871529  18.0129361  49.6969986  29.8803043  18.7763476  49.6788549
  85.0867666  14.9330485  48.2162905  84.1357711  15.0302291  48.2652330
  85.3419880  15.4546773  47.4553728  23.0689859  50.9486246  43.7231779
  22.7751088  50.7920837  42.8257561  23.7827754  50.3243876  43.8537931
   5.8536553  14.9128830  40.7634354   5.6920093  14.0227222  41.0760307
   4.9962264  15.3372085  40.7949686  34.5498300   8.4451252  47.3639631
  34.8561072   9.0343899  46.6746187  35.2992797   7.8776997  47.5444794
  33.0070567  34.1188812  25.9858823  32.3222804  34.2459917  25.3292584
  33.8216782  34.1080117  25.4833817  24.2304778   9.6632427  57.1170855
  24.6653342   9.7065258  57.9687071  24.2062879   8.7295413  56.9076872
   0.2680929  34.5390487  52.5433064   0.9209253  35.2298379  52.4299383
  -0.2942127  34.8546696  53.2507133  78.0688607  71.9499258   0.2264928
  78.5709416  71.3315467  -0.3043128  78.6363207  72.7171330   0.3013801
   3.0736437  46.0666275  54.3830729   3.9987192  45.8663845  54.2403507
   2.6385963  45.2141857  54.3655872  78.7135685  26.1976171   6.6249865
  78.6237949  25.2447200   6.6125172  77.8293604  26.5237069   6.4574313
  72.5227148  54.1586862  42.0057297  71.5996416  54.0012918  42.2042084
  72.9349787  53.2985435  42.0858717  46.4774752  30.3479743  11.4497340
  46.8936777  29.6335077  11.9319630  46.2686777  29.9704933  10.5952501
  22.1675587  52.6993704  30.4811358  21.6640115  52.6939726  29.6671081
  21.9575691  51.8637991  30.8982110  80.9230490  79.7634382  27.0635581
  81.1551018  79.5093920  26.1703372  81.0860844  78.9780953  27.5859451
  22.2078909  62.8242121  33.5761905  22.8191198  63.0944262  34.2614746
  22.1619953  61.8716357  33.6581922  63.6308342  11.2979662  58.2406521
  63.9655811  11.7187250  57.4487352  63.1035596  11.9739342  58.6664248
  47.4611568   9.5376551  42.4686098  47.7698374  10.3179145  42.9292011
  47.5228834   8.8364905  43.1172943  12.9163265  73.2683325  15.9126139
  13.1754315  73.0614901  16.8105626  11.9614053  73.2025146  15.9176815
  44.7863722  11.8151581  35.5110049  45.3409529  12.0868325  36.2423515
  43.8962173  12.0220733  35.7956719  70.5867802  59.9818055  30.2480792
  70.8167158  59.1037051  30.5518913  69.9428021  60.2941636  30.8836555
  76.9435329  44.8251949  36.7001915  77.4025340  44.1378079  37.1829438
  77.3385854  44.8102866  35.8284450  39.7202849  32.4631548  45.2777576
  39.0303111  32.3522353  44.6236420  40.4459429  32.8595924  44.7955847
  50.3289067  71.4971928  23.7356757  49.5691048  71.7860178  24.2411613
  50.1486217  70.5785708  23.5360240  48.6115646  28.0197287  65.7081032
  48.7748384  28.9625669  65.7331276  48.2829332  27.8102708  66.5823793
  83.7563753  45.7047415  33.1540251  83.9380115  46.1660385  32.3352194
  84.6169887  45.5775499  33.5532737  43.2233667  18.1773520  13.7911630
  43.6594963  18.6633718  13.0912995  42.3149824  18.4776461  13.7612116
  24.1696477  47.9154587  16.9478774  24.4910622  47.1673012  16.4446974
  23.9038825  48.5532475  16.2854385  16.5231938  70.1720248  53.3116484
  16.6625495  70.3849343  52.3888922  15.9972997  70.8976082  53.6480951
  80.1829690   4.0804145  55.8358288  80.3336069   3.2515621  55.3813553
  79.3438405   4.3909743  55.4957581  74.4884759  21.7094231  29.1357136
  73.8489705  21.1132503  29.5253825  74.9940485  21.1601019  28.5366511
  75.9226786  30.6837372   0.7053947  75.6203400  31.1048875   1.5100431
  76.8219649  30.9930174   0.5964994  34.7703862  45.3609180  55.9183455
  35.0561738  46.0701275  55.3425169  35.4507113  44.6931744  55.8317184
  59.8353481  22.3093629  27.7422595  60.5039263  22.0960641  28.3932114
  59.9634933  23.2409930  27.5637221  26.5064597  55.5923939  69.2730904
  26.6136575  55.4906034  70.2188063  27.1869421  56.2164783  69.0207100
  42.2069693  64.6796513  29.8104763  42.7270365  64.0977097  30.3646469
  42.2068167  64.2560625  28.9521027   3.3641094  16.0654163  22.5636029
   2.7642179  15.9674442  23.3030367   2.8953746  15.6817472  21.8224430
  28.5604739  21.5244794  43.4469986  28.7097454  22.2808862  44.0142775
  27.7853322  21.0992479  43.8138294   9.7423959  40.9839487  16.5341449
   9.4763935  41.7671108  17.0159411  10.5550241  41.2367535  16.0960162
   2.2813638  34.9521232  38.7822104   1.4060350  35.2814293  38.5782743
   2.1621977  34.0091085  38.8951397  46.9620489  66.8984131   3.6092710
  46.3252388  67.4696712   4.0386485  47.8112673  67.2042851   3.9278602
  23.6719227  25.2262497  33.9217281  23.7857962  25.7595491  34.7084022
  24.3774080  25.5061054  33.3384585  53.8258754  55.9537379   5.2082204
  53.5797464  55.7995133   4.2961549  53.0289232  56.2905268   5.6176996
  14.0810752  65.9385443  33.9464188  14.3497014  66.7165279  33.4577298
  14.4156671  65.2046013  33.4310484  19.2030144  47.4031019  33.7710762
  18.2859814  47.1660995  33.6328220  19.5483255  46.7077208  34.3309307
  66.9440085  25.1037288  53.2264423  66.4031261  25.1840639  54.0120792
  67.1627694  26.0058784  52.9929829  68.8026291  55.1190376  12.0465398
  68.6562973  55.6310606  12.8419340  69.3143231  55.6969118  11.4804447
  40.2821039  78.8701705   3.5312080  40.4747747  79.3485097   4.3376207
  39.3973850  78.5285834   3.6609077  77.1099246  39.2871428  59.8009443
  77.5298488  38.5218453  60.1936483  76.3350695  38.9362741  59.3619394
  13.4293902  34.3763280  30.0414109  12.7647257  33.7478375  29.7595406
  13.6231792  34.8883200  29.2562079  24.8013163  28.0102158  29.5597863
  25.6033182  28.5068393  29.3973398  25.0327420  27.1057510  29.3485594
   1.9116470  43.8442755  47.3405743   2.5449336  44.3176889  46.8010759
   1.0640118  44.2163324  47.0970201   4.0384141  27.3655057  54.4158030
   4.5606509  26.6852140  54.8408890   3.9698601  28.0595541  55.0714159
  74.1728777  28.6978126  42.4572086  73.4735066  29.3464708  42.5369263
  73.9427978  28.1920981  41.6777563  81.0112590  10.7410371  35.6811738
  80.3543261  10.8670127  34.9964857  80.7552502  11.3501918  36.3737226
  35.7218695  17.2867346  39.5789552  36.6788888  17.2922063  39.5611930
  35.4955387  16.4808524  40.0432396  31.0969912  79.5659665   6.0573959
  30.2962415  80.0018052   5.7657194  30.8153996  78.6831383   6.2973022
  82.6578277  14.5484257  28.5390568  81.8860728  14.4702959  29.0998793
  82.7825211  13.6701322  28.1794977  59.2260742  23.7453008  42.2288942
  58.8099098  22.9191113  42.4747515  59.2519379  24.2514110  43.0409336
  12.8089082   2.9746354  24.6091604  13.0268216   3.4554163  23.8106656
  13.3125031   3.4109086  25.2963948  37.8043580  34.8087168  32.2366118
  37.1192980  35.4728770  32.1603799  37.4986434  34.2281914  32.9335785
  15.3042793  38.1081033  48.2458687  15.3731167  37.2523904  48.6692476
  14.4174421  38.4053469  48.4493351  28.7430048  27.5423789  67.0887566
  29.5415068  27.0922923  66.8129873  28.5739517  28.1779528  66.3932705
  16.4751148   9.6143228  43.0759287  17.2300112   9.1253018  42.7484846
  16.6659665  10.5258536  42.8547525   1.7111327   5.9949803  16.4446509
   1.9175535   5.9026343  17.3747551   0.8674070   6.4468127  16.4302731
   2.2861464  29.2304206   9.9066043   2.9567084  28.5655761   9.7498900
   2.7787349  30.0163317  10.1431108  19.3915653  49.1525793  21.8320298
  18.4348011  49.1366482  21.8079209  19.6148622  48.8183069  22.7007270
  19.8869812  30.6979704  42.7387142  20.1806164  31.5817881  42.5176382
  20.2955914  30.5144167  43.5846329  10.2640224  11.5645814  35.0495839
   9.8857594  10.6873429  35.1095963   9.6285123  12.1299839  35.4885340
   4.0787262  19.5894134  18.7711859   3.5598642  19.4742835  19.5672762
   4.9284685  19.9015880  19.0821803  14.8927140  24.3810368  47.5704956
  15.3663886  25.2107406  47.6292849  15.5673826  23.7341881  47.3640013
  55.2811241  23.9492989  24.5347381  54.3803692  24.0215278  24.2190623
  55.8144617  24.2919946  23.8175607  22.8348565  69.1881418  18.8077176
  23.1236434  68.2967377  18.6121786  22.8509831  69.6360826  17.9619527
   0.3905619  77.3720963  44.3106556   0.9532751  77.1619720  43.5653830
   0.8289469  76.9725422  45.0619268  72.8532439  15.8897603  13.9135110
  73.6913997  15.5471194  13.6031473  72.7315336  16.7037749  13.4248412
  56.4515972  65.4187870  27.1635532  56.9551277  64.7860479  26.6513658
  57.0894575  66.0880470  27.4114633  25.0139189  36.3095808  51.7743683
  24.1952634  36.8019748  51.8342638  25.2877617  36.1886716  52.6835537
  22.0516825   3.7712356  53.0789661  22.0383358   4.7085294  52.8852272
  21.1400938   3.4944552  52.9860687  19.0175295  37.9797697  48.3944464
  19.9263692  37.7586246  48.1911325  18.7924576  38.6675286  47.7678967
  33.2393956  49.1993332   9.8997962  33.7396264  48.8354969  10.6302905
  33.5271811  48.6959934   9.1381806  65.2505855   4.8189348   7.5240325
  64.7232036   4.0265936   7.4225711  65.3861652   5.1325363   6.6298818
  76.2252367  55.3130436  35.8348393  75.6923360  55.4948092  35.0607538
  76.4145404  54.3763113  35.7807255  20.0484419  26.7945504  60.7887840
  19.4487441  27.5349307  60.8806229  20.9036803  27.1965265  60.6364298
  27.1897840  26.5088820  49.9207926  26.3073635  26.3931823  50.2731895
  27.3770404  27.4393821  50.0446272  78.6024624  17.9514813  15.0284505
  78.8910460  17.3420429  15.7078147  77.8744441  18.4278464  15.4275715
  61.7137949  13.3396095   3.0563592  61.9257829  12.4875301   3.4374809
  61.6953046  13.9380974   3.8031482   9.3582791  35.1907873  16.9044602
  10.0291336  35.6805491  16.4287293   9.1947144  35.7109165  17.6911902
  35.1479459  32.2737694  57.8348207  34.6878719  32.6138663  57.0674229
  36.0445762  32.1298194  57.5322247   9.2042053  24.3236089  20.3680968
   9.4285512  23.7022376  19.6754205   8.9589006  23.7741566  21.1125159
  28.0983877  19.3488562  66.1049747  28.8604975  19.1382360  66.6444731
  27.7497673  18.4976339  65.8401775  31.5125036  55.6051922  32.3274255
  32.0220304  54.8542261  32.6318359  30.9742713  55.8503723  33.0800366
  23.9134979  23.2236457  43.9419794  24.1778517  24.0565825  44.3325758
  24.6587873  22.9663873  43.3992147  23.4032798  34.3837261  39.8671818
  23.0469322  34.1888142  40.7339334  22.9790616  35.2031302  39.6125317
  21.4149022  25.3392220  19.4388258  22.0852041  24.8364305  18.9760864
  20.6736279  25.3638530  18.8337314   2.2654276  45.0847149   6.9297737
   2.3090580  44.5257998   6.1539245   1.3335438  45.1233721   7.1450174
  48.0659914  64.7675753  28.0508733  48.6857843  64.2424393  28.5571575
  48.4665537  64.8418236  27.1846914  17.4069929  35.1554847  28.4091854
  16.8817079  35.9280014  28.2005596  17.1975362  34.9631166  29.3231630
   9.0187263  15.7487166  30.3014994   9.8501712  15.2749467  30.3232694
   9.2693973  16.6725099  30.3008556  11.3923752  34.8525071  25.7978678
  11.2089801  35.3665662  25.0115228  12.3423350  34.7351837  25.7911682
   8.4750789  33.3491325  13.1005538   8.9631569  32.9849720  12.3620415
   7.5898349  33.4807158  12.7610528  79.9120754   3.4832725  22.6743650
  79.7082680   4.3722725  22.3838949  80.8592749   3.4876052  22.8122997
  45.2167340  73.9661080  67.9513540  45.5115434  73.1925684  67.4707729
  44.9280425  73.6262494  68.7983400  76.9892800   9.0852994  42.1663713
  76.1456263   9.3794292  42.5098372  76.9286054   9.2337638  41.2227058
  25.2580237  19.3575442  47.0667458  24.3867135  19.5474422  46.7189121
  25.5304050  20.1725173  47.4884796  67.4179478  70.8192352  56.7503977
  68.1750841  70.2344404  56.7818832  66.6752715  70.2404521  56.5781403
  33.4414101  27.8487849  23.0411434  33.8590121  27.4343991  22.2860789
  33.7149167  27.3164678  23.7881804   8.4524155  11.0113442  16.3181865
   7.9923195  10.2794135  15.9073079   8.9935756  10.6045353  16.9948590
   0.9074562  13.7342441  30.9727597   1.1527801  14.6126580  30.6821823
   0.3140105  13.8825369  31.7090082  13.3553898  57.7124119  63.6315155
  14.2610931  57.4164867  63.7229633  13.4286356  58.6225748  63.3443403
  20.3530502  48.1177187  37.9389834  19.9923599  47.2697306  37.6800418
  19.6134543  48.5835075  38.3292031   5.5105424  11.0633826  18.6365294
   5.8546543  10.3107405  18.1555426   6.1793333  11.2532997  19.2944682
  45.2552223  32.2623730  49.9746180  46.1496878  32.0476317  49.7099543
  44.7921181  31.4248824  49.9552488  24.0241922  71.5257833  38.2703614
  23.6563076  72.3499880  37.9516435  23.5383381  71.3416324  39.0742683
  15.9008682   9.8954576  64.9381018  16.4002883   9.7778165  65.7461691
  15.8346009   9.0155143  64.5672369  16.0295284  29.8601890  12.3821723
  15.5123734  29.0764046  12.5678205  16.9245934  29.5373917  12.2777987
  48.7046010  78.0364347  38.4909296  49.5257838  78.0757816  38.9811778
  48.2729436  77.2438834  38.8099384  47.9808209   4.5199579   0.4421472
  48.3831642   4.3082231  -0.4001809  48.5740546   5.1589865   0.8370542
  21.8292618  40.0120306  15.6571031  21.1060524  39.5769501  15.2055466
  21.6381454  39.8913050  16.5872276  35.2441645  28.5876894  47.7252626
  34.5560050  28.1286788  48.2068968  34.8406267  28.8124537  46.8868876
  11.9910932  35.1060224  21.3033700  11.4205134  34.8004222  20.5981898
  12.6698995  34.4344711  21.3702655  33.4935344   7.9952617  67.7919885
  33.9054597   8.6396643  68.3675670  33.8262142   8.2060667  66.9195691
  82.2126654  42.2438288  41.2528610  82.1930155  43.0075741  40.6762028
  83.0318712  41.7996216  41.0341883  11.9001400   7.2512132  25.9863138
  12.3259258   7.8943735  26.5531325  12.6235723   6.7871207  25.5650139
  12.2805655  63.1904411  60.7845688  12.2625434  63.2806206  61.7373371
  12.4579823  62.2617626  60.6351948  18.1955719  32.4285960  25.5669451
  17.5647175  33.0660605  25.9014463  18.6914349  32.1547794  26.3385510
  16.1919641  55.9518242  33.4915280  15.7449543  56.3473988  34.2398190
  16.4310241  56.6936255  32.9358172  13.5556233  12.0169997  40.6942415
  14.2358053  12.6901019  40.6714582  13.9908111  11.2491739  41.0647631
  11.0201240  30.9267664  21.3388085  10.4878521  31.2485743  22.0663810
  10.5557859  31.2193727  20.5545878   6.1769271  39.6467447  26.7606378
   5.4580384  39.7897530  27.3762512   6.2221211  38.6957216  26.6619277
   4.7829738  25.5456686  24.9425173   4.4586194  26.3707709  24.5816398
   5.6545520  25.7568097  25.2771854  18.5299897  15.5603945  41.3189554
  17.6207340  15.8584940  41.3439083  18.8702786  15.7561970  42.1919394
  56.3596946  27.6646399  20.2258992  55.6712681  27.2008467  19.7492480
  55.8920985  28.3169174  20.7475495   2.6690599  30.5404210  29.2918015
   2.7156365  29.5864487  29.2285657   1.9071192  30.7785535  28.7636232
  67.6477916  75.0564055  59.1645288  67.3944588  74.4826947  58.4414053
  68.0297298  75.8239488  58.7388134   3.8054147  58.1406069  36.8319821
   2.9415381  58.0908728  36.4227438   3.6534142  57.8907919  37.7434206
  20.1946688  24.8811126  68.2598829  20.3882790  25.8167863  68.2027721
  21.0428476  24.4708991  68.4288549  24.2745829  53.7792969  34.3332529
  23.8959384  52.9157257  34.1686225  23.8738394  54.3461275  33.6742091
  71.5371937  62.3373842  14.4844377  72.0912737  62.4380350  15.2584505
  71.1308676  63.1961298  14.3674386  22.1792030  25.1639271  27.4358845
  21.7110705  24.6478009  26.7796087  21.5743303  25.8709121  27.6606798
   0.3330852  65.5621815  67.5781059  -0.5242062  65.5207539  67.1543503
   0.9382822  65.2017260  66.9299984  23.0413985  74.6950006  19.3379080
  22.1178603  74.8135090  19.1159487  23.1339598  73.7533855  19.4829166
  15.6691968  61.8751001  12.2810555  16.1827266  62.2703838  11.5765917
  16.3224697  61.5098619  12.8777707  13.2896602  50.7951212  22.6650572
  12.9712856  49.8954916  22.7394795  12.5435257  51.3355064  22.9248619
  28.3883381  71.5798092  47.8282356  27.5256729  71.4542150  48.2235384
  28.2965708  72.3727131  47.2999287  60.6595458  11.4215275  65.0465993
  60.3036178  10.7276007  65.6015900  61.5946699  11.4353605  65.2505202
   8.1557995  54.6074295  67.2716808   8.5722864  55.4142332  66.9686317
   8.7479675  54.2700386  67.9437923  47.7531195  54.3738937  21.0653901
  48.4587765  54.4821119  21.7030191  48.1755733  53.9713383  20.3066325
  23.2754707  66.7386341  33.9218593  22.6521015  67.3396730  33.5139441
  23.9943194  67.2999430  34.2124128  56.4821887  12.2118706  30.7067203
  57.1193108  12.9216522  30.7874679  55.8963292  12.4946302  30.0045490
  68.8873040   0.3645792   5.4731911  69.4294487   0.9504118   4.9448800
  68.7705456   0.8288183   6.3020998  35.6254387  36.4647675  24.6896815
  35.0107503  36.7467523  25.3670859  35.3774738  35.5592513  24.5031738
  23.3984852  47.1899319  21.7906594  22.6840496  47.1723127  21.1538696
  23.5643864  46.2685490  21.9900537   4.5764568  61.2444019  46.2282467
   4.9219406  61.4546824  45.3606892   4.3196896  62.0903206  46.5952921
  81.1241862  46.9063139  28.9485788  81.1407980  47.5496531  28.2400084
  81.3737795  47.4022818  29.7282910  37.0905750   6.5681829  45.1060104
  36.1809402   6.4278116  44.8431492  37.0563768   6.6362848  46.0601711
  82.2781155  64.2283010  63.1060314  81.8117455  64.8711538  63.6403275
  82.9026967  63.8241673  63.7083626  28.1323504  47.1506071  47.4391890
  27.8719020  47.6485872  48.2140541  28.5886645  47.7864361  46.8880701
  16.2204254  61.5137577  29.9610233  16.7373419  61.0196352  30.5973196
  15.5009437  61.8837738  30.4725552  61.6940355  54.7781610  19.8111773
  62.0254946  55.4171848  19.1802871  62.2153997  53.9914274  19.6516097
  27.2800636  50.9661627  36.4109707  26.3277245  50.9296751  36.3217998
  27.4252033  51.2790823  37.3038578  26.1602378   9.3337798  47.6005316
  25.9141278  10.2169895  47.8754902  27.0971131   9.3934560  47.4136209
  22.9819417  38.6724091  34.7116566  23.6243868  38.3978248  34.0573645
  22.7977538  39.5869589  34.4973969  43.1348896  34.0546608  47.1232796
  43.4684277  34.6345139  47.8079367  42.6920748  33.3520603  47.5992012
   1.0514428  66.9356728  27.5048232   0.4016136  66.7821646  26.8189716
   1.1574078  67.8867579  27.5258231  80.0322825  71.5542984  41.4220953
  79.7454977  71.8555117  42.2842169  79.2222750  71.4521503  40.9224081
  79.7160649   4.9501783  49.6245575  79.2798418   5.7528538  49.3388081
  80.6125966   5.2218038  49.8212337  28.6148882  43.5530233  37.6336741
  28.0154800  42.8136063  37.7347040  28.3170152  44.1928959  38.2802510
   5.4740441  19.1559255  29.7216916   5.4966486  18.2934594  29.3071151
   5.7652748  19.7583818  29.0372491  34.5525127   6.2682905  37.8563190
  34.4852154   5.6768217  38.6058974  35.3150641   5.9537305  37.3707247
  79.1272426  30.1609755  38.5594487  78.3904725  30.5644369  38.1005144
  79.4789064  30.8608246  39.1096973  18.4385216  48.7548447  28.2717371
  18.7022614  49.6701241  28.3662796  17.4963260  48.7928486  28.1072521
  36.1652493  17.8726292  47.3852491  35.7868075  17.0730305  47.0196581
  35.7051277  18.5821533  46.9368172   8.2554692  61.8380737  46.0717869
   8.0107057  61.3240004  46.8412399   9.0862131  61.4589500  45.7848024
  10.7571006  16.3760400  40.0681639  11.2019420  16.4616418  39.2249465
  10.1467431  15.6491661  39.9442673  24.2896056  22.7441645   6.0347295
  23.9630079  22.6765347   6.9319433  24.5080256  23.6700368   5.9285027
  35.7993102  33.2081938  17.6039410  36.4656782  33.7000442  18.0838025
  35.0641823  33.8160062  17.5240254  31.0202384  21.8074703  35.2195001
  30.0978756  21.9181442  34.9887872  31.2338781  20.9194565  34.9331117
  77.0754284  60.0856638  37.0325017  77.1411157  59.1313744  37.0677900
  77.8260869  60.3962946  37.5387120  10.4793942  36.2627506  31.4177561
  10.3531647  35.3869534  31.7828250   9.8380339  36.3217974  30.7096577
   6.9785070  42.5519562  33.3483815   7.7126622  42.4224234  33.9487720
   7.3625988  42.4582529  32.4766445  13.2195652  47.6589394  57.3370123
  12.9288375  47.0661497  56.6439724  12.5886571  47.5276375  58.0447912
  20.2902341  28.1294155  24.2590642  20.3325009  29.0035391  24.6468186
  19.4433856  27.7832270  24.5405459  76.7852110  44.5708418  60.0852823
  76.7258030  44.1688299  59.2186260  76.4700127  45.4654312  59.9564505
  42.1144581  42.7288055   7.6518708  41.5785599  43.3791876   7.1979451
  41.6082478  41.9185066   7.5935668  52.8157245  31.5304460  65.1984787
  52.7424251  31.4802446  64.2454100  51.9260179  31.3752832  65.5156231
   2.8003895  33.4773493  22.4918032   2.9243028  34.3431115  22.1027875
   2.8348345  33.6317968  23.4358335  47.4257421  64.0237951  33.6899543
  47.7849865  63.1522799  33.8561773  47.8663254  64.5894241  34.3241358
  21.1104274  18.6231983  39.8090625  20.1789927  18.8340461  39.8738956
  21.2103891  18.2462585  38.9349031   2.4208217   5.9678354  28.6974740
   1.5542226   6.2676420  28.4229660   2.2491841   5.3822126  29.4349122
  46.6967964  52.5920820  47.8957319  47.5214386  52.8768063  48.2895994
  46.0304832  53.1364012  48.3152294  38.3361745  16.4039457  25.0016832
  38.7489462  15.9846854  25.7567167  38.8333368  16.0843158  24.2487574
   8.9595723  54.8345709  45.7656908   8.9450508  54.6958256  44.8187113
   9.4773740  55.6310081  45.8831596  38.1131029  62.8703260  36.9610691
  38.9044261  62.9435110  36.4275122  37.8397465  63.7755728  37.1095061
  17.7217257  47.7458048  47.5860310  17.1005499  47.9885435  46.8994093
  18.5036659  48.2640600  47.3957396  78.7118027  10.5020851  24.3128871
  78.1915186   9.9484772  24.8951721  78.1653259  11.2738508  24.1646289
  47.7055645  68.5098219  43.1288481  48.5222721  68.0189514  43.2197618
  47.8984022  69.3677521  43.5069990  19.3381703  35.8555293  60.3221989
  20.0019288  35.5109453  59.7247696  19.7732365  36.5802765  60.7712984
  50.6946039  52.6367140  44.0255070  51.3760090  52.9014158  44.6434498
  50.5166483  53.4252834  43.5129404  81.7465067  27.3217869  33.0280375
  81.8074667  28.0580616  32.4194217  80.8250320  27.3001003  33.2861972
  30.0720549  57.9949903  31.1887431  30.7392502  57.3389626  31.3905239
  30.1630855  58.6499166  31.8808532   4.3562219  24.3706465  52.1089935
   4.8170745  24.4498801  52.9441977   5.0430363  24.4545150  51.4475679
  41.8522167  55.1418829  32.2922134  42.3414087  54.6519375  32.9531789
  42.4469662  55.1943302  31.5440464  37.2117662  46.3440323  33.7068200
  37.7796006  45.6766033  33.3216810  37.0606470  46.0421133  34.6024966
  18.8625312  29.7446084  22.2081685  17.9457080  29.4698429  22.2212481
  19.3315732  29.0347981  22.6468062  46.0694122  78.0637026  45.1654100
  46.3930178  77.4829578  44.4767523  46.7887783  78.1127882  45.7949591
  39.6784425  38.5752487  24.6905017  39.0587831  39.2224836  24.3538404
  40.3050566  38.4502244  23.9777899   0.5912834  10.2840424   6.6787666
   1.3659969   9.9369651   7.1210200  -0.0991051  10.2470899   7.3407561
  71.4617974  20.8346176  36.8421602  71.0292381  21.6328001  36.5387964
  71.2959999  20.8157706  37.7847052  32.2817516  44.9665785  60.7444572
  32.9793119  44.7799063  60.1161337  32.6623464  45.6120110  61.3401079
  13.1826282  34.5764804  58.1228590  13.1590259  34.2754841  59.0311956
  13.5878658  33.8549042  57.6418781  23.2464374  72.5200669   3.3694065
  23.8099207  72.1162556   2.7093634  22.4743904  71.9552354   3.4032109
  84.0089131  32.4202919  48.4656811  84.6826857  31.8492341  48.8346720
  83.1854798  31.9668555  48.6461926   3.2473719  44.3038177  44.9075699
   3.2460377  43.3514023  44.8119926   4.1738325  44.5374537  44.9651480
  18.0938447  41.1924314  50.1363707  17.3849392  41.8299580  50.0512743
  18.0854344  40.7129002  49.3079901  19.8927486  43.1138229  42.2939301
  19.3259323  42.6467514  42.9077673  19.6995866  42.7205992  41.4428711
  84.6771876  29.5013642  19.9305761  84.1507381  28.7164354  19.7790205
  84.5444481  30.0338912  19.1463399  64.9552948  10.4118152  60.4166544
  64.3342365   9.9182363  60.9522844  64.4804330  10.5937763  59.6057118
  13.4662294  57.2208405  28.4742856  13.8596618  57.9470491  27.9904819
  13.6988890  57.3876047  29.3876791   7.2841293  74.7017384  62.7406740
   6.3917714  74.8348761  62.4209785   7.1746117  74.4427586  63.6556435
  12.0176637  63.9162636  32.0746732  11.6271222  63.6858845  32.9176641
  11.4944208  64.6542883  31.7619967  63.3546335  49.3882465  43.7441683
  62.4975830  49.2698383  44.1536522  63.8030559  50.0205755  44.3056965
  14.3293786  54.9765205  26.6928124  13.4706402  54.6173000  26.4697456
  14.1620648  55.5505419  27.4402976  32.4232268  23.7360501  50.7394028
  32.8186488  22.8969049  50.5033779  33.0063581  24.3916512  50.3568125
  11.6861856  57.3859024  43.6274481  11.9775343  56.4854813  43.4839582
  12.3233044  57.9219198  43.1552267  83.0998857  54.5030165  26.7694259
  83.8111857  54.7398949  26.1743021  82.3045903  54.7796440  26.3142180
  62.4556147  61.0976104   9.1717672  61.9186818  61.3417701   9.9256372
  63.0366455  61.8465976   9.0389108  71.5159768  26.8602276  28.4388447
  72.0312423  27.6663160  28.4697604  71.7674726  26.3846898  29.2305803
  32.5074244  71.7700958  26.6774344  32.4888349  71.0067701  27.2546887
  32.3294306  71.4158964  25.8061743  25.9597516  74.3386555  36.3119292
  26.5284586  75.0415468  35.9976864  25.0803566  74.7162771  36.2946439
  54.9648046  79.9610519  29.0796328  54.8624277  79.1352463  29.5526981
  54.0762806  80.1951694  28.8114071  45.4760512  49.1154432  69.0390161
  46.2403854  49.0223586  68.4703683  45.8426829  49.2597842  69.9113567
   9.7693068  43.5002470  31.9399595   9.9980474  42.8832483  31.2448192
  10.5429459  43.5241604  32.5031137  52.1068581  76.1905938  62.1261013
  52.2048243  75.2542311  62.2989053  52.7474626  76.3757259  61.4393831
  77.7882910  41.5478754  48.3253336  77.5096560  42.3656702  48.7374067
  77.0663488  40.9403658  48.4864664  10.5679464  44.1491699  41.2046719
   9.7454655  43.9912462  40.7411861  10.6070781  45.1002026  41.3058329
  11.2775993  51.3118362  46.8312645  10.7258606  51.2137079  47.6072693
  10.6588817  51.4377737  46.1118460  68.6843294  35.7155704  25.2453446
  68.7615639  35.1637077  26.0236216  69.4782740  36.2502193  25.2510905
  71.0988195  78.6970974  64.7874641  71.6071100  78.2549782  65.4674673
  70.4905290  79.2574638  65.2693367  70.4683024  51.5445852  62.2242260
  70.8871537  51.9738245  62.9702473  70.3283805  50.6431389  62.5141382
  26.0194206  71.4393139  56.7561436  25.0903082  71.5971231  56.5885830
  26.4072418  72.3134661  56.7971992   6.1774818  16.9203609   6.4760303
   6.8633358  17.1242422   5.8402061   5.3830067  16.8283838   5.9501170
  79.7654808  68.2547331  50.3496504  79.5555180  69.0801048  50.7865763
  80.2739358  67.7643681  50.9955978  48.1367397   9.2591488  25.7187128
  48.5067463   8.9609653  26.5496230  47.9798794   8.4548485  25.2240133
   1.2998509  14.3645227  68.6369514   1.8785705  14.9523187  69.1225576
   1.3293180  14.6890330  67.7369213  27.2746706  11.0654604  22.8499126
  27.0449042  10.8724880  23.7588668  26.4331985  11.1953843  22.4125600
  58.0425644  60.0882483  15.6123114  57.7979326  60.0089073  14.6903074
  57.8902102  61.0096645  15.8220994  84.2730200  44.6109200  55.5966616
  84.3884436  45.4781961  55.9849167  83.3717066  44.6108055  55.2743769
  24.7965765  59.9104214  34.5072699  23.8960290  59.5883799  34.5464468
  24.9308944  60.1346970  33.5864592  57.5297128   4.8290529  48.6796474
  58.0652391   4.1394796  48.2873011  58.0877267   5.6065073  48.6592197
   2.5475013   9.8832238  39.3253064   3.3030668   9.7762024  39.9031448
   2.9141721  10.2355838  38.5143638  62.0891815  56.9564819  12.2873819
  62.6464182  57.0320368  11.5127778  62.5258356  57.4920940  12.9497159
  68.3090446   6.4346641   0.6013917  68.4423754   7.1506637   1.2225198
  67.4251375   6.5739435   0.2614736  36.6253244  31.7043867  26.3554955
  37.1953123  31.1403741  26.8782234  36.1851971  32.2612562  26.9976854
  65.8124489  35.3361869  47.4831200  66.6624624  35.0155616  47.7846289
  66.0248464  36.0586643  46.8922377  32.4102163  46.2658072   7.7276057
  32.2265577  45.6671143   7.0036811  31.9015789  47.0507526   7.5241822
  37.6856017  15.2843142  18.2875156  37.9903626  16.0090005  18.8335752
  37.9143119  15.5442059  17.3951149  77.8546977  77.4798679  57.2822523
  76.9038099  77.5357580  57.3766994  78.0596519  78.0785561  56.5640593
  51.0092670  48.2781267  56.2155247  51.2773019  49.1298914  56.5603256
  50.9062344  47.7272654  56.9915152   8.2204896  48.7518501  28.5705137
   7.5626248  48.3396578  29.1304636   8.6295629  49.4132614  29.1285682
  14.7765028  77.7023554  43.0350256  14.8935974  76.8222618  43.3927298
  15.6164634  78.1358957  43.1858206  76.5593231  39.2194033  12.3312938
  76.5151984  39.0531158  11.3896823  75.8939070  38.6433911  12.7076757
  85.3924996  18.7103701  49.8197412  84.5904831  18.3229399  49.4691706
  85.6086733  18.1681657  50.5783653  80.3219846  30.7213521  69.2742014
  80.9374282  30.8695006  68.5562086  80.5751959  31.3586116  69.9420452
  10.1058352  68.2376766  19.4576538   9.3396634  67.6790142  19.5884514
  10.6218612  67.7842808  18.7910342  39.6164512  62.3200468  19.5313072
  39.9094306  62.5969152  20.3994846  39.6761857  63.1106166  18.9949607
  29.9089885  69.2883062  48.1085539  29.3886495  70.0590372  47.8817177
  29.6080995  68.6098146  47.5041151  42.4231349   3.4600439  66.9324684
  41.8124627   3.1145944  66.2813330  43.0724775   3.9417066  66.4200306
  64.4486128  53.1767372  13.2139015  64.2518555  52.3384003  12.7959155
  64.9111210  53.6769132  12.5414848  75.0200687  19.1278452  12.3036289
  75.2287052  20.0617689  12.2814273  74.4535551  19.0271086  13.0685806
  27.2156072  18.1806970  35.0516891  26.9576001  17.7990854  34.2126203
  26.4949632  17.9662216  35.6440616  44.5298358  69.6572524  66.7139480
  45.3065904  70.1018339  67.0534048  43.7968894  70.0815254  67.1600569
  23.0805802  45.5283022  35.8834577  23.6394191  45.1697445  35.1939893
  23.5394979  45.3187609  36.6969180  76.0346399   9.7011226   0.9869670
  75.8192728   9.8639101   0.0686263  75.4478441  10.2776140   1.4764213
  23.7048483  27.4099708  19.7701049  23.0755734  27.1397090  20.4388380
  24.5587897  27.1873784  20.1408720  13.6235595  13.4825718   8.2745129
  14.0570354  14.3042195   8.5052180  14.3059444  12.8176713   8.3666438
  35.0520658  19.8335373  40.3018808  34.4411016  19.5598125  40.9860086
  35.1062274  19.0802765  39.7137499   6.7978781  33.7855792   5.1917768
   7.2141457  32.9346156   5.3289324   6.3798344  33.7122154   4.3338203
  28.4909701  54.2375898  30.2249980  27.6967859  53.9801073  29.7568035
  28.1774449  54.7824240  30.9468627  10.6543636  33.1930614  58.4437943
  11.1914253  33.2231832  57.6520300  11.0921776  33.7876081  59.0529442
   5.5956608   9.4426876  54.2902422   6.5091348   9.7058195  54.1781807
   5.1744735   9.6819854  53.4646702  24.1842151  50.8456039  36.0479569
  24.0456939  49.9020052  36.1296177  23.6311388  51.1060190  35.3113937
  24.4851232  30.5818224  12.0101237  25.0138879  30.0028181  11.4611292
  24.6451664  31.4575171  11.6583049  29.5239711  35.9400392   7.9936278
  29.9371457  35.1535535   7.6373124  29.0819263  36.3388753   7.2441232
  35.3396106  63.3697748  67.2824240  34.4382215  63.6556959  67.1341658
  35.8401775  63.7804794  66.5774536   8.5304052  45.4547644  52.8275251
   8.7384796  46.2934256  53.2393265   7.5742269  45.4124069  52.8401947
   7.5215220  57.5439978  53.0517054   6.7699277  57.1230841  53.4690380
   7.1411264  58.0717087  52.3495245  18.2047706   0.1835050  63.2568884
  18.8655334   0.8723821  63.1856489  17.4210410   0.6348600  63.5703754
  37.5865483  47.6101255   5.0180101  36.6541433  47.4621868   5.1760191
  37.6124406  48.1610250   4.2356604  70.0430476  18.4398355  45.1303864
  70.9316908  18.7665453  44.9896383  69.8541628  17.9163541  44.3515968
  15.7212186  57.3592901  64.8368883  16.5616417  57.7815056  65.0148106
  15.4273057  57.0415592  65.6906414  53.2063341  51.4265966  49.7802353
  54.0451956  51.0242367  49.5551777  53.4273577  52.3295259  50.0084829
  56.9026804  42.2884655  48.9462137  56.0499430  42.7135181  48.8545418
  56.7932606  41.6887426  49.6841764  32.8635311  62.7303886  31.5669870
  32.5872588  63.6366177  31.7035699  32.3424077  62.4308109  30.8220601
  15.0834565   1.5204897  47.4897814  15.8399110   1.3668623  48.0558300
  14.6405082   2.2734346  47.8810549  78.3572089  71.3492183  11.4042758
  78.8742529  71.1714701  12.1899604  78.6150633  70.6639175  10.7877445
  46.8726349  19.1986620  17.4896109  46.0582829  18.7390053  17.2852063
  47.1398449  19.5931911  16.6594446  44.7257042  56.5345716  61.2648010
  45.3436565  55.9725332  61.7322254  43.8750315  56.3301182  61.6531086
  76.5614830   6.6159334  43.4211683  75.6164776   6.7638483  43.3848000
  76.9373022   7.4909105  43.5181999  20.2813458  60.0373268  30.2871132
  21.2152028  60.2161741  30.1768422  19.9517143  59.9267530  29.3952918
  27.1517134  35.7497764  10.1432061  27.1212840  35.1484013   9.3991268
  27.1794653  35.1792502  10.9112942  18.5514283  58.0297089  36.7526817
  18.8963890  58.7508154  36.2261415  17.6189339  58.2251453  36.8448257
  34.4847250  25.2049518  24.3395901  35.4061675  24.9659538  24.4398618
  34.3582606  25.2798057  23.3937383  42.7553558  55.2983809  47.1857691
  43.1796551  55.9378481  46.6136837  42.2993279  54.7068691  46.5871143
  63.7979364  43.8008451  61.0680819  64.5675993  44.3696690  61.0509443
  63.1080627  44.3187523  60.6532574  44.5821285  60.4063797  64.8771954
  44.9252987  59.5240545  64.7358465  44.6570873  60.5440998  65.8214617
  56.5970898  79.9445295  65.2182055  56.1690474  80.2620602  64.4231081
  57.2485352  80.6150818  65.4236412  49.4773531  73.0038309  47.7799940
  48.9258385  72.6226759  48.4632063  48.9397955  73.6972618  47.3973513
  16.2182510  17.6151109  45.2877760  15.7385826  17.4707818  46.1034489
  16.4941704  16.7403281  45.0141764  25.7181001  16.6819334  47.8320742
  25.1689029  16.2280011  47.1928883  25.9952879  17.4814999  47.3847532
   0.7888986  58.5632658  47.2833872   1.0058474  59.1408730  48.0151892
   1.5368843  58.6364460  46.6905975  43.1603146  30.9926128  41.4100170
  42.3359632  30.9458995  41.8942690  42.8957987  31.1104250  40.4976654
  71.0139990  66.1080122  18.8193727  71.1263514  67.0507431  18.9412951
  71.1729908  65.9665728  17.8861260  25.3529000  59.4623137  28.2689548
  24.9275088  59.5535803  29.1215634  25.8799100  58.6671877  28.3481097
   7.2138643  72.1435642  61.6752195   6.3433319  72.3027325  61.3104343
   7.5966513  73.0156755  61.7707443  71.7341042  62.9936934  30.9546208
  72.2949791  62.8503275  31.7169213  72.3424768  63.2005262  30.2451563
  61.2613583  61.2631941  59.7205687  61.0593462  60.7862091  58.9156437
  61.8394947  60.6763649  60.2080345  29.6065688  66.6942549  52.6734257
  30.0529361  66.5437269  51.8401575  29.0186381  67.4296188  52.5007725
   1.5104598  76.6442108  66.9399261   2.0418313  77.2463846  67.4607563
   2.0113459  75.8285666  66.9317532  54.0571260  41.8105412  48.5404062
  53.5294342  42.1888065  47.8370667  54.1208839  42.5075293  49.1933775
  66.6571140  54.4996309  36.0147738  66.9243002  55.2414322  36.5575171
  65.7202196  54.4031143  36.1854959   3.2811850  74.6070194  17.3198068
   2.5801486  74.5376015  17.9678500   2.8388709  74.8832321  16.5171301
  84.9323164   1.0349359  68.2374287  84.6863114   1.5877142  67.4957085
  84.7933661   1.5889825  69.0055180  77.5050007   0.2843275  31.8198133
  77.5670658   0.7503690  32.6535916  78.4131848   0.0991621  31.5807462
   2.0223479   1.2260332  46.0730028   1.9351440   2.1401300  45.8027363
   1.1249929   0.8930864  46.0847378  80.2861682  65.4364538  64.5671225
  79.4883275  65.8751392  64.8624849  80.5537593  64.8987198  65.3124237
  46.0278130  76.5340757  55.3427219  46.2453175  76.5318537  54.4105625
  45.2967310  75.9210157  55.4195404  59.1886377  43.3894110  59.5692110
  59.7453642  42.9715729  60.2262545  58.8707399  42.6656866  59.0294027
  48.1142913   3.6929121  64.8891687  48.3464300   3.3192243  64.0390491
  47.6225184   2.9996195  65.3293180  73.9901053  10.6440439  21.3820529
  73.2983147  10.0922193  21.7469454  74.5717989  10.8193769  22.1217299
  58.4739017  75.6943989  60.0330210  59.2330599  75.5392599  59.4710207
  58.0456114  76.4604425  59.6509552  65.4747855  -0.1189337  55.1255226
  64.8566424  -0.3897009  55.8043528  65.9860884   0.5805483  55.5323887
  12.6707069  57.6757664  22.7645015  11.7255870  57.5749534  22.6512908
  13.0535261  57.1479362  22.0637416  13.7249244  24.3165394  69.1933240
  14.5594514  24.6295162  69.5423834  13.6525406  23.4180065  69.5152351
  24.6250272  22.4008274  61.5600634  24.1608953  23.1878901  61.8452740
  25.4402447  22.4085140  62.0616531  47.8793001  19.6405685  22.0674539
  48.6745071  19.2194521  21.7410517  48.1853008  20.2256846  22.7604437
  43.4572744   1.6044937  64.9038581  42.5828075   1.6990219  64.5262355
  43.8372993   2.4813972  64.8504574  81.8544579  77.8428364  53.0807209
  81.7484093  77.1591139  53.7421703  82.0838070  77.3691130  52.2812128
  45.0743771  47.7630520  60.2124119  45.8171463  47.8357029  59.6130371
  44.4579458  47.1863651  59.7611094   4.9446588   2.3769178  17.4350297
   4.5280891   2.9632940  18.0665886   4.6536784   2.6983537  16.5816581
  81.1801338  78.0727100  36.4675975  81.6997910  77.8105927  35.7076740
  80.5477810  78.7016058  36.1199450  77.6088697  65.1404905  62.6499224
  77.5957656  64.2030525  62.4568653  78.4554118  65.4412508  62.3195553
  33.0988644  69.0252189   7.3595428  33.8021641  68.5007576   7.7423477
  33.5497384  69.6635822   6.8068790  12.8457379  23.4493089  59.8848438
  13.5917926  22.8561974  59.7962236  12.8875685  24.0047741  59.1064215
  10.9783641  38.6934179   3.8947391  10.9588043  37.7807564   4.1826581
  10.4500834  39.1602081   4.5422410  17.4880743  74.0797043  53.7137794
  16.8010139  73.6202669  53.2309771  18.2539558  73.5102177  53.6406517
  52.0197582  60.7607746  37.0076466  52.0647335  60.1979589  37.7805948
  51.1043358  61.0372972  36.9656563  68.7436867  67.0941782  41.3459635
  68.8325167  68.0130196  41.0928392  69.0616512  66.6049004  40.5871916
  54.5220184  51.6014862  37.8307176  54.9618196  52.3093271  38.3016443
  54.5720720  50.8518791  38.4238577  49.6761084  65.8449221  49.3293667
  48.8232040  65.7424212  49.7516012  50.1487970  65.0412989  49.5461321
   6.4661205  57.1265697  44.2752266   5.6932461  57.0192909  44.8296547
   7.1824050  57.2832680  44.8905420  57.1788406  65.3583145  19.2472112
  56.2513733  65.3154278  19.4800138  57.4884653  64.4563484  19.3297958
  58.6159706  70.8166075  14.1773224  58.5042667  71.7665243  14.1397071
  57.7444506  70.4810953  14.3873775  21.4702945  10.4607381  30.4279709
  21.2576823  11.1834898  29.8375010  22.1021276   9.9316301  29.9410820
  74.9714886   0.5112161  52.6082611  75.8904110   0.4779043  52.8741693
  74.5973765   1.2226095  53.1280518  65.6173478   2.6272096  43.8533068
  65.2251326   2.9895773  43.0588961  66.5437614   2.8597059  43.7905645
  15.4413021  46.5147781  19.9361312  16.3617253  46.3033628  19.7800612
  15.3332543  47.3949003  19.5756543  17.5977508  23.3268684   4.4775867
  16.8005554  23.6778015   4.0806484  18.3058540  23.6558145   3.9238548
  57.1675014  65.2306366  50.2640629  56.9029284  65.9856606  49.7385454
  58.1220341  65.2895594  50.3044081  32.5921869  78.5712910  64.6603918
  33.3366609  78.9844942  64.2230701  31.9412637  78.4564734  63.9680433
  76.6895628  71.1406040  50.4207850  76.7272663  71.9070816  50.9929037
  76.6161394  70.3978109  51.0200310  28.2169771  56.4633179   9.1991752
  29.0226555  55.9880733   9.4022995  27.7191806  56.4512157  10.0166607
  21.7941356  55.1964140  68.6486340  22.0389080  56.0991955  68.8518524
  21.3897491  54.8710632  69.4529057   9.2604715  61.9244003  26.7353988
   9.1015983  62.8639841  26.6450000   9.1389436  61.7496347  27.6686311
  82.9927063  63.2367468  60.6173897  82.7961445  63.6769915  61.4442968
  82.1351624  63.0569506  60.2320099  21.4045715  56.1047268  47.6055145
  20.8563757  56.8402624  47.3322010  21.1795735  55.9672689  48.5256863
   3.2604795  10.8924474  60.7647657   3.4030776  10.8148851  59.8214340
   2.4352317  11.3709535  60.8437061  38.9068961  41.7635012  29.0798140
  39.5487523  41.5889645  29.7681379  38.8488173  40.9416723  28.5925150
  34.0271068  75.2096510  33.4070945  34.8122311  75.0831032  33.9398217
  33.4246230  75.6864929  33.9779425   8.4094100   3.6793985  35.2868104
   9.3019872   3.9842214  35.4499602   8.2552247   3.0178346  35.9611964
  22.6232616   1.3974613   4.2723655  22.5753299   0.6442255   4.8610687
  22.7144662   2.1514076   4.8550128  36.2218523  61.9264460  23.9590836
  35.9109139  62.4234343  23.2024145  35.5474281  62.0578337  24.6255088
  24.0779869  25.7082743   0.1668453  23.1911508  26.0580438   0.2529430
  24.0336601  24.8412031   0.5699014  33.3669806  73.5695314  63.0333281
  32.4225926  73.6324787  63.1761503  33.6989713  74.4436455  63.2381105
  40.6499100  68.5304928  57.5940895  40.8826399  69.4588375  57.6098108
  40.1553297  68.3938408  58.4021378  61.5349674  69.3026400  15.7183039
  61.7600727  70.0825739  15.2110982  62.3739767  68.9812088  16.0484183
  60.6726694  11.3732636  15.8235705  60.9205055  11.6049480  16.7186296
  61.3507557  10.7609046  15.5381811  81.2485409  53.3969307  48.0287552
  80.3500557  53.7172508  47.9490662  81.7289639  54.1262436  48.4205866
  36.5477657  65.6369781  16.0485351  37.4579811  65.4866505  15.7933080
  36.4928746  65.3070164  16.9453871  53.4453297  74.6193218  67.3591852
  53.5981035  75.4985237  67.0129347  52.5671387  74.3911076  67.0543385
   1.3819663  48.5458088  59.6292400   2.2856025  48.6631584  59.9223328
   1.1869853  47.6274490  59.8158693  84.4006621   0.3653898  33.1407452
  84.6679436   1.0622682  33.7400413  85.0317084   0.4120245  32.4225259
  79.1476952   6.1778345  22.3457599  79.4930970   6.3820734  23.2147908
  78.7752043   7.0033731  22.0359755  57.8307144  43.8072056   6.2369537
  58.4531426  44.4380230   6.5987491  57.0718560  44.3350548   5.9884738
  15.6348896  38.4163117  28.6810946  15.2676511  39.2685556  28.9157128
  16.2396383  38.6054063  27.9636312  27.0666933  56.1697483  31.5396214
  27.7996755  56.7761898  31.6454434  26.3367748  56.5954590  31.9893169
  55.1627814   3.0468645  53.0170441  55.3970610   3.3472337  52.1389055
  54.2096030   3.1274881  53.0514002  35.9291649  69.9935436  68.2379532
  35.4374552  69.8759460  67.4251652  36.3042593  70.8712578  68.1661034
  24.8659492  44.4276333  37.7063012  25.6953645  44.7590542  38.0504823
  24.4704390  43.9610577  38.4425831  56.6849089  54.8924685  25.3944898
  57.5869656  54.6258783  25.5718422  56.5694571  55.6975603  25.8991981
  85.0798244  42.6319738  64.3186033  84.4452329  42.5915380  65.0340680
  84.8800225  41.8679090  63.7777603  70.4963385  19.1240778  26.8928456
  69.6600376  19.3689336  27.2889328  71.1364972  19.7016134  27.3086476
  67.8934765  47.3467255  64.4729328  67.4374723  46.5758371  64.1352463
  67.2671223  47.7518988  65.0727224  13.5210693  27.5529861  27.6998878
  13.9886749  28.3599544  27.4845243  13.7869406  26.9334722  27.0203710
  58.5931826  70.0919056  25.7900667  57.8273773  70.4451466  25.3373051
  58.4210348  70.2576923  26.7169499  40.2090788  68.8927126  41.0191679
  39.4023967  68.7070751  40.5385113  40.4100609  69.8041677  40.8068180
  26.3144016  53.9139462  28.4987617  26.2351274  54.4967079  27.7435541
  26.4228654  53.0423117  28.1183481  68.4357260  13.4292072  10.9040546
  68.9302252  14.0753931  11.4081859  68.6699817  12.5884718  11.2971496
  21.2816000  60.4493237  34.3144488  21.6108680  59.9366570  35.0526810
  20.7446814  59.8335123  33.8157225  45.0051880  68.7319040  42.3339558
  45.0159359  69.6082592  42.7188110  45.9266043  68.4753084  42.2968102
  84.7297228  59.3582106  24.8334861  84.1147622  58.6246920  24.8319888
  85.5455721  58.9860916  25.1683736  37.3191071  47.8727484  31.2215805
  37.2889066  47.4223757  32.0656705  37.0261502  48.7633228  31.4146662
  18.7501109  58.2918930  51.3662815  18.4328604  58.7678003  52.1338034
  18.1366646  57.5640726  51.2653017  43.7719761   2.4872961  52.5970554
  44.7067701   2.3198213  52.7168226  43.3414554   1.8920030  53.2106590
   6.1165767   7.3556032  26.4559865   7.0162397   7.6779165  26.4016175
   5.6704145   7.7645769  25.7144213  30.8082438  72.0860100  58.0780888
  31.2428594  72.2073174  58.9222574  31.4234495  72.4443340  57.4382782
  58.3741557   7.2139349  59.4103765  57.4975668   7.2962370  59.7859383
  58.9646136   7.4449529  60.1274681  23.2335854  66.3777399  17.7100182
  23.5967278  66.6435003  16.8651938  23.8415122  65.7129335  18.0335712
  77.6544094  72.1005297  38.7582016  77.7136898  71.2114906  39.1079593
  78.5112286  72.2597885  38.3623052  58.3923721  75.4328632  52.2575235
  58.7897730  74.6749926  51.8286514  58.6056042  75.3228045  53.1841612
  34.3198299  50.8298922  39.0252304  34.5241785  50.8469963  39.9602056
  34.8638177  50.1249361  38.6740255  45.2739763  63.8065767  15.1817060
  45.7931900  64.5306253  14.8318517  44.5059347  63.7653875  14.6119285
  62.8995895  40.0541401   9.2309791  63.6001348  40.6702089   9.0166748
  62.6091051  40.3162098  10.1045763  49.3417358  68.5656118  61.4000416
  49.8780489  69.3291092  61.1863327  49.6011972  67.9036808  60.7591343
  78.1608892  52.7530384  58.0065870  78.1288660  51.8347645  57.7382994
  78.7982899  52.7719116  58.7204456  16.1899018  34.0698338  26.2784171
  16.6351259  34.1557026  27.1214080  16.1054885  34.9683905  25.9595108
  55.9000694  21.6679754  25.9317636  55.3255354  20.9402933  25.6938243
  55.5060731  22.4318590  25.5104804  13.2369332   7.2632589  58.1104422
  12.6522260   8.0097379  58.2412863  13.0188422   6.6606702  58.8214684
   3.2302726   9.2237469  65.6043864   3.0357493   8.7963672  64.7702754
   4.1853775   9.2065426  65.6653190  33.4144489   8.1037325  11.3304328
  32.5298397   8.4201521  11.5136623  33.8165323   8.8022846  10.8141040
  57.3352242  60.3014755  60.9236050  57.8621483  60.4522038  60.1388407
  57.9768181  60.1446152  61.6164112  16.1771575  24.2104715  30.4034900
  15.5124799  24.5503944  31.0025596  16.4850227  23.4051555  30.8193206
  48.8736868  58.8675165  54.0497923  48.1828308  59.2156792  53.4861183
  49.6434402  58.8187027  53.4829330  42.2601461  80.0948048  66.6349220
  42.1222353  81.0095406  66.8808317  42.5852251  79.6785688  67.4332333
  79.5880196  52.6610988   3.6457300  79.2879913  52.0595688   2.9642772
  80.0773499  52.1081299   4.2548370  70.3901911  55.7146072  53.2999134
  70.2001429  54.7803688  53.2144260  70.9841537  55.7706881  54.0484428
  38.2832503  70.8552933  44.1220236  38.3345318  71.7847633  44.3449354
  39.1958308  70.5736828  44.0578318  61.6997766  45.1739788  60.0405979
  60.9352207  44.6117020  60.1652288  61.8383789  45.1833344  59.0935326
  31.7875091   8.2045788   2.5460958  32.2066251   7.9382032   1.7277908
  32.5099889   8.2917970   3.1679057  73.6859560  38.0223823  16.6084969
  74.2467833  37.9438519  15.8367848  73.3970594  38.9349246  16.6027629
  47.6037550  70.4462147  49.9807167  47.5586128  70.1453209  50.8882761
  47.3724365  69.6761894  49.4613075  60.1971136  16.9043150  38.5023880
  60.0167118  17.7505293  38.9117932  59.5476424  16.3117780  38.8809586
   4.5821672   6.3740911  30.5994773   3.9137702   6.2206354  29.9316978
   4.0948539   6.7023649  31.3551235  73.0228662  65.5731630  50.7874441
  72.1543646  65.7432985  50.4227734  72.9070330  65.6619978  51.7334461
  76.9324337   9.1636076  34.1497040  76.5979277  10.0602998  34.1667604
  77.5409829   9.1490068  33.4109998   0.1256423  10.0825395  31.1154056
   0.6262212   9.9174490  31.9144082  -0.4890342  10.7754697  31.3567400
  42.3002911  79.8969889  36.3285279  41.8569136  80.6286049  35.8991265
  42.6653385  79.3823767  35.6087041  47.4243116  74.0422392  65.0210810
  47.1091986  74.6707678  65.6706095  48.3289337  74.3055820  64.8521519
  22.8676202  79.5609075  62.4102694  22.2271421  79.4053298  63.1043995
  22.3938682  80.0779039  61.7587275  18.0766118  77.3929882  60.2409506
  18.2211173  76.6310167  59.6799183  18.6610818  77.2557926  60.9864712
  48.3987379  62.0503330  54.6458054  47.5282431  62.3221397  54.9366617
  48.2468414  61.2389660  54.1612005  55.8098995   3.0804815  68.8392353
  56.6501199   3.5318842  68.7586546  55.9226571   2.2731580  68.3374882
  67.4070406  26.3844776  38.7363982  66.4957905  26.6742182  38.7799835
  67.6640129  26.2638950  39.6505427  36.8596578  77.4817657  27.6062846
  36.9259977  76.8003654  26.9373107  37.5952435  77.3120594  28.1947947
   4.2588716  11.7562856  30.4323506   4.4073825  12.4639978  29.8051953
   5.1259761  11.5690317  30.7919288   2.3640460  32.1094942  49.3485880
   2.9333228  32.3172665  48.6076498   2.2803706  32.9353166  49.8252916
  78.3565270  20.8106413  40.4766178  78.9110314  21.4271345  40.9548378
  78.7514626  20.7586946  39.6062374  74.2609869   2.1279802  39.4917679
  74.7215592   1.3813104  39.8746490  74.6925532   2.2691335  38.6491203
  63.5805225  63.2123518  48.2611513  63.2498455  62.4599838  47.7704048
  63.7225628  62.8771973  49.1464376  72.6311385  65.1715473   6.9492053
  72.1132933  64.3897084   6.7573833  72.4810301  65.7480292   6.1999606
  17.6321165  39.6811622  17.8298377  17.5513212  40.2478546  17.0626544
  17.5283758  38.7944359  17.4846076  77.4458933  47.4484015  26.5033031
  77.9060698  47.1584511  27.2909570  78.0076981  47.1680403  25.7808018
  40.5102110  69.4412184   4.8836568  40.6337738  68.4925175   4.8532084
  39.9140978  69.6285105   4.1585341  49.7645378  68.1016397  47.8237820
  50.1142883  67.3528099  48.3066511  48.8580036  68.1765652  48.1218052
  29.4819784  55.9261656  38.8295197  30.4264855  55.8215570  38.9443922
  29.3947768  56.6522980  38.2119775  58.1896019  64.9505949  33.5909510
  58.9476871  65.4816723  33.3470368  58.2952404  64.7995043  34.5302296
  41.2080336  65.0845575  43.2200003  41.6367006  65.4719448  42.4568462
  41.1806011  64.1469908  43.0290842  79.2549372  80.2990913  36.3716698
  78.9923477  81.0801792  36.8586850  78.9785576  79.5680666  36.9243431
  63.6896001  19.0295591  56.3678837  62.8560268  18.6646070  56.0709000
  63.4716331  19.9123850  56.6667795  64.3879938  48.6682558  62.4410009
  64.1161108  49.0749693  63.2637358  65.3206539  48.8715792  62.3700380
  37.2146988  27.9615188  23.6078715  36.3681412  28.3109355  23.3295178
  37.8297567  28.6806393  23.4636354  46.1926595  66.4825672   7.5701475
  45.4618541  67.1005195   7.5529098  46.9100181  66.9711918   7.9737186
  28.1248717   7.6538076  26.9044089  27.9231887   7.2535028  26.0586452
  28.2133060   6.9135465  27.5047565   5.3966514  37.8260225   1.5343999
   6.2950102  37.9517502   1.8399762   5.4135672  38.1059975   0.6192159
  57.0226526  73.1727600  50.4061270  56.8705082  72.5500250  49.6952915
  57.9433012  73.4187841  50.3160620  79.6826068  60.1520962  18.8764953
  79.4765750  59.7015899  19.6955394  80.4439537  59.6856445  18.5315322
  34.0682022  28.9599985   4.8178005  34.1325466  28.3003038   5.5083751
  33.2078687  29.3591255   4.9472570  69.8533617  29.3071451  49.6037817
  69.0805136  28.7628545  49.4531202  70.0883805  29.1419019  50.5168486
  -0.2884288   5.1106634  43.1941700   0.4580932   4.8836889  42.6397181
  -0.0091739   4.8768606  44.0793705  59.1663734  60.1864094  24.9854278
  58.8703338  60.0456661  25.8847522  60.1189319  60.1042217  25.0311946
  43.9035503  68.3871597   7.5153112  43.8439361  69.1079658   6.8883180
  43.0312578  68.3370060   7.9062318  24.3337194  33.8919348  19.1325664
  24.6159784  34.3597072  19.9185371  23.7408582  33.2141584  19.4571685
  34.7470307  68.9853764  53.7770605  35.3793621  68.8555908  54.4838476
  33.9042091  69.0715408  54.2225504  38.7867141  72.5893450  30.2813816
  37.8527975  72.5512171  30.0750351  38.8314295  73.0863094  31.0982394
  25.2805055  38.6582466  60.9455139  25.5537618  38.8804336  61.8355668
  24.4468797  38.2014414  61.0579003  42.3634958  55.2073812  52.4088573
  41.6851139  54.6113825  52.0913410  42.9278660  54.6592188  52.9540491
  75.3288256  13.6223020  53.6192989  74.8165499  12.9939928  54.1282558
  76.1144387  13.1391611  53.3631372   8.7556796   9.0682974  44.3655634
   9.2958455   9.7631635  43.9892483   8.6406331   9.3235197  45.2809095
  74.9263846   9.9257459  30.5453086  74.5635067   9.3122759  29.9063993
  74.3037211   9.9107923  31.2721491  19.1885047   4.5882883  47.2927189
  19.4521098   3.6695280  47.3438549  18.2498365   4.5789327  47.4799395
  50.5830526  62.0216846  58.2089758  49.7251415  62.1183538  57.7956104
  50.7892370  61.0913849  58.1181145  84.5276304  51.9087172  39.7544932
  83.9527407  52.3080492  39.1016030  85.0727804  51.3014650  39.2542028
  49.1927624  72.9806900  42.0754862  49.8935938  72.3457909  42.2236967
  49.3729115  73.6857891  42.6972723  52.1586227  64.5246315  50.4340935
  53.0574179  64.8115253  50.5956316  52.1074152  64.4209623  49.4839048
  59.7326851  39.0182829  57.9219246  59.8569345  38.3318806  58.5773993
  59.2020035  38.6055541  57.2405577  43.0774490  46.9079346  10.2475070
  43.2696477  46.9130653  11.1851978  42.4333517  46.2082428  10.1388645
  24.7067027  40.0180616  19.5877147  24.6899753  39.9255838  18.6351395
  24.2085033  40.8171262  19.7595561   4.0453291  29.0618467  66.7907858
   3.2818848  29.2424178  66.2423563   4.7564808  28.9090919  66.1685658
  50.5305481  76.1623526  40.3678751  51.1513233  75.4372263  40.2967739
  49.8562908  75.9650421  39.7177410  66.9138527  75.0926733  35.7113862
  67.2384024  74.8026371  34.8588753  66.0979557  75.5523586  35.5133080
  62.7320623  68.9237833  56.7611456  63.0373049  69.8212862  56.6286469
  62.2305012  68.9591694  57.5756502  56.7006540  57.4055099  26.6260147
  56.1445665  58.1531525  26.8451500  57.0580292  57.1183825  27.4662971
  58.2319546  69.2660761  43.0790615  58.6899376  68.5388422  42.6576138
  58.4319067  70.0249004  42.5309372  22.8265071  63.3100986  38.6764264
  22.2147512  62.9428387  39.3144751  22.3821831  64.0877628  38.3387184
  37.1227050  56.1795473  38.1674957  36.8100262  56.9131041  37.6380062
  37.9712558  56.4700603  38.5018587  49.0189123  79.8690033  36.2372065
  49.9461222  79.8326397  36.0022664  49.0020418  79.6808290  37.1755743
  73.0340134   2.3840418  49.5447779  72.2833716   1.7971220  49.6358395
  72.7167927   3.2295885  49.8620367  72.9729163  14.0735426  67.2148180
  73.6904179  13.5208883  66.9049883  72.2232996  13.4813585  67.2751141
  31.2063646  74.1180468  65.6569481  31.2241745  74.7324085  64.9231386
  30.7171464  73.3645296  65.3266382  69.9492203   9.2575826  24.8759699
  69.6804177   8.4337511  25.2825141  69.4662272   9.9303236  25.3559470
  68.5987173   1.4584722  47.6497793  68.0212819   1.4196100  48.4122038
  69.3670117   0.9477319  47.9049253  55.9088241  16.0680093  48.7444639
  55.2027379  16.4605035  49.2579079  55.4908859  15.3460111  48.2751179
  72.6133143   7.3748388  26.2731791  72.0370184   7.3637857  25.5089855
  73.2561814   6.6875448  26.0983253  14.0022588  74.6968412  43.8826466
  13.5291159  74.6554327  43.0515909  13.3857107  75.1071262  44.4890881
  58.5976468  17.5393953  25.5070567  57.6943385  17.8560247  25.5109859
  59.1012441  18.2470503  25.9093547   8.0512529  27.8157415  34.6014547
   8.3226972  26.9381513  34.3324232   7.2443824  27.6755132  35.0969577
  61.7335081  65.5561256  40.9189558  62.6785803  65.6083202  41.0616159
  61.5582943  64.6208763  40.8148384  48.6914873  70.7750034  44.5842457
  47.8868294  70.9769344  45.0617170  49.2841816  71.4955378  44.7982025
  68.4094620  76.8018627  50.5200243  69.3550920  76.7386007  50.3857994
  68.2961082  77.5831985  51.0612202  52.4027053  32.9590172   0.7288074
  51.5533105  33.3985227   0.6889581  52.2567169  32.2073311   1.3031673
  36.2615720  19.3937248   9.1236972  37.0298330  19.2955440   8.5612392
  35.7689802  20.1152366   8.7325382  45.5699483  40.7088131   9.1930103
  45.0865261  41.5344089   9.2235374  46.4554826  40.9392494   9.4740009
  71.3361120  79.6166658  37.5373840  71.9680643  78.8997746  37.5914979
  70.8326626  79.5539331  38.3490705  11.3774829  76.9817499   4.3033599
  11.3378053  76.3410477   3.5933208  11.7186217  77.7753834   3.8910484
  34.8051429  76.7572737   2.3085965  35.2368021  77.0242882   3.1201407
  34.6647763  75.8159161   2.4104860  28.4362689  18.5703796   8.9412069
  28.5809890  18.5082477   7.9970502  27.5104515  18.7977642   9.0271520
  73.4014476  33.1232878  55.8462704  73.6153854  33.2511469  54.9220873
  72.8260006  33.8569637  56.0626305  63.7963772  77.7307653  19.3562269
  64.1971159  78.1923676  20.0928164  63.2738686  78.3979368  18.9111471
  15.5522291  67.1781105  14.1853809  14.9792043  67.3990959  14.9195766
  15.4423706  66.2340778  14.0715122   7.8355139  62.8550005  57.9926634
   6.9415873  63.1606865  58.1465912   7.9367846  62.8802872  57.0411730
   9.6517282  12.5944891  51.1955023   8.7160020  12.7616872  51.0828352
   9.8917966  12.0578470  50.4401159  66.5780067  56.8416214   8.3111560
  66.8897295  57.7462626   8.3373439  66.3118696  56.7062235   7.4017221
  54.2320490  72.0720005  47.7912283  54.1541624  71.9379950  46.8466616
  53.3509445  71.9120216  48.1292915   2.6266389   0.0566282  16.2801707
   2.3525577   0.8763590  16.6914535   2.0308261  -0.0502310  15.5386686
  25.8660746  77.7429676  54.9876833  25.4510355  78.0667925  55.7871246
  26.1278892  78.5339260  54.5164394   4.6969406  51.7628044  14.0725326
   3.8293783  51.9544166  14.4286918   5.2847640  52.3542637  14.5424938
  27.2147123  28.9789480  -0.0071812  26.7654029  29.1133112   0.8272647
  26.5193645  28.7307304  -0.6163693  46.0931730  65.6779146  29.4604945
  45.3932047  65.6532288  28.8080621  46.8125772  65.1910067  29.0584922
  39.2362881  49.8177147  23.9593387  40.0643587  50.0328302  24.3885899
  38.6773610  50.5774021  24.1227579  65.0591421  74.9586153  62.8426552
  65.7301283  75.6033373  63.0670357  64.3622923  75.4709625  62.4326181
  54.5544434  48.3273554  49.1642475  55.0371552  49.1379738  49.3258524
  53.9149189  48.2836390  49.8751116  51.9520283  75.1753664  37.6751924
  51.1198902  74.7516680  37.4648285  52.2723246  74.7051954  38.4449863
  70.2372061  10.8540239  51.6719627  70.5729329  10.8913889  50.7763481
  69.6793448  11.6278162  51.7511129  18.5314797   9.3727674  49.4723177
  19.0665757   9.7847643  48.7939644  18.2576512  10.0975122  50.0344515
  54.6106278   7.5835504  52.7288294  54.0797459   6.9847479  52.2036362
  54.7230994   8.3544626  52.1727037  80.9620476  51.6731071  33.6954784
  81.5897465  50.9740591  33.5122871  81.3439560  52.4506903  33.2883763
   7.6925105  62.8415966  24.1524172   8.2202452  63.3750582  24.7466755
   7.0338076  62.4356890  24.7159648  69.8507296  31.4069357  42.8112125
  69.2343842  31.0420599  42.1762180  69.2993866  31.8737211  43.4391975
  80.3587341  67.4382210  35.5697751  79.7194529  66.7298365  35.4940462
  80.4421425  67.7816868  34.6802211  43.2466690  49.5024341   3.8288020
  44.0527574  49.8970264   3.4960126  43.2525960  49.6993202   4.7655153
  83.4994112  10.0308885  44.1770887  83.1465899  10.6141176  43.5050869
  84.3099152   9.6910944  43.7978029  53.1672727  20.1476659  31.9619799
  53.1107794  19.7916498  32.8487110  52.2923004  20.4939928  31.7867374
  37.1613741  31.3758111  55.7617760  38.0124235  31.5095353  55.3445673
  37.3655415  30.9346533  56.5863562  55.3162098  72.8169155  68.2503939
  54.8435926  71.9866228  68.3093834  54.6341896  73.4701729  68.0944061
   1.7558379  67.0924616  54.9174833   2.0119247  66.7775393  55.7843590
   2.4515972  67.7008677  54.6685028  72.4725268  17.0828670  11.3764285
  73.1979940  17.4490398  10.8706188  71.6900549  17.3184532  10.8779620
   6.0409169  12.4513139  42.5774145   6.5475993  12.1196737  41.8361187
   5.3713565  11.7839517  42.7275896  31.2291848   3.1422701  43.3744383
  30.8646065   3.9466085  43.0051804  30.8074072   2.4392500  42.8803730
  50.3050518  79.7129679  47.3914146  50.6609440  80.5191422  47.0176983
  50.9491253  79.4488096  48.0483913  19.4920218  46.9546843  23.4116030
  18.9597940  46.4513636  22.7954602  20.3939295  46.8007803  23.1303430
  66.7569529   2.2767629  49.6233749  66.7964946   3.1371011  50.0410843
  65.9308993   2.2830286  49.1398191  46.0134546  15.7548565  16.4439105
  45.7356540  15.1123232  17.0967578  45.6227724  16.5781540  16.7367935
  72.8981955  40.8119531  66.4016101  73.7151415  41.3059755  66.3324607
  72.2124965  41.4582392  66.2331689  33.8595621  53.9000934  10.3529691
  33.2977907  53.1476444  10.1672983  33.3962814  54.6451134   9.9701595
  54.5644426  70.7337475  36.7858624  54.5639801  70.3529310  35.9076762
  55.4495239  70.5764294  37.1146727  83.2503353  13.9138975  45.2542734
  83.8621222  13.6803617  44.5561266  82.9586731  13.0736913  45.6081343
  63.6322975  39.9458694  44.4275522  63.9675522  39.0501070  44.4655466
  63.4844589  40.1852846  45.3424597  54.4675732  54.4967079  55.6743717
  54.6375608  54.1949654  56.5667200  55.3070211  54.8466444  55.3758717
  60.1899468   8.4631815  34.0232205  61.1043059   8.2055940  33.9056587
  59.6899163   7.7867307  33.5664797  29.4931889  26.5139532  15.8615494
  28.7543631  26.6388655  16.4571726  29.1218042  26.0449600  15.1143217
  57.9048777  68.0593252  62.0176983  58.5860109  68.6254835  62.3806763
  57.3107243  67.8991365  62.7508831  77.5765740  16.3466730  55.0824881
  77.6051365  17.1705331  54.5959902  78.2022940  16.4683714  55.7965612
  59.6719503  77.1952105  42.9979658  59.7639608  77.6747465  42.1746731
  58.8344908  76.7387724  42.9169846  69.8296486   2.7288618  40.6378078
  69.7614323   3.6835470  40.6253815  70.7001053   2.5555792  40.9962893
  36.0589314  66.9322014  49.3381453  35.2763653  67.3469067  49.7012377
  35.8006454  66.0226727  49.1888714  74.7264849   8.2989397   3.5824177
  75.6810223   8.3626833   3.5502589  74.4459616   9.1135683   3.9994478
  37.8715173  21.0945696  11.6326808  38.3481256  21.8309063  12.0159339
  38.5493938  20.5589289  11.2206077  75.5023527  76.2057161  67.0847845
  76.0576248  76.1435556  66.3075829  75.5077267  77.1362257  67.3091841
  83.5435772  63.5575819  36.8877912  84.0779114  63.7472630  36.1165929
  83.1157589  64.3888712  37.0931125  19.1288364  71.6815281  67.3146439
  19.0272808  72.5011683  66.8307924  19.6939397  71.9079018  68.0533266
  50.6202173  54.8489761  37.1983409  50.6552839  55.3836823  36.4051867
  51.1443949  54.0758085  36.9893360  18.9929573  34.3593210   0.9841918
  19.6037761  33.9400905   0.3780698  18.2158987  33.8006872   0.9657382
  14.2132998  78.6068439  39.3176389  14.1778958  77.8332186  38.7550735
  13.5887742  78.4217405  40.0190210   9.3993001  19.7634210  63.7808847
   9.8402648  19.6768369  64.6260405   8.5088401  20.0360956  64.0021563
  28.8726859   7.8648367  54.7879028  29.0434413   7.7506055  55.7227993
  28.1771140   7.2368040  54.5929861  35.4393172  67.1995163  65.9515429
  35.8662510  68.0169821  66.2078857  36.0248566  66.5130424  66.2711096
   8.9532320  35.1983732   6.6519212   8.1873719  35.1388544   6.0808276
   8.5920588  35.1922268   7.5383472  50.1629292   7.8975286  44.2908621
  50.4605996   8.7607851  44.5779276  49.5147382   7.6377573  44.9455404
  66.7616688   3.7679186  24.0016365  67.3256670   4.3746080  23.5219908
  67.2958099   3.4781923  24.7412181  30.5396986  76.0256958  18.6913371
  29.8348212  75.6138706  19.1911173  31.0661435  75.2930737  18.3714128
  36.8788505  76.1889744  32.6559424  35.9330940  76.0414553  32.6597166
  36.9726276  77.1410990  32.6259661  23.6984115  33.9079370  37.0803738
  24.3590121  33.2386388  36.9018292  23.6292796  33.9276113  38.0348730
  26.1785178  79.8319701   3.1913947  26.9176345  79.4746784   2.6991653
  25.4434543  79.2610912   2.9677915  35.5063629  77.0393372  39.9618292
  35.7668591  76.8432379  40.8617830  36.3329196  77.1344471  39.4885540
  64.6805954  62.2461653  50.5619001  64.0664387  61.9283342  51.2237406
  65.4914665  62.4060917  51.0447454  71.5319477   9.9102964  22.7131677
  71.0418974  10.7147493  22.5430894  71.0476338   9.4791402  23.4172869
  70.1413965  49.4315100  59.7132015  71.0750341  49.5971203  59.8440790
  69.8917580  48.8728285  60.4492617  53.4973288  56.8233061  19.5542920
  52.8583670  57.3694324  19.0963554  53.5568094  56.0285568  19.0241361
   5.1330714  14.7289171  44.7912359   4.3689733  14.5046796  44.2601013
   5.8445315  14.2075147  44.4194889  63.5471832  25.0797929  38.3111596
  63.2484661  24.5953836  39.0807986  64.0555250  25.8077612  38.6687613
  17.3419869  64.4827080  61.9449520  18.1698847  64.0756893  62.2001982
  17.1492398  64.1134644  61.0831308   1.2033194  56.2112951  48.4925222
   1.1403006  56.7061758  49.3094397   1.0847491  56.8671131  47.8054428
  52.7646290  14.4855871  30.7484102  53.4191929  13.9495744  30.3006744
  52.0572196  14.5820131  30.1108313  68.3834314  67.2650146  33.3994913
  68.8888693  67.9673195  32.9901862  67.6886368  67.7173996  33.8778663
  17.5984721  19.5159425  28.6332583  17.9537253  20.3822984  28.4346080
  17.0681863  19.2933168  27.8680992  53.6037207  59.9774122  13.9508760
  54.2405891  59.2697811  13.8513875  53.1497431  59.7777081  14.7695649
  28.0672793   6.7223348  37.3481655  28.8681083   7.2014608  37.5611234
  27.3592525   7.3109235  37.6098752  27.1238828  78.1854868  60.8819151
  27.8702307  78.0820990  60.2915668  26.5380859  78.7883663  60.4240799
  78.2045984  74.6992588  39.5380497  78.6202908  74.9651384  38.7178445
  77.6266527  73.9774466  39.2906713  79.1186749  19.2123785  21.5809178
  79.6629416  19.3898859  22.3480535  78.2614981  19.5736780  21.8066120
  65.2814917  47.8764004  17.1217059  65.4842333  47.8920788  16.1863612
  65.2380333  46.9458622  17.3418044  34.1334271  73.9976454  15.8291328
  34.0537786  73.7224197  14.9158227  34.9188495  73.5516596  16.1460578
  33.3510756  62.8256989  46.2210846  34.0622234  62.8698301  46.8602657
  33.5787773  62.0841694  45.6602669  56.0987759  63.3130693  38.1838536
  55.6666851  64.1624975  38.2732654  55.4973459  62.7933693  37.6505375
  14.5846380  33.6224886  61.3064427  15.4240192  34.0321632  61.5158231
  14.8098625  32.9025694  60.7171840  30.2348804  50.4840660  33.6983371
  30.6108999  49.6193743  33.8630962  30.2369070  50.5684042  32.7448606
  77.4120114  47.9368728   2.2975873  78.0537055  47.6734489   2.9571819
  76.6552947  48.2320064   2.8040552  44.4522141   8.5313978  50.0295591
  45.3520059   8.4075918  49.7274351  44.2191028   9.4113245  49.7335434
  15.6682301  51.1070108  59.1579056  15.9295499  51.9351959  59.5604658
  14.7142243  51.0937786  59.2349100  84.5610714  78.7002611  53.7083912
  84.7792816  77.9434633  54.2523384  83.6239910  78.6089659  53.5358191
  50.4044962  54.9417019  39.9337578  50.2710772  54.9797249  38.9866662
  51.3555765  54.9338913  40.0415325  76.8878495   4.5198335  52.0306540
  77.7494942   4.2425432  52.3419476  76.5467488   3.7589731  51.5605736
  49.4234001  31.1441030  49.5587206  48.5583078  30.7434358  49.4731998
  49.4177567  31.8633070  48.9271069   1.3059669  36.8182840  34.2964005
   0.9124332  37.6897611  34.3399501   0.8893876  36.3315572  35.0075889
  68.0451256  66.0130310  46.5233278  67.4929816  65.2864122  46.8121099
  68.2806367  65.7915211  45.6223822  67.3050880  71.3118267  46.2483025
  66.5809870  71.9377804  46.2385845  67.7022219  71.4183950  47.1126890
  21.3274709  18.0024046   5.3226041  20.7819025  18.5509056   5.8862829
  20.7618896  17.7826685   4.5822858  42.8343201  58.7771034  47.4266768
  43.6142635  58.5838032  47.9468203  42.7967310  59.7331238  47.3975706
   9.1499429  18.8047208  27.2300267   9.1985850  17.9347505  27.6262832
  10.0014310  18.9242830  26.8094277  75.8665085  69.8397350  67.2029114
  76.0467243  69.4903898  68.0756712  76.2981701  69.2282009  66.6063118
  75.3212057  12.4392404  66.3079977  75.1820313  12.1557035  65.4044104
  75.2574574  11.6354170  66.8237734  25.4934207  34.3808740   3.4602641
  24.7688476  34.5444244   4.0639829  25.6351844  33.4353775   3.5067987
  81.4238821  39.1549577  51.8788528  81.6613470  38.4367647  51.2922955
  80.8759152  39.7295847  51.3442802  79.1187859  69.9569464  31.9112206
  79.9697125  70.3025293  31.6415358  78.6503607  69.8062277  31.0901880
   0.9368914  68.7621689  41.2308979   0.2000636  68.4772778  40.6903791
   1.5628070  68.0395794  41.1826515  55.0600767  76.2193155  44.5079374
  54.9701166  76.8948650  43.8357925  55.9365511  75.8599472  44.3705225
  42.1322441  63.9086294  33.8914037  41.6884041  63.1985569  33.4276867
  43.0587912  63.6698341  33.8646269   2.3771850  30.1466554   5.0772523
   1.6967527  30.8109802   4.9680805   3.1456748  30.5173773   4.6434116
  53.4016323  80.3713703  39.1153526  53.1582069  79.5185375  38.7552834
  52.7696276  80.9812641  38.7347841  51.4006090  65.9904432  39.6023870
  50.9621096  66.2843418  40.4008675  52.2452164  65.6547308  39.9026632
  59.6052217  63.0911350  61.1045790  60.3023720  62.4732208  60.8845949
  58.8908672  62.8687620  60.5075216  51.8612957  61.1252165  42.3980665
  52.1978855  61.2272978  41.5078306  52.5589561  61.4651918  42.9583549
  44.5372343  52.7381611  39.5824957  44.1997862  52.3688745  40.3985739
  44.2842531  53.6607742  39.6144533  80.0199305   8.6548795  41.7600250
  79.3863856   9.0808477  42.3374414  80.3187691   9.3522539  41.1764193
   9.4749742  27.6125135  30.5168176   9.8933177  27.3337545  29.7022510
   9.8821836  28.4548082  30.7191634  14.0693344  52.6682325  66.9598649
  14.9240173  52.2389265  66.9218353  13.9948143  52.9738088  67.8639097
  19.2574233  66.9455242  30.3882337  19.2281550  66.3628674  29.6293592
  19.6569556  67.7499437  30.0573063  63.5301577   6.0923185  38.8110209
  64.0737282   5.3111257  38.7085152  62.6710116   5.8315076  38.4792399
  44.4613886  79.1819334  65.3776169  43.8370180  79.7379684  65.8436775
  44.0675163  78.3097744  65.3985739  24.9543147  12.0392980  47.9079628
  25.4206710  12.5810995  48.5445166  24.2114883  11.6829862  48.3952856
  16.8762736  13.5349741  31.4021873  16.8788009  14.0845098  32.1859145
  17.2058921  12.6879778  31.7025018  36.0479121  16.2954797  23.4931064
  36.9126849  16.2170591  23.8958931  35.4365592  16.0575857  24.1901612
   3.3892779  68.8750066  63.7411928   3.7362151  69.2961683  62.9547548
   2.6419072  68.3645239  63.4296274  49.3521500  57.4419594  20.9116173
  48.4412575  57.3205566  20.6437302  49.5139551  56.7358351  21.5372682
  80.8885180  10.0885286  56.9686937  80.0707566  10.5799760  56.8913841
  80.8869540   9.7609129  57.8680849  62.3382484  16.3758077  44.8017931
  62.6186334  15.6496420  44.2447424  61.8134867  16.9311800  44.2252398
  67.9217911  51.4093256  31.6912103  66.9774485  51.5576220  31.7407656
  68.0216122  50.4633474  31.7979240  10.6963306  32.1554079  38.7646985
  10.8379321  33.0579462  38.4790444  11.5613942  31.7490377  38.7121701
   7.6083331  25.0086107  40.4827547   7.7808480  24.1602983  40.8912039
   7.4434238  24.8023405  39.5627069   7.0673375   1.3173189  31.8328643
   7.8727918   0.8140268  31.9519162   7.0853810   1.5843286  30.9138370
   4.2756658  18.1014814  51.2355709   5.0777345  18.1332292  51.7570114
   3.6992030  18.7477960  51.6432476  52.5541019  67.2774744  30.5111957
  51.9440174  67.8871536  30.0960827  52.4926662  67.4761295  31.4455390
  67.9518353  10.6882753  55.8003950  67.2110139  10.1451673  55.5312395
  68.1460368  11.2259760  55.0326681  76.1627865  57.6312017  30.0634241
  77.0814037  57.5115585  29.8224759  76.1095762  58.5393810  30.3610921
  27.9426879  78.2103825  19.8324668  27.7563971  77.2765779  19.9301279
  27.8271884  78.5708809  20.7116318  60.6256485  74.0480232  36.8931103
  60.1374769  74.2917299  36.1066437  60.2846050  73.1852961  37.1289682
  76.5637766  19.2067613  30.1847792  76.1228501  19.9542799  30.5885434
  76.3151394  19.2520799  29.2615461  59.4061004   7.5558366  27.9429531
  58.9101778   8.3223428  27.6552749  59.2203413   6.8885889  27.2822666
  79.6481787  19.0286436  29.5105433  79.0254914  19.4038477  30.1332116
  80.4759585  19.4680013  29.7054124  24.5337928  57.2842260  68.8023560
  25.3989805  56.8779798  68.8537688  24.5099367  57.8913637  69.5419871
  20.4944759   6.7064848  65.3003836  21.2130694   7.3123827  65.1194525
  20.4602532   6.1387815  64.5304680  58.9172268  48.6633110   1.7602921
  58.1393242  48.1207895   1.8897851  59.4808674  48.1413937   1.1892016
  53.1338692  78.9342117  52.7949429  52.2846127  79.3241978  52.5878143
  53.7722397  79.5216751  52.3904657  83.3870207  14.6283426  52.3338699
  83.6190974  14.3675413  51.4426041  82.4321114  14.5676412  52.3602152
   6.3788336  76.9616652  15.6513441   6.6842383  76.0768700  15.4511070
   6.5315074  77.0608044  16.5910757  17.6044408  52.6697105   0.2488994
  17.9900066  53.0817646  -0.5242634  18.1392185  52.9822391   0.9786748
  46.1987305  59.4467926  19.8082697  45.3122187  59.5824718  19.4737220
  46.1067247  58.7450886  20.4527688  76.0843550   6.5863981  21.2945032
  75.5399786   6.7501535  22.0646143  76.4807927   5.7308187  21.4589739
  60.3304945   6.9031610  51.8165016  61.2434112   6.8291654  52.0945978
  59.8331963   6.9372549  52.6336670  81.4502989  29.4659128  31.4121461
  81.8111931  29.9578657  30.6746006  80.8363902  30.0720110  31.8268681
  25.1571422  23.8056554  25.6085157  26.0452037  24.1154756  25.7862806
  24.5935111  24.5378103  25.8585262  11.2119025  78.7800121  46.5600729
  10.4171485  78.2598114  46.4417601  11.5034026  78.9777994  45.6700516
  83.0293356   2.4516477  64.5002460  82.4891745   2.7230920  63.7581015
  82.6192891   1.6450872  64.8126030  16.1795859  17.1427145  17.9531658
  15.2325349  17.1774664  17.8185785  16.4945512  16.5355959  17.2835088
  79.5983826  -0.0717078  51.6776800  79.2485653   0.7914629  51.4567661
  79.3374525  -0.6304274  50.9455729  61.7651044  38.6731996  66.2284565
  62.0985829  37.7967062  66.4202547  62.2015511  39.2399873  66.8644571
  52.4559641  71.9699955  51.3021803  53.1521702  72.6234055  51.3699055
  52.9100418  71.1293316  51.3598633  52.9249287  64.0394402  56.9820309
  52.1416616  63.5649920  56.7034149  53.1737947  64.5602226  56.2184334
  40.5984305  23.3351698  19.9039304  41.5129398  23.6143675  19.9481046
  40.0966870  24.1265573  20.0993562   0.7138209  24.3452158  56.9996881
   0.9838729  24.8599138  56.2391615   0.7623057  23.4363641  56.7032766
  36.3280635  21.1709203  56.0064316  35.9262805  21.8277158  56.5751314
  36.0422473  21.4103593  55.1248360   1.3897758  19.7047605   7.0189941
   1.8309932  20.5456342   6.8986559   0.5648427  19.9267568   7.4507684
  40.6210184  70.8269548  22.2474337  41.2807274  71.2399197  22.8046393
  40.7155514  69.8899269  22.4185300  77.5194454  61.7107773  54.8483276
  78.4316778  61.9217253  54.6494246  77.5706911  60.9592819  55.4389763
  75.4136745  12.3487037  13.5723113  76.2893764  12.6437944  13.8219165
  75.1799957  12.8981155  12.8241252  84.6804272  40.8487119  41.5398550
  84.9510180  41.6153230  41.0345650  85.4947363  40.3762712  41.7128754
  53.8548136  65.7409716  34.7811055  54.3014574  64.8945761  34.8001432
  54.4880486  66.3369989  34.3811107   9.3296056  19.7354593  15.4666996
   9.5389657  20.5957212  15.8304965   9.9689298  19.6099176  14.7654605
  15.6377988  17.2345438  52.1108484  15.8536582  17.9220190  52.7409315
  15.6785398  16.4236345  52.6178074  35.0835443  56.9815063  40.4834604
  35.8030081  57.6065302  40.3943205  35.1193976  56.4591551  39.6821499
  67.2862291  74.3296432  33.1621432  68.1860352  74.1660118  32.8796363
  66.8032503  73.5505056  32.8866410  80.4142319  14.2868509  58.8113070
  80.0871264  13.7626447  59.5423603  80.2003466  15.1890745  59.0489483
  69.0890265  57.0218706  13.9876425  69.8661566  57.3795176  13.5582328
  69.3940258  56.7617464  14.8568618  16.1667209   6.5215387   5.3087980
  16.1691527   6.0667410   4.4665471  17.0819192   6.7613687   5.4541343
  58.2907211  25.7015791  26.2257433  57.8076612  26.5185251  26.1012745
  57.8086435  25.2404871  26.9121981  13.9835471  72.9369640  49.3539953
  13.6684436  72.0599222  49.1354847  14.3083018  73.2882452  48.5249233
  23.4386722  43.8048500   1.9628429  23.9195100  43.9639610   1.1506128
  24.0971653  43.8921970   2.6520395   1.4818959   2.2902002  17.3282409
   1.5356927   2.9301538  18.0380249   0.6315761   2.4552431  16.9208765
  43.3968687  75.2721930  56.2576675  42.4745941  75.3605795  56.4981556
  43.3828831  74.8045063  55.4226208   7.2964149  38.2433691  50.8462524
   7.0354085  39.1587152  50.7449389   8.2528119  38.2617941  50.8116817
  82.8361689  14.8248377  60.5934334  82.8113018  15.6413831  60.0945520
  82.4604212  14.1718664  60.0029516  77.8498207  26.1142721  40.8784866
  78.1940781  26.9122972  41.2795734  78.5493695  25.8178415  40.2962542
  60.7091045  71.6840029  67.4193287  60.7081079  71.7221022  66.4628887
  61.5899611  71.9630575  67.6692295  43.2343726  11.5202226  32.9586053
  43.9753299  10.9331693  32.8083611  42.5492339  11.1955347  32.3743129
  15.6430392   3.6212530  41.5762901  16.0795741   3.1228342  40.8854628
  14.7526698   3.2705679  41.5985441   5.3032785   3.3566465  45.6851578
   5.6942849   4.2102708  45.4989338   5.1751142   3.3537187  46.6337347
  14.6069920  67.3650455  39.6063113  15.4420948  66.9162035  39.4745016
  14.6518326  67.6957989  40.5034304  50.5486332   9.9680891  46.4510536
  51.1961066  10.6722440  46.4166689  50.6009733   9.6381845  47.3480749
  58.0432415  78.8061953  38.8705397  58.7343597  78.8117123  38.2083011
  57.7494621  79.7159767  38.9177179  63.7214266  23.3405580  47.2275162
  63.6679350  24.0999784  46.6473007  64.4847595  23.5134496  47.7785683
  85.0403868   9.2908945  54.5108175  84.3438708   8.9416589  55.0668192
  84.6432482  10.0445642  54.0743685  38.5644007  72.7462673  41.2579536
  38.0920744  73.5387373  41.5131760  39.0317225  72.4804497  42.0499039
  10.8259873  22.2661295  66.8973064  10.4011493  21.6214265  67.4630833
  11.7399650  22.2690286  67.1816874  26.4454227  26.3270750  33.7381291
  27.3028712  26.6993131  33.9441752  26.6426902  25.5177011  33.2667136
  72.0483052   7.4427023  35.4614472  71.5966021   8.2789983  35.3482628
  72.3664938   7.4625768  36.3639927  19.1690914  45.0094742  13.7894153
  19.0986816  45.5741543  13.0197334  19.1239254  44.1199440  13.4388065
  75.3896427  76.4601612  61.5854168  75.7527781  75.5819845  61.7001772
  74.7600079  76.5542746  62.3002148  23.3901744   8.7672224  29.3160081
  24.1167216   8.1744661  29.1236711  23.2767158   9.2755308  28.5128951
  54.4757557  77.5217104  61.2460232  53.8925552  78.2780886  61.3092566
  54.8013592  77.3951530  62.1372032  81.7150866  24.6824350  45.3704643
  81.5747391  25.6291380  45.3537941  82.1584784  24.4914426  44.5439339
  74.4347655  14.6539583  58.0103350  73.4957920  14.6869077  57.8273869
  74.8460709  14.9857893  57.2122478  34.3056098  45.6848568   0.7363605
  35.2210227  45.5324119   0.5018186  33.8075201  45.3326267  -0.0012541
  37.3117690  16.7581262  51.1137486  38.2068782  16.4298238  51.0287380
  37.3446612  17.3519125  51.8637943  85.1413762  26.1169519  31.9083571
  84.7516810  26.8126001  31.3787889  84.4254958  25.4990186  32.0563531
  70.3081881  17.7013960  24.0375257  70.7037245  17.6848116  24.9090219
  69.3670451  17.7579679  24.2026806  37.3403811  69.6328545  51.1102724
  37.5350475  68.6987209  51.1859798  38.1592202  70.0681448  51.3474560
   8.4947877   3.8151159  65.9054375   8.7267737   2.9003896  65.7451487
   7.9976039   4.0755262  65.1300478  59.7226048  63.9168644  64.2105961
  58.8684464  63.6553431  64.5544815  59.5541286  64.1400003  63.2951403
  18.5885322  67.1301031  38.1727052  18.9089048  66.2753677  37.8845763
  18.9287305  67.2259760  39.0622592  37.4139833  74.3170738  62.6865911
  37.3427343  73.9021635  61.8269396  38.0068707  75.0555992  62.5476933
  17.4112868  71.5385914  46.6521978  16.8697929  70.8044195  46.9420385
  16.9881725  72.3109818  47.0271969  48.6437416  58.1178617  46.9656849
  49.3961573  57.7475548  46.5041924  48.2019424  57.3605728  47.3498201
  14.4926744  19.0198698  32.3904753  13.8638978  18.5246267  31.8654919
  15.2183490  18.4118356  32.5316262  22.0139956  49.5978498  60.9894323
  21.6397929  49.9085808  60.1650238  21.5267253  50.0680923  61.6659403
   6.7699723   2.0049085  48.1795025   6.3082748   1.2182893  47.8891563
   7.1751361   2.3519029  47.3847294  81.9412600   7.5633516  23.2926130
  82.4139964   7.0655145  23.9596272  82.0666491   7.0627870  22.4864244
  60.8041226  17.0189943  10.0893593  61.2903820  16.6809263   9.3373692
  61.3938152  16.8921079  10.8325911  63.5639238  56.3743973  51.4180613
  63.8086653  55.5094910  51.0890245  62.8338385  56.2062359  52.0138121
  13.0913119  19.4871702  58.4272528  13.4727244  20.0196638  59.1252518
  12.4309545  18.9522447  58.8677263  57.3030567  49.8803663  18.9431560
  57.6291895  50.4774380  19.6164882  57.3666573  50.3797579  18.1290329
  31.4736454  76.8423313  15.2819919  31.2786952  76.1517948  15.9155368
  32.0699922  76.4316219  14.6559619  14.8967687  15.5106872  12.5946712
  14.9040405  14.9419969  13.3645915  15.1928369  14.9484438  11.8788146
  48.9526367  78.5393286  61.7007208  49.5032692  78.2249832  60.9836292
  49.5711517  78.8893843  62.3419189  14.7093145   2.0827812   7.3302984
  14.8971693   2.5154013   6.4973640  13.9152805   2.5117439   7.6492595
  13.1063514  21.1712160  36.1825991  14.0509133  21.0167017  36.1702704
  12.8185945  20.8283796  37.0287013  83.9839779  38.8062944  45.2547407
  83.0629145  38.9173689  45.0190830  83.9771449  38.1366338  45.9386539
  58.6603503  21.3880338  19.1298997  59.3696265  21.7010202  19.6913159
  58.1454902  22.1711816  18.9353991  53.1429087   5.3680219  20.1115513
  53.9497363   4.8590746  20.1905274  53.3243071   6.1796083  20.5855298
  64.5532409  14.9637789   7.0629644  65.2241317  15.6227583   7.2415065
  63.9128009  15.0776333   7.7651882  37.5040393   0.5072202   5.3927559
  36.7930656   0.6153478   4.7610381  37.3477798  -0.3520689   5.7844567
  58.7554598  73.3935165  43.8202429  58.4693480  73.5261726  44.7239971
  59.4459486  74.0434647  43.6897564  19.3969779  12.8368559  66.7053890
  20.2807813  12.6362123  66.3973856  19.2770105  12.2753610  67.4712658
  83.9431572  29.8332453  12.5717664  83.3084297  30.1081300  11.9101155
  83.4096622  29.4755602  13.2814622  58.4652567  71.5589333  60.8975792
  57.6971102  71.9841337  60.5162811  58.2886362  71.5441990  61.8382263
  54.9081993  68.7600327  49.8208427  54.2081308  68.5940456  50.4521799
  55.7088661  68.5025167  50.2778387  11.1088710   5.6343450  57.0768309
  11.9168429   6.1289205  57.2139740  11.4026265   4.7427263  56.8898726
  78.6385332   6.1494245  25.1783228  78.0891787   6.7765321  24.7080255
  78.8905035   6.6063680  25.9807825  40.7479347  51.4209410  64.1183448
  40.1378454  52.0529123  64.4986606  41.5670456  51.9067903  64.0221954
  46.4364147  63.1804705  12.0981157  46.1963940  64.0352154  12.4559367
  46.9240475  62.7541447  12.8028810  16.8393521  13.5132303  66.8559885
  16.6942935  13.3413210  65.9255886  17.7566438  13.2820310  67.0021057
  58.6731434  39.1221285  54.1498709  58.8752031  38.9553261  53.2292271
  58.3932590  40.0372362  54.1716623  39.0441457  46.4112610   9.7227763
  38.6543552  46.9092411   9.0042304  38.2987968  46.1421913  10.2596998
  77.9462004  50.8399582  60.7554722  77.5044680  50.4565239  61.5131569
  77.5469923  50.4068375  60.0009727  65.0027906  26.6218843  47.3472071
  64.9248825  26.7422094  48.2936096  64.1007601  26.6449442  47.0277691
  17.2403197  14.4986334  63.3654547  16.2953906  14.5144262  63.2134962
  17.4344783  13.5843267  63.5718012  19.1483251  36.5065473   5.7293510
  18.9549438  36.2309736   4.8333120  20.1025764  36.4651483   5.7920026
  80.3974759  35.5462541  39.3837285  79.6149289  35.4159441  39.9193287
  80.2196347  36.3472166  38.8907146  40.5568743  66.2155104  47.8164005
  40.0862980  66.8997860  47.3404217  40.1874304  65.3966045  47.4860430
  21.9505124   7.6325407  14.0526652  21.2647014   7.3105611  13.4676671
  21.6202645   7.4497976  14.9323082  75.5016119  65.5669258  38.8603687
  75.3941769  64.6353708  39.0524507  76.0900934  65.8862183  39.5444560
  20.0057244  19.6500993  42.5868797  20.7445979  20.0376296  43.0560493
  20.1270652  19.9267673  41.6786051  44.1611052  31.8778944  62.5714350
  43.4570742  31.8077421  61.9267225  43.8039351  32.4442935  63.2554340
  72.3484975  44.4288874  51.6460562  72.7791458  45.2387476  51.9197226
  71.5619093  44.7199488  51.1847639  13.8247883  18.1500578   2.1026485
  12.9266989  17.8272927   2.0285583  13.9372683  18.3332789   3.0353922
  14.6570170  21.7748356  49.3312168  15.4400754  21.6110229  49.8567820
  14.7717667  21.2284279  48.5537195  19.9411905  31.0531735  17.7002633
  20.2860761  31.5228915  16.9408882  20.6012988  30.3863287  17.8894901
  30.4568839   7.9699689  37.8416562  30.7798886   8.7145770  38.3490610
  31.1777663   7.7519441  37.2508740  76.1335821  70.8726774  23.8375139
  75.9375043  70.5795989  24.7273970  75.7197554  70.2193103  23.2735181
  15.4779136  18.3994031  49.6985340  15.8198595  19.1704690  50.1510429
  15.3875649  17.7389884  50.3854990  72.9477401  50.2647100  16.9126737
  72.9276748  49.7030721  16.1378229  72.5381858  49.7392831  17.6000047
  37.4296851  65.6278823  22.9813504  38.0091269  66.2149392  22.4957132
  37.4552507  64.8063288  22.4908113   1.8387521  70.3519581  51.0640526
   1.4346827  71.2129728  51.1718178   1.4784230  69.8271249  51.7788553
  43.8555908  14.8737371   2.8103918  44.3679237  14.6709311   2.0276923
  44.3766975  15.5288243   3.2746595   0.4110309  23.2368374  42.4836969
  -0.0999562  23.9334989  42.8957510   0.3454255  23.4145856  41.5454340
  72.3511560  53.2658015  35.0880575  72.9457517  52.5157128  35.0805998
  72.8000398  53.9324484  34.5681381  55.1964699  33.6727158   8.5338067
  54.2527925  33.7106840   8.6895656  55.3036176  33.9843492   7.6351213
  10.8633614  17.7778983  46.8437910   9.9821544  17.4253595  46.9679737
  11.3547504  17.4678981  47.6044941  18.7064517   6.2520152   1.0131828
  18.4378088   7.1549892   1.1825982  18.3883846   6.0693741   0.1290407
  63.6169262  72.5637809  31.3155270  62.9805906  73.2671819  31.1869359
  63.6184407  72.0874379  30.4852676  85.4153438   9.8963543  64.1121174
  84.4629855   9.8846479  64.0166772  85.7299609   9.2804380  63.4503800
  73.2242710  61.4257751   8.7958193  73.6065109  62.3010586   8.8590831
  73.0501635  61.1743234   9.7028422  19.5306110  34.5286012  67.9666710
  19.0179920  34.8604226  67.2295475  19.0031087  33.8135886  68.3226633
  51.5633821  12.0792675  18.6371613  52.2855330  12.2124994  18.0231750
  51.4789438  11.1282051  18.7048721  67.3064978  68.0394242  27.8122544
  67.2797246  68.8361190  28.3421516  67.2511454  67.3265396  28.4486222
  62.3519684  69.5196329  53.7407541  62.2053165  69.0200708  54.5439720
  63.1365521  69.1292069  53.3557510  21.4613318   5.0016350  17.7793634
  22.2502804   4.5956653  18.1385028  20.8719254   5.0841296  18.5290468
   7.3544158  70.4580400  23.9481330   7.8144325  71.2122277  23.5796022
   7.9807628  69.7376428  23.8777900  62.4468763  79.8588886  14.9113119
  61.5849007  80.0607124  15.2753127  63.0402274  80.4703372  15.3475416
   3.9790946   0.3113389  47.6523590   3.2623443   0.6954728  47.1474409
   3.9318728  -0.6253187  47.4608564  60.5354459  74.0669654  47.4299622
  61.2989045  74.5484684  47.1113396  60.5939929  73.2136492  47.0002460
  16.8001950  23.6074495  45.3027821  17.0876884  24.4621992  44.9818754
  16.8994904  23.0235267  44.5508432  70.5797334  68.3362601  12.8588963
  70.9929473  68.1904540  13.7099111  69.9559207  69.0455268  13.0139148
  76.3609105  26.7127848  25.3601527  77.2396576  27.0515609  25.1890802
  76.4468485  25.7643580  25.2635479  15.1490200  26.8144369  49.5603657
  15.9871113  26.8088007  49.0979767  15.3850067  26.7378283  50.4848528
  64.1549898  66.3510321  41.6313314  64.5152922  66.8223605  40.8801603
  64.4608999  66.8440686  42.3926258  79.1070473  18.8680780  12.4891365
  78.6881053  19.6848047  12.7605736  78.9985603  18.2826364  13.2386160
  32.7321076   7.4436122  39.7443581  33.0703926   6.9256997  39.0139031
  32.5951648   6.8071514  40.4460669  57.3886616  72.8220139  57.2708893
  57.7016370  71.9229082  57.3703241  56.6550900  72.7540610  56.6597509
  56.8574937  52.7618331  54.7137845  56.6278847  52.8428727  53.7880719
  57.7216252  53.1677514  54.7826434  72.9268273  49.8114943  60.2401460
  72.9487475  50.7638055  60.3342510  73.5066136  49.4892162  60.9302337
  50.6450565  51.0789333  41.2752867  50.4680527  51.5939317  42.0624876
  51.5992350  51.0097347  41.2438726  21.4572573  16.4872599  51.8039131
  20.5916381  16.8570459  51.9776773  21.5634704  16.5615535  50.8555317
  23.8681841  13.9629912   2.8276110  24.6967554  13.8514853   2.3614877
  24.1171813  14.0108466   3.7506184   3.9176905   8.5626185  62.3578215
   3.7231636   9.3224639  61.8091631   4.7673312   8.7622303  62.7508831
  10.7939614  55.6339846  22.3243666  10.3297580  55.4017601  23.1286168
  10.1954807  56.2220416  21.8636703  81.9096990  46.3901434  53.6747456
  82.8169627  46.0905609  53.7326622  81.9630070  47.3389778  53.7892246
  24.6093726   8.0804402  13.3256805  23.7006879   7.9604656  13.6015928
  24.6265078   8.9519256  12.9301405  36.5793414  74.8500172  29.2039943
  36.3426704  75.7769422  29.2360806  37.2950168  74.8073683  28.5697865
  25.2953386   7.0972174  20.9888649  26.2178707   7.3123926  20.8515024
  24.9779892   6.8397826  20.1232743   6.0862952  36.2364340  39.5574808
   6.9282568  36.3412547  40.0005913   6.3055027  35.8272934  38.7203526
  12.8282726   0.9936362  35.2203465  13.7435448   1.1898182  35.4203963
  12.8365040   0.0810665  34.9315882  53.5453088  72.7905325  29.6151114
  54.0609552  73.2407729  30.2841592  53.7276189  71.8616352  29.7570419
  83.7361369  28.1225920  30.6641102  83.6349890  28.6145973  29.8492885
  83.8499658  28.7940168  31.3367629   9.9298275  13.2348406  32.2970462
  10.4228425  13.0163968  33.0879021   9.1507185  13.6887789  32.6182318
  50.7481085  59.5099930   1.2154817  50.4351841  59.3829183   2.1111154
  51.2778746  60.3061155   1.2575530  11.3320267  21.8568778  34.3210483
  11.9616842  21.4669824  34.9274683  10.8357263  22.4760175  34.8563838
  17.8515804   2.2098486  29.0215516  17.5258613   1.4615074  29.5216775
  18.3833194   2.7025279  29.6466541  81.0618014  62.6593087  34.7696114
  81.5131779  63.4723137  34.9965787  80.3234715  62.9384027  34.2281222
  82.7309239  18.7249839  24.5345330  83.3540970  19.2481947  25.0386548
  83.0001839  17.8191805  24.6870184  78.9949579  63.8496600  26.2954164
  79.8488374  63.6762295  25.8991265  79.1653151  64.5358107  26.9407129
  75.5588895   2.6650095  37.2867489  76.3836700   2.8869942  36.8546700
  74.9092323   3.2288551  36.8669200  74.0692181   2.6776596  61.1843342
  73.7518747   3.2972904  61.8412829  73.2791347   2.3838611  60.7308078
  83.7339349  35.0035596  18.4986234  83.5643666  34.1832137  18.9617741
  83.6176817  35.6823754  19.1633987  70.4930456  79.7430952   4.3916366
  71.3232250  79.9680892   3.9716232  70.1510806  80.5788093   4.7092438
  56.7321157  11.2794971   9.0660322  56.8898153  10.4657817   9.5448124
  56.0771990  11.7419851   9.5889276  70.7339592  73.9497296  18.2300735
  70.2898891  73.1771282  17.8806138  70.5219073  74.6483467  17.6110423
  29.6670318  34.9885392  26.3963652  30.0407553  34.7653699  25.5438638
  29.2500591  35.8392549  26.2597966  15.6623304  50.3881359  13.2390940
  15.8661520  49.9374390  12.4196041  14.8157239  50.8050919  13.0789757
  76.9065660   1.8072048  29.5759630  77.4621129   1.3541567  30.2102709
  76.7195475   1.1480636  28.9075398  84.4411714   3.0112797  37.9835653
  83.8563122   2.9985970  37.2259307  84.2895823   3.8650721  38.3888936
  25.5341268   8.1393856  67.1794558  26.4211726   7.8159714  67.0220327
  25.6406569   9.0833879  67.2966814  15.7011354  34.0531731   5.9272110
  15.5037618  33.4464622   6.6407776  16.6573560  34.0814209   5.8944309
  41.5001631   6.3760853  43.5333061  42.1283960   6.9008911  43.0371857
  40.6894398   6.8842542  43.5063553   8.7477207   0.4261825  28.6104226
   9.0965503   1.3173445  28.6299181   9.4033539  -0.0977833  29.0706778
   3.8137743  14.8570967   9.4884324   4.6912879  14.4906342   9.3793124
   3.2340017  14.0954649   9.4848776  80.2413959  65.6817446  14.9065840
  79.3303652  65.8262728  14.6509230  80.2911682  66.0022567  15.8071542
  39.0451141  53.1682557  65.1844687  39.3159481  53.1333345  66.1018897
  38.1184300  53.4057826  65.2171815  50.4112848  26.9125265  45.0570203
  50.2265748  26.1043101  44.5785857  50.8828648  27.4600273  44.4292570
  48.4590244  23.8085389  47.8925610  47.7277660  23.4195280  48.3723164
  48.1904936  24.7145510  47.7400303  34.0304947  22.2243404  48.4660196
  33.7564468  23.0530858  48.0731964  33.3999753  21.5834665  48.1374502
  22.5714207   3.4050557   6.4099330  21.9799590   2.8145772   6.8765587
  23.2075143   3.6784798   7.0708829  77.1211165  18.9234960  42.1292830
  77.8206199  18.8153088  42.7736616  77.5311387  19.4019413  41.4087248
  55.0426828  72.3720435   8.8753557  55.2598511  73.1546120   8.3687400
  54.0980803  72.4332480   9.0175151  34.2050934  17.7784967  20.0768089
  33.9534450  18.6832523  20.2620721  35.1599669  17.7770412  20.1434660
   5.5984324  36.0171199  33.2935452   6.3731432  36.5726447  33.3798409
   5.5931550  35.4878902  34.0911174  11.1606455  40.4847479  19.3388522
  11.4353800  40.6553936  18.4379447  10.7901633  41.3152266  19.6376538
  46.2025033  52.7600698  22.5914382  46.8116616  52.6836173  23.3258151
  46.5633344  53.4646563  22.0532989  43.4036160  16.5706599  29.0690184
  43.5392189  16.5061462  30.0143647  43.2084990  17.4954498  28.9176035
  24.0558577  11.9400752  31.4919305  23.6342788  11.1091411  31.2727284
  23.9833498  12.0015049  32.4444008   3.6471308  67.7569042  60.0101852
   3.8379730  68.6082671  60.4038763   2.9711665  67.9407821  59.3578863
  45.2205706  19.0807319  35.8741093  45.4740524  18.2993352  36.3654327
  44.4081259  19.3711948  36.2885904   4.6082886  69.7750503  66.0186101
   4.1934427  69.2591602  65.3272403   4.5880779  69.2052799  66.7874957
  72.4826187  20.9885597  19.3266428  72.7492756  20.0891709  19.5169723
  71.9445723  20.9170938  18.5382068  65.2042252  20.0388908  41.6989851
  65.1817518  20.5971885  42.4761820  66.0681206  19.6274722  41.7245245
  54.3059347  72.4861489  60.7263613  53.8517902  72.7761726  59.9352407
  55.2327479  72.6341800  60.5383825   6.3266855  15.7151806  12.0764363
   6.9608736  15.4085922  12.7245426   6.7040545  15.4624140  11.2338614
  82.6515794  16.2311161  43.0262184  82.3789722  15.3738213  42.6991653
  82.3350084  16.2547064  43.9292431  18.8578165  12.6631379  43.8386917
  19.4757032  12.5992739  43.1104279  19.2826080  12.1916246  44.5552540
  80.7661471  13.4259355  51.7709112  80.7200268  13.2796299  52.7157402
  81.0878599  12.5973642  51.4156628  21.5780163  41.0143042  53.4652615
  21.0229754  40.3940964  52.9925013  21.0168600  41.3552380  54.1617537
  10.4548717   1.8622822  32.2425127  10.9190738   2.4497479  31.6461635
  10.5367768   2.2784044  33.1006312  79.6680136  72.2628359  65.3714705
  80.6176109  72.3531524  65.4510736  79.3139954  72.9605601  65.9229088
  21.1858953  74.6566484  42.5543642  21.9153179  74.1879711  42.1487617
  20.5297149  73.9800570  42.7213573  66.7369135  49.9733257  61.7219002
  66.7483481  50.8155698  62.1765716  67.2296270  50.1293659  60.9162218
   4.8643023  27.3387051  13.3903873   5.3825092  26.9090939  14.0709221
   5.0034720  28.2741475  13.5380614  73.2184107  58.4470950  45.7552004
  72.6236792  58.7066374  45.0515223  72.9977412  59.0292869  46.4822435
   4.9482968  31.7342401  23.0839014   4.9882105  31.4261746  22.1785092
   4.3212304  32.4571514  23.0634999  82.5614471  48.7903509  10.3599167
  83.4507747  48.4487639  10.2669299  82.3953195  49.2526374   9.5383787
  39.4923258  11.7271721  20.6615233  39.9409342  12.4286664  20.1894140
  39.7332168  10.9293866  20.1906300  79.7807450  79.8526171  39.7038031
  79.5866866  79.0181203  39.2769694  80.7357759  79.8742265  39.7644711
  22.5273633   4.7505796  22.3354721  23.4422588   5.0270087  22.2827053
  22.3450232   4.7038522  23.2739830   9.9284209  46.4803253  34.3688607
  10.4796280  47.2592841  34.4438505  10.4890050  45.7612715  34.6603036
  34.6981586  68.2127962  38.7498164  35.1766790  68.8074372  39.3274426
  34.8805154  68.5371695  37.8679109  28.6442208  24.4278383  19.6052659
  28.7842178  24.4866109  18.6601853  29.0810847  25.2018213  19.9606955
  41.8909454  -0.2585923  15.0015211  41.6813326   0.4807457  14.4308424
  41.5914965   0.0155199  15.8683681   7.8373885   1.2349138  22.6495457
   6.8999416   1.3896632  22.7656364   8.2183045   2.1105623  22.5834060
   5.6384099  28.3317804  64.6903658   6.5105450  28.6218429  64.4230175
   5.7163024  27.3811316  64.7705793  54.4188643  10.1834118  69.3184996
  53.6985731   9.6303350  69.6210146  54.9221468   9.6206427  68.7300873
  76.7666681  76.5401996  29.5874858  77.0991607  75.8065612  30.1046467
  76.4461882  76.1382628  28.7800407  64.9380332  29.9857044  44.6437597
  64.6131545  29.1549778  44.2965126  64.2706662  30.2596998  45.2728701
  22.1091604   4.2876339  58.7405396  22.6041293   3.5723773  59.1400957
  21.9549727   3.9989743  57.8410196  72.0884901  30.2365589  48.1249809
  71.3743812  30.5291939  48.6912394  72.4963576  31.0456443  47.8163481
  37.6536942  16.9545162  36.5676475  36.8205261  17.2315812  36.1864710
  37.7355456  16.0333657  36.3206387  25.4546905  13.0639803  21.9007707
  25.4785275  13.2065046  22.8470016  24.5252395  12.9583478  21.6978073
  57.2578799  66.8111000  59.7033930  58.0277192  66.2556765  59.5805740
  57.1932393  66.9245897  60.6516409  71.2806797  13.3877528  31.5663004
  71.2551022  12.5154948  31.9596767  70.5214977  13.4101212  30.9837389
  57.6868875  58.3040319   1.0824455  57.9632301  57.4534211   1.4235172
  56.8901791  58.5106645   1.5711069  78.0035615  31.5584373  45.2246952
  78.1028223  31.2716484  46.1325121  77.5424516  30.8380437  44.7949934
  49.2577934   3.7566245  29.5646334  48.4110355   3.3994448  29.2969441
  49.0712404   4.2355683  30.3721237  14.0641093  30.3753662  58.6791706
  14.1077709  30.3524828  57.7232409  14.4607842  31.2133932  58.9170599
  14.0405989   4.3449798  53.4095907  13.4173810   3.7136984  53.7691927
  13.7064493   5.1972812  53.6891556   2.3383231  27.0522475   0.2259941
   3.0784127  26.6320229  -0.2120823   2.7204865  27.8108215   0.6672985
  24.5209325  65.3652499  30.8879375  23.5802139  65.2065072  30.8099699
  24.5985283  66.3169799  30.9544206  33.4881949   0.8466482  34.6211720
  33.7820578   1.5378463  34.0277743  34.2602491   0.2950738  34.7473836
  18.2452834  37.5570273  63.0741739  17.4541974  37.9952598  63.3878088
  18.9333308  37.8474116  63.6729193  21.6818261  10.4406500  13.8042116
  22.4465537  10.7751381  13.3356571  21.8856597   9.5200324  13.9689755
  21.6371250  25.5721331  51.6239929  22.3802376  25.4389191  51.0355473
  20.9849167  26.0231543  51.0878611  36.6756344  11.2206304   8.8553023
  36.0299253  11.8871236   9.0899903  37.2371984  11.6483426   8.2088202
  22.6030755  41.3188076  22.0952559  22.4774742  41.2741232  21.1473846
  23.0214477  42.1671915  22.2416925  42.6004644  17.0100528  52.6577914
  43.1670829  17.4248034  52.0072866  43.1883749  16.4512139  53.1660164
  32.2032332  14.8718524   7.7776498  32.1641922  15.7959354   7.5311184
  33.1046534  14.7402358   8.0715007  66.2640656  70.3591273   5.7284564
  67.1139521  70.7513908   5.9285915  65.7430727  70.5001412   6.5189713
   9.3303090  21.6443563  51.0609913   9.6954876  22.3853755  50.5774975
   8.8545901  22.0443749  51.7889404  34.3180084  21.0677576  19.7193003
  33.4963322  20.9006381  19.2576134  34.9988890  20.8569217  19.0804100
  69.5830936  68.7483392  36.8329620  69.7250612  68.8794694  35.8954740
  68.9318461  69.4081579  37.0711780  82.4638362  42.3738370  61.7858458
  83.1461353  42.9846988  61.5073729  81.7008514  42.6103125  61.2584305
  40.6938314  22.2554183  10.3378057  41.0207415  22.6481724  11.1471915
  40.6741619  22.9789305   9.7114098  42.2167015   5.0264794  37.2182846
  42.0561218   5.9481108  37.0156980  41.8832874   4.5522073  36.4566207
   5.8238292   8.5656661   5.4851025   6.7688942   8.6483467   5.3576344
   5.4570979   9.3471736   5.0715983  65.2299023  15.9292519  52.3471546
  64.4004869  15.5851495  52.0156479  64.9831104  16.4621472  53.1030321
  14.8501515  17.4167800   6.8479353  14.8373187  16.7385602   7.5232768
  13.9272606  17.5724494   6.6472596  20.1824379  31.8037915  33.6594796
  20.7236600  31.4605188  34.3704462  20.8080220  32.0381832  32.9739594
  27.4579954  29.6682763  16.9233525  26.7633605  30.2658510  17.2001529
  27.0876670  29.2010045  16.1745238  50.7167967  55.2347594  68.4805535
  50.2001198  55.5785173  69.2093257  51.6238841  55.2966279  68.7798808
  14.2606844  76.5065105  37.3100114  14.1629375  77.3490671  36.8664169
  13.4064544  76.0852278  37.2148895  80.6209281  16.0370553  12.9636085
  80.3679872  15.8660281  13.8708031  81.5573400  15.8407283  12.9349697
  22.7206302  15.5642283  32.7355123  22.6248193  15.3675449  31.8036485
  22.0217419  16.1914241  32.9210138  13.9762485  35.1361823  24.0651727
  14.3577909  35.7057858  23.3971858  13.8477564  34.2983198  23.6205292
  31.8861485  33.8727999  34.6308184  30.9521794  33.9977217  34.4625068
  31.9170833  33.2725453  35.3757811   0.8921374   7.6228281  66.4781005
   1.5864218   8.0633016  65.9880144   1.0305942   7.8938528  67.3856289
  64.8863048  76.6132993  12.3021328  64.5451141  77.3210845  12.8488147
  64.6502365  75.8131243  12.7714133  83.8119240  60.8298037  55.2141809
  84.2977066  60.0382982  54.9823046  82.8931470  60.5921517  55.0892782
  20.5141568  50.2500486  19.5999551  19.7468674  50.3115177  19.0309918
  20.1619053  49.9835491  20.4491472  30.2506042  51.9587612  31.1173749
  29.5015860  52.4869633  30.8413172  30.7198310  52.5150633  31.7391372
  23.3375335  41.8313837  28.2482743  22.7647829  41.9966841  27.4993634
  24.1954875  42.1507835  27.9687524  34.5206881  31.1008286  18.9605939
  34.8048449  31.9020867  18.5207391  33.9780736  31.4062262  19.6875966
  63.1173285  35.9102696  63.3362485  62.1761855  36.0653925  63.4163768
  63.4461006  35.9634766  64.2336393  51.5995534  58.4434873  68.6773305
  52.1526226  58.8866228  68.0339188  52.2075327  57.9090542  69.1881847
  16.1267484  75.9464777  10.6333923  16.3123716  76.7705862  11.0835266
  15.3765977  76.1436335  10.0724638   2.5621486  26.9592142  36.9615865
   2.2472514  26.2606692  36.3879108   2.1108425  26.8087244  37.7921939
  71.5050548  30.7869172  37.1276307  70.7897550  31.2684751  36.7120838
  72.0453459  30.4837394  36.3979745  18.1359887  27.6255822  17.8711915
  17.9241168  27.0529294  18.6083555  18.8014579  28.2217813  18.2145989
  11.3387764  43.6333847  49.4703341  10.5112755  43.9549208  49.8282290
  11.0801387  43.0329609  48.7711668  23.0802870  33.8844633  16.4811707
  22.3832655  34.4969392  16.7162597  23.5832000  33.7728238  17.2879207
   9.0632790  76.9350958  17.2762215   9.6359646  76.2095928  17.5250244
   9.6077257  77.4890041  16.7167580  82.7235654  27.3261309  19.9169374
  82.1616766  27.4821711  19.1578829  82.3356578  26.5655971  20.3497744
  68.4861285  28.7332129  13.0277038  67.9127759  28.0192780  12.7487826
  69.3715733  28.3887815  12.9111433  39.7101641  22.4096847   4.8437399
  39.1632128  23.0264521   5.3302324  40.4944277  22.9104781   4.6193209
   3.7822139  55.4568529  34.9086690   3.5706985  54.8198843  35.5911350
   3.7930954  56.2995100  35.3625917  22.2466874  30.1622415  21.3721585
  22.6210022  30.7891154  21.9911504  22.3423290  29.3132377  21.8037581
  82.8912535   8.9015442  36.0670233  82.2830099   9.5853245  35.7864594
  83.7590092   9.2720288  35.9058619  11.0518205  12.5858092   8.7784183
  10.4941106  13.2320249   9.2115420  11.8439758  13.0703568   8.5461760
  84.5940083  52.0600271  17.4696434  85.3871315  52.0162630  16.9355345
  84.3968450  52.9947853  17.5295174  47.4181446  49.5590955  59.0493262
  46.9383379  49.7570330  58.2450641  47.6628419  48.6378610  58.9616776
  65.6043911  15.1635683  68.3193827  64.6911955  15.3814828  68.1327915
  65.9889317  14.9876750  67.4606514  41.9761753  22.7206230  24.8269844
  41.8446970  21.7809367  24.7007418  41.1179686  23.0485868  25.0956059
  24.2262244  15.9971476   0.6675856  24.1643524  16.6319668   1.3813147
  24.8028255  15.3120112   1.0057427  59.6811581  31.4099503  20.7541323
  58.8545799  31.4687300  21.2332439  59.4819498  30.8551049  20.0000143
  67.0902784  28.3577677  58.8524807  68.0148024  28.1792780  58.6803520
  67.0972879  28.9649196  59.5924462  52.7709007  11.3196278   4.2441580
  52.6627684  11.1880660   5.1860869  53.3798027  10.6320095   3.9746234
  24.8411560  29.4446063  22.8920412  25.1963615  30.0116086  23.5765624
  25.2241158  29.7793174  22.0811510  40.1886415   4.8841444  35.2662849
  40.1507950   3.9607695  35.5156422  39.2788720   5.1795048  35.3025246
  72.5090749   3.1677147  68.0496751  73.1725914   2.4813505  68.1195583
  72.7279646   3.7844606  68.7482025  77.5925034  50.8829260  42.2666264
  78.1105435  50.8411598  41.4628077  76.7607552  50.4683733  42.0373392
  20.4243445  21.6229701  22.9547715  20.4218411  21.0586929  23.7279582
  20.2279019  21.0329986  22.2270536  29.0975928  48.6327076  30.6920218
  28.4592152  49.3056583  30.4557180  29.8813844  48.8598680  30.1917267
  80.5332322  72.9167853  46.5939045  79.9873848  72.5371001  47.2824669
  81.4263029  72.8492771  46.9316864   0.9121291  17.2183311  28.8977480
   1.4143535  16.4430690  29.1486883   0.3328145  17.3798060  29.6424317
  11.9789052  36.1246657  16.1206150  12.0212865  35.3355837  15.5804431
  12.8804564  36.2657928  16.4096117  44.8542690  18.4399450  53.8038254
  45.0114536  17.5096834  53.9654970  45.7284546  18.8165486  53.7028217
   5.5503911  26.9508314  40.8030319   6.2470490  26.3415432  40.5587626
   5.9076482  27.8159475  40.6025934  25.8132375  75.4128546  27.7007174
  24.8908628  75.3975282  27.4453306  26.2597955  74.9156604  27.0154333
   2.0237623  27.1325636  17.2909462   2.0574158  26.6507792  16.4645183
   2.4014291  27.9877090  17.0852101  67.1348542  27.7436233   8.7613887
  67.1870989  26.7883587   8.7302119  66.5396994  27.9743505   8.0480957
   4.2729553  56.1036688  61.5950609   3.6826070  56.0361439  60.8446205
   5.1322945  56.2737149  61.2092466  77.1171379   4.2498580   6.6644746
  77.5269890   3.3870941   6.6020840  76.9702435   4.3780354   7.6016110
  68.2658201   1.5571129   2.8395432  67.5659281   1.3108075   3.4442881
  68.0557662   2.4550697   2.5830629  48.0875349  17.4988663  35.6913447
  47.8256893  17.5977945  34.7759843  48.7162828  18.2054830  35.8383155
  27.7621889   2.9008856  21.7256999  28.1290722   3.7735301  21.8675470
  27.8895354   2.4490315  22.5598717  35.6235194   8.9995325  41.4932442
  36.1799574   9.6277016  41.9536924  34.7310328   9.2508620  41.7310047
  15.6813931  35.3173208   9.2971063  15.5919755  36.2003541   9.6555591
  15.0868309  34.7835326   9.8241723  40.4041481  35.4020166  32.5306845
  39.4625950  35.2321005  32.5597262  40.5332565  36.1380816  33.1288242
  15.8351803   4.1501570  51.1625910  16.2924802   4.9739373  51.3313961
  15.2785158   4.0234342  51.9308996  37.8625035  36.3915873   6.5015173
  36.9839931  36.3779831   6.1216968  38.1526732  37.2982478   6.4014965
  55.0436529  72.7335530  55.2601648  54.1958889  73.1749755  55.3118587
  55.3388532  72.8862458  54.3625165  58.7749320  38.2784677  16.6238570
  57.8865892  37.9270577  16.6837561  58.6643273  39.2252803  16.7107320
  80.1426978  74.9311707  17.4669576  80.7001037  74.3064753  17.9309475
  80.7561202  75.5001528  17.0019794  60.1923569  55.9375554  63.4816737
  59.4213756  56.4280552  63.1966699  60.9297427  56.3933629  63.0757988
  37.1014309  19.2740703  15.8303285  37.0001554  19.7468066  15.0041962
  37.9023552  18.7623370  15.7168269  39.2575383  32.2764063  12.0802808
  39.3131852  32.6688504  11.2090039  38.9103508  32.9744434  12.6356518
  14.2551708  20.1342773  46.3667870  13.5401940  19.9396574  46.9727278
  14.5855999  19.2756581  46.1025429  40.9198189  43.1859398  33.2489228
  40.9394884  42.8288984  34.1368222  40.6395531  42.4521780  32.7018619
  39.3260598  19.1950917  18.4891391  39.3956304  18.8237405  17.6096559
  39.3108273  20.1418352  18.3488607  28.9006996  22.3030114  28.7803173
  28.6458755  21.4802432  29.1978693  28.0776834  22.7779007  28.6647344
  29.3407655   3.6835676  60.8432579  29.3882418   3.6808655  59.8872375
  28.5013795   4.0993497  61.0402060  19.0257228  72.4882624   5.4983300
  19.9533237  72.4688260   5.7337213  18.8265289  71.5897713   5.2351433
  38.5191928  24.7579006   6.2446880  37.6160531  24.8609273   6.5446138
  38.5436820  25.2070359   5.3997564   3.6000651   5.2080464   3.1738451
   4.3743759   5.7253736   2.9523787   3.8900387   4.6345586   3.8832524
  28.3294010   0.2153666  44.4580269  28.5793066   0.9693434  44.9921608
  29.0010095  -0.4414595  44.6417522  11.2440517  74.3285042  65.4286042
  11.5017440  74.8833209  66.1648143  10.3211333  74.1314799  65.5887229
   9.6742023  71.3966344  44.7250271   9.8890794  72.1130792  44.1277266
   9.8700060  71.7435412  45.5954027  20.8060217  45.4900599  41.3360977
  20.7458425  44.5832443  41.6365910  20.1129889  45.5717611  40.6809139
   2.1526173   5.4209381  41.6825104   1.7914040   6.3012969  41.7860794
   2.7794641   5.5022788  40.9637070  52.8127861  22.0529127  12.8514218
  52.5748348  22.8781366  12.4287879  51.9862366  21.5764093  12.9288340
  40.2232369  45.4900712  59.2281163  39.5696934  44.8792589  58.8874984
  39.8296162  45.8411270  60.0268996  49.9205971  55.2852774  22.4607015
  49.8868227  55.8768559  23.2124519  50.8430338  55.2749681  22.2052860
  49.4207525  21.9953752  14.0317047  49.3741798  21.2063146  13.4918451
  49.9652195  22.5993133  13.5266829  31.3693476  47.1106958  28.2141280
  31.0141706  47.6946545  27.5440001  31.3174319  47.6168966  29.0248680
  76.9820900  75.6768004  24.9959874  77.9237194  75.8317004  25.0706196
  76.6627724  75.7032860  25.8979678  39.0343499  28.6085296  41.9417143
  38.2706666  28.5552120  41.3671017  39.2381740  27.6977658  42.1543121
  84.1268339  72.3572951  61.7312527  83.2440271  72.2430640  62.0831556
  84.5158520  73.0403811  62.2774143  77.6681483  19.2154825   7.1423119
  77.4428380  18.4987366   7.7353907  78.2626426  18.8206363   6.5044212
  43.2709932  19.9621022  51.8195581  42.4253035  20.2600431  52.1546221
  43.5939693  19.3577504  52.4878979  57.8855740  41.8180711   8.2977104
  58.7377297  41.3971433   8.1842136  57.9715716  42.6582773   7.8472804
  19.3125629   1.0029383  26.4084029  19.0332913   1.4663078  27.1980405
  20.0225973   0.4329365  26.7036676  84.4494791  14.5888758   5.9161079
  84.1021539  14.2481744   6.7404377  84.6794256  13.8082016   5.4122186
  12.9704679  76.1313228  12.8174889  13.3430112  75.3406982  13.2078195
  13.7031091  76.7459182  12.7757668  42.9133654  13.2550395  41.2068939
  42.3524237  13.2383931  40.4314613  43.4995556  13.9978600  41.0625601
  41.7026567  17.1395540  16.6939211  42.3628283  17.7816391  16.9549370
  41.5806055  16.5925467  17.4698842  64.0448284  18.3129203   7.6315111
  64.5364285  19.1342342   7.6311880  64.4720030  17.7783525   8.3008301
  78.6051440  33.5742140  10.9329915  77.7089208  33.8096833  11.1729288
  78.8545573  32.9028106  11.5680063  18.0843222  10.8285475  31.9530463
  17.9129100  10.7464361  31.0149074  17.5772595  10.1214504  32.3519611
  40.1741743  30.2960539  33.5528803  39.9808812  29.5635295  32.9678369
  41.1113405  30.4534388  33.4380579  34.8227644   3.7714431  18.9771008
  35.2220583   3.7567589  19.8469174  34.3447685   4.6002024  18.9469445
  43.6454821   3.0648381  28.9297962  44.0950966   3.2466483  28.1045556
  42.7606201   3.4063008  28.8007379  79.7999258  79.3776775  31.8739915
  79.0248961  79.2065708  31.3389373  79.5450826  79.1104052  32.7570844
  17.4091923  14.2302895  34.0394402  18.0887306  14.8832715  34.2069912
  17.8293729  13.3922827  34.2328978  60.3681525  76.6737586  58.0559445
  60.7877382  77.1597081  57.3459936  60.1626285  75.8206898  57.6734949
  23.7970090  24.7631907  22.4694157  24.2039490  24.3206191  23.2142401
  22.9206920  24.3821073  22.4139524  78.1614471  18.6348915  27.3751068
  78.6645657  18.5885942  28.1881022  78.8006926  18.8964915  26.7124128
  80.7444096  23.9680743  35.3287816  79.8570442  24.0336323  34.9759126
  80.6197739  23.8576221  36.2713838  26.7140841  17.0565248  56.9951773
  25.8355856  16.9118524  56.6436911  27.2542334  17.2327805  56.2248468
  23.8419485  10.5549526  23.3123755  23.9874339  10.9815168  24.1568351
  23.4157014  11.2237930  22.7764702  29.2022061  12.7368641   1.8467644
  30.1587868  12.7371562   1.8811436  28.9362812  13.3014703   2.5725314
  42.4150181  19.4271326  48.6014032  42.7497053  18.5405958  48.7365580
  42.7474165  19.9250853  49.3482542  71.4123305  52.2851866  59.7778726
  71.2710579  52.0290095  60.6892712  71.0234602  53.1572896  59.7111768
  24.0995526  45.9390593   8.6552995  24.1571093  45.0414085   8.3279741
  24.5192361  45.9078789   9.5150226  12.1911645   3.6173707   7.2513080
  11.7638624   3.9588791   6.4658040  12.6489747   4.3717834   7.6221216
  37.0768656  76.9214731  54.4094718  37.3387941  77.1114522  53.5086203
  37.5448682  77.5690347  54.9366034  30.9004569   9.2193931  56.1915350
  31.6131854   9.8583102  56.1855984  31.1056972   8.6249143  55.4699373
  27.4477339  33.1570339   1.5312208  27.4097395  32.9250526   0.6033345
  26.7436743  32.6489282   1.9341607  72.4286694  73.0997346  28.5121655
  72.0596273  73.8948015  28.8967538  71.7234881  72.4552224  28.5717797
  21.4635563  17.5778270  29.0114188  21.2978649  17.5810397  28.0686736
  21.5487552  16.6513693  29.2364717  36.7754104  68.9272004  61.3342870
  37.0338287  68.4525067  62.1242977  36.6719820  69.8340088  61.6227937
  23.4772706  20.3341484  17.0788598  23.6386085  19.6263433  16.4549899
  23.8417339  20.0138569  17.9039741  33.6879420   3.2382214  32.8995323
  33.0596256   3.9443848  33.0504751  34.0459061   3.4178972  32.0301604
  23.8749313  11.7078304  52.1696711  24.5998836  12.3326409  52.1526527
  23.9207602  11.3114250  53.0397272   9.9039239  29.7400022  34.7948837
   9.2867953  29.0096474  34.8392034   9.8095733  30.1847434  35.6372213
  35.6415176  38.4015131  54.7704029  36.5727258  38.5799766  54.9016857
  35.4515648  37.6731062  55.3616524  18.2836175  44.5677757  49.3411255
  18.0635893  45.4756641  49.1324043  19.2397201  44.5572186  49.3857050
  54.4204092  13.0627990  29.0909767  53.6052799  12.8003514  28.6632824
  54.5523834  13.9708006  28.8183069  75.7079124  26.9412613  38.7459278
  76.3137716  26.3431454  39.1834474  75.4340047  26.4710689  37.9584455
  37.4618220  48.3147001  18.0246150  36.8089175  48.7733173  18.5534060
  37.0926547  47.4414825  17.8925788  30.8104515  16.3015175  11.0907292
  30.5815649  16.4343655  12.0106173  31.7386556  16.0682106  11.1061525
  11.6658044  13.7512076  18.6466730  12.0226550  14.3112803  19.3360269
  10.8553219  14.1855431  18.3807743  18.8587677  20.5737662  17.0411396
  18.6613202  19.8611009  16.4333928  18.0030704  20.8602858  17.3603892
  68.9239115  10.4345381  38.1343699  69.0253526  11.3863277  38.1282330
  69.6858698  10.1155746  38.6180162  -0.0303494  68.2925663  37.3308420
  -0.4507648  68.1067191  38.1704521   0.9048117  68.3229790  37.5327778
  20.5873513  12.4832821  28.3626819  20.0580096  13.2423675  28.6072659
  20.9160280  12.6921952  27.4882936  35.0632872  57.3379725  64.6191890
  35.4292860  57.3034125  63.7353999  35.2168574  58.2378679  64.9070031
   1.5746333  63.2381374  58.1958712   2.1065166  62.9652482  58.9434434
   0.9041908  62.5593597  58.1184245  30.1268172  58.0921078  37.4049211
  29.3950868  58.6956978  37.2765398  30.8905292  58.6599541  37.5075340
  20.6232834  36.1272550  16.5901375  21.2552404  36.2821317  15.8880877
  21.1611867  35.9645033  17.3649931  22.2344303   3.3480808  48.8288927
  21.5637827   3.9228851  49.1977644  22.8161311   3.9366502  48.3478117
  40.7879496  33.0126905  17.4892986  40.4833126  32.2513080  16.9956136
  41.6801786  33.1602049  17.1756184  20.6804967   1.9462065  37.2224450
  20.0723028   1.3472193  37.6555133  20.1381254   2.4284136  36.5983129
  15.0584650  35.9564209  19.0899718  15.0055230  36.1774969  20.0197864
  14.8347962  36.7696309  18.6373198  39.7551012  28.3833599  15.2445865
  39.6549869  27.8430176  16.0283184  39.4634581  29.2540002  15.5150700
   5.3898657  39.1411362  31.7837930   5.3644241  38.2416497  32.1101451
   5.1206792  39.6748696  32.5313854  59.5043516  22.8020000   5.4609847
  59.3883038  23.7270570   5.2441132  58.6255455  22.4284196   5.3948659
  50.0846720   8.6881846  21.3006783  50.2514029   9.4285733  20.7173634
  50.4216814   7.9284948  20.8257818  69.7950120  78.4817790  30.0288391
  70.3783829  78.3597114  29.2798328  69.9814374  77.7376933  30.6013894
  19.5723022  72.4311368  43.4740829  18.8638319  71.8050526  43.6234760
  20.2395118  72.1961902  44.1189575  27.9191936  76.3358278   5.2928466
  27.7565826  75.9658421   4.4251490  27.1398462  76.1086015   5.8000100
  25.0704122  14.3624127  33.8575768  24.7567296  13.5219228  34.1913605
  24.2905784  14.7818577  33.4940386  24.9610615  30.9769297  17.3851156
  24.6687031  30.0690031  17.3049366  24.1606188  31.4947701  17.2992778
  62.7924072   7.3196963   7.2581195  62.5274693   6.4273671   7.0349788
  63.2334291   7.2343115   8.1033658  48.6503792  10.1896536  15.8365917
  48.8339710  10.9935069  16.3227463  48.7311888   9.4924027  16.4873922
  76.9244189  77.7095015  23.1620955  77.3304815  78.3851344  23.7051129
  76.7671914  76.9814599  23.7633181  17.9605711  34.0445495  20.5272698
  18.4300649  33.2267141  20.3630948  17.3023498  33.8153076  21.1833382
   5.4409379  35.4355073  22.0013714   5.0381106  36.1750007  22.4564672
   5.3898144  34.7127199  22.6268291  38.9611658  55.3010338  68.3491499
  38.3571466  54.9737519  69.0156920  39.6425112  54.6310204  68.2936411
  67.5401783  32.2587109  11.8460166  67.4863768  31.8366241  12.7034426
  67.3301315  31.5630388  11.2229955  74.4619513  11.6603148  63.9194059
  74.3095589  10.8809555  63.3849859  75.0241566  12.2152328  63.3788300
  28.3317018  49.9066687  23.6117935  29.2122197  50.2459240  23.7724996
  27.9728770  50.4821777  22.9363179  61.7934961  74.1818420  10.0767756
  62.5781948  73.6691747  10.2708149  61.4738743  74.4641624  10.9337282
  13.2190704  45.0353146  15.3403449  13.9622450  45.5008078  15.7240605
  12.5230408  45.1165295  15.9924018  28.1092418  73.1594322  37.4166036
  28.2932390  72.3050568  37.0261955  27.2662891  73.4168432  37.0432329
  84.9190956  17.7159142  15.8574343  85.6367875  17.1610165  15.5520844
  84.7765365  18.3374953  15.1436102  67.2190857  23.4046268  10.4592252
  66.3561964  23.2023740  10.0976300  67.5312281  22.5721931  10.8139837
  41.6149950  23.9994550   4.8415267  42.0929718  24.7194266   4.4299349
  41.4690351  24.2921901   5.7411003  10.0945389   5.7334405  15.5890858
  10.9833622   5.4253250  15.7659709  10.2093244   6.4508981  14.9659395
  31.0007143  39.7232747   0.8120753  30.9435296  39.2182970   0.0009276
  31.9400406  39.8102045   0.9743749  69.8609734  31.6519237  16.7313051
  70.0453424  30.7284546  16.9029057  69.1414070  31.8668127  17.3248363
  23.9541173  29.9892139  34.1315246  23.4565449  29.3298697  34.6151757
  24.3813705  29.4991708  33.4289980  35.5077746  70.5817276  65.4690484
  34.7888859  70.6115371  64.8377461  36.2968447  70.6940037  64.9389604
   5.5190290  59.5415817  42.5991154   5.7452191  60.1728568  43.2821655
   6.1587156  58.8370977  42.7027273  26.1237717   6.9068980  30.5774283
  26.2761927   6.8058211  29.6378613  26.4834046   6.1092579  30.9655857
  44.6645260  39.1803765  33.4983683  45.3760767  38.5444784  33.4237766
  44.9028397  39.7190666  34.2528558  81.3292652  30.9072685  48.0600071
  80.4943228  31.3183713  48.2838297  81.2656876  30.7315969  47.1212149
  15.4605138  35.8322453   3.4280062  15.3180945  35.0299740   3.9303100
  14.8390961  35.7739472   2.7022833  22.3849773  50.1529121  38.2655835
  21.8810391  49.3882990  37.9869390  22.9985094  50.3099489  37.5478458
  26.7961073  27.7371550  19.7135460  26.5912223  27.4528360  20.6042862
  27.7526331  27.7522898  19.6810114  27.6452065  61.1564159  19.8104501
  28.5515356  61.3788652  19.5975828  27.5466347  60.2496338  19.5201719
  22.3204875  32.0523691  23.3997178  23.2715487  32.1576524  23.3746314
  22.1117449  31.9824314  24.3312597   8.5892218  41.4946508  12.9441822
   7.8442538  41.0907888  13.3893251   9.0191621  42.0162535  13.6219096
  23.6844325  35.2857900  26.7558932  22.8647256  35.5281067  26.3250852
  23.5955095  35.6234026  27.6471496  48.4398413  14.7823739  35.3615427
  49.1461706  14.3440008  35.8360577  48.2776833  15.5834174  35.8598065
  34.9824381  34.6252322  41.5334702  34.6729469  34.1501451  42.3046637
  34.3326926  35.3154635  41.4006472  42.2847128  21.1693811  44.3740034
  42.4786234  21.7805672  43.6633110  42.1741533  20.3238082  43.9392471
  71.3497019   0.4494339  12.9218686  71.4243603   1.3051510  13.3442497
  71.2619495   0.6492072  11.9898689  34.4158006  29.1229153  14.9327743
  34.8737812  28.8852453  15.7389998  33.4874964  29.0443826  15.1525879
  30.0223541  41.6559219  32.3501825  30.0356221  41.8137407  33.2941890
  30.8347106  42.0483303  32.0303011  55.9976959  20.7156372  53.8712025
  56.9058084  20.9105635  53.6397457  55.8884621  19.7899389  53.6535358
  21.5645027  17.6901698  26.2098742  22.4947190  17.9052508  26.1415410
  21.3054252  17.4611712  25.3173089  74.5685148  34.7053909   5.0234103
  74.5146322  33.7714314   5.2260184  73.7424469  35.0679421   5.3434175
  14.5535183   4.6536836  19.6662438  14.6607029   3.9083990  19.0752327
  13.6983645   5.0186706  19.4388068   4.0487102  11.0275066  49.4191265
   4.4121468  11.8800378  49.1796780   4.5193535  10.4029298  48.8671923
  11.4434803  47.3454428  10.7722342  11.9899213  47.1521378  11.5339875
  10.5494452  47.3514891  11.1141360  43.6474991  38.8138103  37.7905774
  43.5923100  38.2620096  38.5707736  44.0459633  39.6271968  38.1001878
  11.8629885  15.0165880  30.7220292  11.7959452  14.3931818  31.4452887
  12.7746749  14.9554503  30.4368591  53.0967379  35.9430051   5.0810766
  53.3769464  35.8566546   5.9922612  53.7314749  35.4257917   4.5852599
  26.4196110  12.8960121  30.5901933  25.5683637  12.6571894  30.9570384
  27.0397949  12.3083508  31.0217690  65.1593898   6.0306734   5.0583314
  65.0497303   6.8407720   5.5562734  64.3431751   5.9393638   4.5667171
  46.6815615  34.7511339  67.0083332  45.7326889  34.8713064  66.9704628
  46.8007946  33.9411020  67.5041771  42.6067543  34.9504638  27.3561692
  42.4341679  34.0401530  27.5965476  43.4545565  34.9244356  26.9125652
  27.0277047  32.6759768  28.4219170  27.6581812  33.3559823  28.6592412
  26.7393661  32.3137736  29.2597127  59.3450499  28.1907368  19.5114160
  59.8792028  28.2924294  20.2991796  58.4562922  28.0561423  19.8403955
  22.0776391  56.9321680  27.9435635  21.2012076  56.6678047  27.6638961
  22.6000047  56.1324120  27.8823137  84.4340985  55.3452158  30.8984828
  83.8076741  54.6627808  31.1395359  83.8906731  56.0750103  30.6013060
  23.6882401  42.9480505  34.6793580  23.7576628  42.2791767  33.9981699
  22.8259778  42.8042030  35.0692868  12.8818798  42.2252274  41.6247892
  12.2043574  42.8991985  41.6791868  12.4567950  41.4315128  41.9496775
  21.7036057  18.5249305  13.2160425  21.6736221  19.2341709  13.8581574
  20.9030294  18.6327422  12.7025390   0.1661565  47.2338676  48.3582879
   0.0733402  48.1067920  47.9766870   0.4899432  46.6913247  47.6392317
  68.7826117  64.1499263  61.9118649  68.5264500  63.5668379  62.6264418
  68.6156901  63.6428052  61.1173857  34.3774152  46.5064192  37.8201556
  33.9562559  46.1824989  38.6163545  33.6713958  46.5464687  37.1750474
  49.5377146  67.5416259   3.9210462  50.2171527  68.1853871   4.1214609
  49.4152700  67.6095156   2.9741430  44.7252607  35.2347207  34.8602629
  45.0518370  34.4630790  35.3230238  43.9173889  35.4650784  35.3190804
  45.3283167  13.6576462   0.9444474  46.1202097  13.5508883   1.4714608
  45.6056404  14.1933382   0.2012395  77.9496765  47.2434235  37.6026487
  78.7858683  47.0943689  38.0440092  77.6003701  46.3656569  37.4485612
   9.3078059  35.0092220  37.5086546   8.4549105  35.0472212  37.0758057
   9.4063193  35.8680892  37.9195976  11.2108898  40.6405735   6.9755518
  10.2537525  40.6483841   6.9678181  11.4397478  39.9610972   7.6097190
  43.5523653  21.1325788  16.4118493  43.7165785  21.5407991  15.5617774
  42.6084423  20.9741044  16.4230955  19.7534752  54.6264505  10.9141695
  19.5111859  53.7004423  10.9199059  19.7033870  54.8814297   9.9929148
   7.0461255  49.0572262  39.3469667   6.2782300  48.8629103  39.8843789
   6.9400847  49.9762201  39.1011310  13.6239923   7.0708700  66.1656562
  13.5696996   7.6935526  65.4407094  14.4172300   6.5653559  65.9882916
  47.0914125  15.3007615  28.0704045  47.1203566  14.3487668  27.9750061
  47.4170589  15.4627573  28.9558101  37.3396754  50.1951265  28.5669351
  37.6814127  49.4726706  29.0937161  36.4936709  50.4018927  28.9641190
  31.9041610  37.7651215  25.0696445  32.3349833  37.6254392  24.2263699
  31.1223197  37.2140884  25.0333524  83.4880885  69.4290024  58.2858575
  83.2871159  68.7229806  57.6715506  82.7672442  69.4111806  58.9153767
   7.3233157  28.6997271  26.3684225   7.7861834  29.1693354  27.0622921
   6.6872633  29.3321896  26.0342646  68.0548763  41.6010427  12.3494565
  67.8590059  40.7064342  12.6279187  67.9566240  42.1260691  13.1437659
  31.0997176   3.5577521  31.0970283  30.4355097   3.2373816  31.7072964
  31.8003178   3.8899797  31.6582918  29.5025873  36.0100365  31.3209915
  30.3742337  36.3443995  31.5323377  28.9610481  36.7939878  31.2294221
  24.4916701  25.1671314  28.9838147  24.3344903  24.3065381  29.3722796
  23.6674213  25.3884125  28.5503626  49.0152407  72.8851223  19.6320355
  49.2960978  71.9726324  19.7007239  48.5428667  72.9283905  18.8006365
  13.1475949  40.4672241   2.3166236  14.0168762  40.4576206   2.7172345
  12.6204014  39.8954058   2.8745875   5.3015333  55.6004047   4.0090311
   5.6151158  55.7149553   3.1119379   6.0907149  55.6573200   4.5477194
  51.5420485  16.5014553  10.0472331  51.8164253  17.3859096   9.8049772
  50.7622147  16.3388073   9.5165384   1.7675608  17.4642551  12.3659837
   1.5242001  16.6246808  12.7560127   2.5146732  17.2595549  11.8037093
   5.6784499  26.1382914  56.5737629   5.1617175  25.7365704  57.2722197
   5.5562264  27.0796824  56.6965485  47.3076963  54.9334049  16.2141705
  46.9113588  55.4676008  16.9024920  46.8044329  55.1442194  15.4277122
  78.1507492  18.3591056  44.7603035  78.3636403  17.6527631  44.1503954
  78.4132254  18.0228746  45.6172085  34.7518945  23.1144309  39.7082853
  34.9697828  22.1827650  39.6807361  34.0037346  23.1679511  40.3029442
  10.2851057  30.9126520  60.0347137  10.5551016  30.2672219  59.3814468
  10.4936683  31.7578650  59.6367788  58.0351734  26.2375808  15.1310456
  57.6086807  27.0742846  14.9459422  58.4961510  26.3813877  15.9575129
  42.3817444  20.5736446  36.9700575  41.8800640  21.2583375  37.4124861
  42.1122169  19.7626901  37.4012637  33.1793976  25.8553791  13.7122047
  32.9713559  26.7554212  13.9629555  32.4572802  25.5927682  13.1414032
  50.8929205  35.2780104  23.0978513  50.2265120  35.8941507  22.7937055
  50.3946257  34.5350146  23.4382796   9.4916642  28.3230495  38.6601710
   8.9271039  27.5922370  38.4083509   9.1315317  29.0762806  38.1920028
  35.5083132  73.2992697  31.5147376  35.6459212  73.7912083  30.7052374
  36.0698700  73.7331676  32.1570921  15.3535497  46.3334179  37.3300672
  14.4254518  46.2035990  37.5250387  15.7951355  45.6096125  37.7743006
  45.0540209  40.4256773  35.7635474  44.2665148  40.2242756  36.2690187
  45.6921625  40.7105064  36.4176750  47.1480560  72.8682423  40.1497173
  46.3679647  72.9797316  40.6930923  47.8800058  72.9618931  40.7594013
  53.9491987  15.6866419  18.9565337  54.6555281  16.3322365  18.9334440
  53.7258911  15.6090140  19.8840785  23.6502886  42.0944834  45.3755999
  24.4011545  42.3615885  45.9057760  22.9452133  41.9608974  46.0090446
  11.9075692  46.6095543  17.3521507  12.2624755  47.3576069  16.8718505
  11.0022688  46.8550682  17.5429070  42.1255350  40.1940680  27.4834204
  41.6714382  40.7827520  26.8805242  42.0279312  39.3267727  27.0903492
  51.0640335  42.9705000   9.4415742  51.0697079  43.3652401   8.5695755
  50.6055927  42.1383762   9.3248165  46.9510651  38.3958483  36.4588332
  47.0973825  39.2602062  36.8431616  46.2246370  38.5247445  35.8489776
  30.8531928  56.3214207  23.0234432  31.2123895  57.1686983  23.2867455
  31.4164734  56.0355330  22.3042655  57.7225256  48.3443022  15.5218863
  58.4273100  48.2489347  16.1625266  57.0512772  47.7259159  15.8104277
  83.3251905  36.1050010  27.1359110  82.9013605  36.9546843  27.0149088
  84.2621529  36.2973261  27.0992351  19.7395528  17.1750255  45.2442003
  20.3246082  16.7658516  44.6066118  18.9471353  16.6385885  45.2209044
  83.0310912  79.6089293   2.0922539  82.4764843  80.3586105   2.3081714
  83.7203760  79.9730282   1.5367806  40.9313822  42.4645662  36.3566780
  41.4613533  42.5407791  37.1501207  41.0288668  41.5503216  36.0904336
  28.2602119  27.4583268  29.7510958  27.6140738  26.7537904  29.7997379
  28.8555264  27.2881651  30.4810786  35.7500982  39.3690443  28.1973553
  35.8639646  39.6743441  29.0973878  36.5064955  39.7205162  27.7277136
  16.9590807  21.1647701   1.5046984  16.6576672  20.2932286   1.2481824
  16.5001798  21.3450480   2.3251499  64.0167570  28.3486724  27.6227880
  63.3700418  28.9801788  27.9377389  64.6846294  28.3277750  28.3081651
  25.3121233  68.7002325  34.0666008  26.2454653  68.7035131  34.2789555
  25.0865841  69.6248102  33.9640141   2.5639516  42.2610855  57.9855204
   1.6419095  42.1875429  57.7392244   3.0212319  41.6795588  57.3781061
  32.3142028  31.2556243  20.7488918  32.8484273  31.4623070  21.5157795
  31.5269065  31.7897177  20.8544421  29.9254966  78.2589531  59.2964411
  30.8311105  78.1153059  59.5711470  29.7072172  77.4852324  58.7768793
  14.9595213  47.7972126  11.6891479  14.2741585  47.7746105  12.3569798
  14.9058902  48.6790133  11.3206613  28.5704613  51.5409184  39.0204763
  29.4553542  51.8788052  38.8825369  28.6869216  50.8004093  39.6157193
  47.3522091  42.6333284  11.8808889  48.0023718  43.1869936  12.3132968
  47.1641779  41.9432449  12.5170171  15.0349021  61.6555595  43.2290840
  15.3559995  62.2539568  42.5545120  15.6935966  61.7002869  43.9221621
  15.8522999  18.6250627  26.5198016  16.3286924  17.9802656  25.9968114
  15.4879117  19.2331100  25.8765817  38.6005998  17.1931529  39.1309309
  38.2482195  17.2915888  38.2464123  39.4930434  16.8732107  38.9989781
  21.2844801  64.5363760  18.4538484  22.0270920  65.1308823  18.3474362
  20.8902216  64.4873476  17.5829935  38.5261393  43.1291580  21.7565680
  38.7181878  43.8886786  21.2065840  38.4980488  43.4792089  22.6470208
  53.0432558  79.4486952  48.1481171  53.8122654  79.4474125  48.7180758
  53.1462860  78.6671925  47.6050997  43.5666084  77.5926542  27.5198841
  43.7642384  78.4710550  27.1949315  44.2394447  77.0355177  27.1285772
  52.9892778  62.7033615  32.3287868  53.2453489  63.5012484  31.8661547
  53.3468294  61.9926596  31.7965317  63.2995701  61.4409876  52.6896286
  63.1907940  60.6035995  52.2388744  63.1835318  61.2310362  53.6162853
  23.8162470  67.7462864  23.6230779  23.8729668  66.8364620  23.9150405
  22.8789854  67.9406261  23.6255264  51.8807507  67.3197603  66.2819529
  51.7459297  66.7091274  65.5572605  51.4779758  68.1359339  65.9855318
  14.8799628  51.7629910  31.4324760  14.7766227  52.6411200  31.7991328
  15.2145785  51.9106340  30.5479050  56.1788750  58.2347965  40.1115608
  56.1884260  57.2999907  39.9059439  57.0394230  58.5496902  39.8349094
  42.0013714  45.5851030  20.0828075  41.0781097  45.4685545  19.8586750
  42.4534941  44.8899126  19.6047592  44.3992567  57.5808525   7.7368939
  45.1052475  58.1648588   7.4598682  43.7937164  58.1472015   8.2152236
  68.4884262  47.3285484  50.2278280  67.6372910  47.6033545  49.8868227
  68.8869095  48.1348896  50.5553389   4.8653811  59.5328283  60.4439402
   5.4965895  60.1330090  60.8409119   5.2992743  59.2193747  59.6503973
  69.5228802  17.8532972  14.1727173  70.3063666  17.9291143  14.7173595
  69.6310650  18.5278406  13.5022545  14.9931574  69.6571016  16.6311026
  15.5355012  69.0495491  17.1340668  14.2233670  69.1439486  16.3854849
  43.2998657  70.4927444  27.4665928  43.9331388  71.1761093  27.2470236
  42.7774620  70.8689690  28.1749606   2.2762603  70.0933266  30.2202129
   1.6387099  70.2467489  30.9175110   2.8704661  70.8421040  30.2699709
  17.4528813  37.0181489  55.8186293  17.0975399  36.5150166  55.0859499
  17.9427624  37.7292609  55.4056263  50.5618525  43.7226105  11.8430889
  50.9081125  43.4839535  10.9832180  50.6760979  42.9346561  12.3744142
  75.3209006  23.2722082  40.4563236  75.3214013  24.0264120  41.0457325
  74.7735487  22.6231661  40.8983374  64.3484688  46.2757826  10.7515609
  64.2408133  45.8360004   9.9082148  64.5325375  45.5679274  11.3690424
  61.4955044  23.9391041  13.5626233  61.9337177  24.1732955  14.3807650
  60.8001709  23.3368373  13.8272333  27.5687337  50.6697464  29.6822762
  27.0989776  51.2366915  30.2939415  27.4183631  51.0664845  28.8242435
   8.3638793  25.0333405  33.9169312   7.4771547  24.7719145  34.1651416
   8.9143401  24.7277641  34.6379352  32.2721267  77.8358030  33.6068845
  32.3305941  77.4146986  34.4644880  32.7600217  78.6531401  33.7076235
  22.5329494  69.3696642  26.3316441  22.8138518  68.6041927  25.8302641
  22.1803212  69.9700069  25.6747770  40.2579880  47.2342777  64.7378683
  39.5492983  46.8203878  65.2305031  40.6046152  47.9007483  65.3310776
  36.9588447  55.0461626  41.2730503  36.5913606  54.3602610  40.7156229
  36.2473845  55.6782579  41.3755798  12.9318750  70.8382082  31.1013556
  13.7442195  71.2859154  30.8649516  12.6309407  70.4407024  30.2842498
  29.2384458  46.2235928   6.9126201  29.6170068  45.4263115   7.2831112
  28.6413360  45.9116459   6.2326342  17.2740893  14.3600263  59.7351551
  16.5003162  14.9083509  59.8649406  16.9222884  13.4892645  59.5500994
  36.1990166  54.0382051   9.1500449  36.1588812  54.7912884   8.5605639
  35.2833200  53.8309288   9.3365061  32.6140904  45.8240604   4.3141007
  32.1184039  46.4137840   3.7459868  32.5055671  44.9604321   3.9158559
  16.1727321  66.5222692   5.6367671  16.2951541  66.1007357   6.4873856
  15.9014773  67.4153900   5.8488816  15.3955035   6.8713751  31.6074395
  14.7145658   6.4147176  31.1134624  15.2918344   6.5566148  32.5054431
  66.3628769  23.4155583  48.6805725  66.8258715  22.5838017  48.5803223
  66.3754129  23.5846233  49.6226406  38.7416029  72.7747774   6.9764334
  38.9015436  73.0552769   7.8775281  38.4833002  71.8563366   7.0537555
   6.2120903  60.1474667  55.4174471   5.6316549  60.9042740  55.4984951
   5.8961123  59.6853447  54.6410275  29.6277070  64.1676235  35.5871034
  30.2427864  63.4560490  35.4094195  30.0586557  64.9488783  35.2404690
  64.6897316  58.7398529  38.4965539  65.3099298  58.0438948  38.2792187
  63.8392639  58.3017063  38.5275221   1.8284429  34.1280456  63.2297439
   2.5097431  33.7581964  63.7912381   1.5028585  34.8857828  63.7156046
  41.8791866  60.2399063  27.2334266  42.4705982  59.5105028  27.0478678
  41.4603710  60.4282904  26.3935852   8.8520396  78.9513779  49.1738129
   9.5961469  79.2551851  48.6539698   8.2089585  79.6572018  49.1068220
  62.3750305  17.3493874  15.0857961  62.7327251  17.0451045  15.9198821
  62.1516275  18.2670343  15.2415037  69.4944906  56.8298531  20.8919644
  68.6551523  57.0323181  21.3051796  69.7440958  55.9820318  21.2595677
  33.3501768  49.4058800  24.0157318  34.1143966  49.9792242  24.0747261
  33.6883307  48.5942030  23.6374974  35.6919813  38.2466269  33.7412119
  35.6543350  37.7493906  34.5582604  35.5602980  39.1563606  34.0081882
  36.6584277  59.5477247  30.8571553  37.1800017  60.2031469  30.3938961
  37.0911312  58.7162971  30.6629038  26.4588761  45.4099941  35.1192164
  26.5478134  44.7228479  34.4587970  25.9100914  45.0191307  35.7991362
  24.7947240  32.7506828  26.8964672  25.3957415  32.9190993  27.6221704
  24.3314242  33.5789943  26.7720222  43.6115789  48.6340570  51.2536192
  44.1515160  49.3671560  51.5490198  44.0391684  48.3288145  50.4534769
  36.9024587  63.6069298  29.0133429  36.7843676  64.2982912  29.6647286
  36.1423540  63.6882496  28.4372711  15.0775159  14.6596142  68.8472164
  14.1554321  14.5849367  68.6014113  15.5050005  13.9305731  68.3977876
  57.1916437  62.1061850  40.3284025  56.7544365  62.4280119  39.5400453
  57.8656864  61.5100431  40.0020409  36.0850668  49.0474653  34.5455718
  36.0645390  48.1586885  34.1907668  35.1708770  49.2453909  34.7488284
  54.2756557  53.8953018  15.8684325  54.2568636  53.6106443  16.7821312
  53.3686399  54.1296721  15.6718802  57.7181768  52.3541021  60.9322262
  58.1833410  52.2241497  61.7586422  57.0157909  51.7039919  60.9479284
  39.1403174  57.9470634  30.5610871  39.3873382  57.1069288  30.1745844
  39.3943357  57.8714943  31.4808655  52.1915197  61.1171103  18.2123518
  52.0829725  61.4728308  19.0943456  51.6620111  61.6889620  17.6566160
  84.3057823  71.7008781  14.3859756  83.3512497  71.7720270  14.3910861
  84.5082855  71.2544441  13.5638297  25.9642553  64.0068817  41.6814423
  25.4263210  64.6278286  41.1902380  25.9383368  64.3281841  42.5827312
  75.9661627  52.2341156  51.2411833  76.3192940  51.5451956  50.6782246
  76.2215757  53.0498457  50.8103943  68.9982128  53.1709385  29.2836642
  69.6705389  53.0890322  29.9600506  68.7508106  52.2686625  29.0813708
  46.9229698  52.4402428  44.6516323  46.4100504  52.5507212  45.4522228
  46.3401413  52.7337599  43.9513588  13.4301000  11.7743292  69.4882298
  13.1458764  11.1425390  70.1487494  12.7545123  11.7334833  68.8113642
  23.3718276  58.2400846  46.5837669  22.6724124  58.8735485  46.4232206
  22.9184866  57.4563408  46.8943501  56.9510889  58.0136919  17.0839167
  57.2339773  58.7527561  16.5454078  57.1413374  58.2849932  17.9819322
  67.4207497  65.2960443  38.8703275  68.2689857  65.7171297  39.0096664
  66.7838955  66.0051012  38.9591026  44.9108468   0.6664838  10.6127155
  44.9261140   1.6217603  10.5541027  44.6548938   0.3768530   9.7370255
  70.1017952  47.1186686  57.2963953  69.4992781  46.6517019  57.8753138
  70.2551746  46.5128517  56.5713501  74.0493029  36.2715673  34.1665936
  73.3942086  35.5747843  34.2062902  73.7554771  36.8361068  33.4516168
  44.6320295  38.0198479  11.5326762  44.6033382  38.4404421  12.3920417
  44.6426058  38.7470484  10.9103417  50.5915546  62.4743032  26.9013286
  51.4698648  62.6266432  26.5526175  50.6551981  62.7169418  27.8250742
  23.1462240  71.7249298  56.2938356  22.6355720  71.6868734  57.1025515
  22.8995562  72.5588274  55.8938360  66.1597430   3.1604566  12.9053307
  66.2485324   2.3364439  13.3842432  66.3041197   3.8380899  13.5657811
  46.8244314  59.2688274  41.6501713  47.6045990  58.7889338  41.3721895
  46.2950563  59.3457413  40.8563948  49.3441105  15.7401001   7.9083335
  48.6817694  16.1999130   8.4241867  49.0632534  14.8250926   7.9188913
  41.8921566  75.3890991  35.2590156  42.7685213  75.6943369  35.0243926
  42.0449972  74.6736670  35.8762932  63.7717258   7.5572862  43.5745811
  64.0667664   6.9402494  44.2442465  64.5792281   7.9229059  43.2133532
   5.6572318  38.7679124  47.5923586   5.1440006  38.5857463  48.3795309
   5.7581306  37.9151082  47.1695423  45.1139784  72.2867107  26.4265490
  44.6603107  73.0457878  26.7929029  45.2919197  72.5295591  25.5179262
  25.6454968  68.8381243  22.1280932  25.5175400  68.5402966  21.2274528
  25.0041723  68.3427715  22.6375675  66.6257954  74.3613243  26.2095976
  66.4840746  74.6912766  25.3223085  65.9867620  73.6554432  26.3075566
  54.5056343  51.9389725  43.8932896  54.4091415  52.8738356  44.0748167
  54.9330711  51.5863037  44.6737719  34.8115913  30.7315391   0.9852599
  33.8806430  30.5698389   0.8322191  34.8309270  31.3352197   1.7278432
  40.7943344  60.0962877  10.7061744  40.9766817  59.1855431  10.4748154
  41.4412260  60.6024027  10.2146351  24.7997475   7.9560590  49.6046305
  25.0102615   8.4702206  50.3840876  25.1143622   8.4886938  48.8741827
  66.8219423  65.0506783   2.4674475  66.6031504  65.6564140   3.1755751
  66.1950588  64.3337011   2.5633043  47.3446321  74.3680429  46.7162323
  47.0537949  74.3920422  45.8046007  46.6870737  73.8352919  47.1634674
   6.8339496  22.2046175  55.3586864   7.3001390  22.2745790  56.1917543
   6.3521247  21.3799848  55.4223633  65.5058514  13.0464639  42.7931976
  66.2006556  12.4292745  42.5639629  65.5882918  13.7498941  42.1492863
  33.9777618   9.6974172  35.4754114  33.0569606   9.9399271  35.5731463
  34.4383865  10.2446546  36.1114812  29.3262005  75.4318523  26.7795849
  29.8280525  74.7252750  27.1859336  29.8958731  76.1983252  26.8446040
  61.7236614  34.5051646  13.8805389  61.3374329  33.7049842  13.5244894
  61.1924124  35.2115774  13.5131323  75.0331163  38.6815858  50.8874178
  74.5466566  38.9303946  50.1014900  74.7418690  37.7897048  51.0770416
  82.1317183  33.7932195  41.2329292  81.5841376  34.3335809  40.6633615
  82.8695284  33.5345449  40.6807089  48.7553835  71.8777514   1.6877468
  49.2631102  72.6671124   1.8757723  48.3788252  71.6284847   2.5317264
  84.5973145   5.6100168   6.4413917  85.5438744   5.4699411   6.4666677
  84.3477284   5.3978433   5.5419898  71.5865421  77.5669432  34.0556097
  71.7669439  76.9851780  34.7940135  70.7569170  77.9884291  34.2798972
  29.6195083   0.9792032  37.1527457  29.1139274   1.7829504  37.0319128
  29.2583518   0.5862417  37.9473400  61.9716215  60.6844139  25.5481815
  62.0607519  60.2721834  26.4074564  61.9149733  61.6211653  25.7366538
  46.1003447  79.9275303  26.0149622  45.1809216  79.8722410  25.7545161
  46.5881538  79.7421265  25.2125287  74.4913673  55.2472782  44.7161484
  74.6643972  55.2952957  43.7759399  75.3595352  55.2214384  45.1184416
  64.4889545  70.2677202   7.7191013  64.2847061  71.1606741   7.4413419
  64.2296076  70.2381134   8.6400223  62.5145102  71.1076975  33.9329362
  62.9859018  71.3397837  33.1328392  62.4753809  70.1514006  33.9190316
   9.3263417  73.3307314  56.3981247   8.6038500  72.7832508  56.0907125
   9.8023999  73.5680819  55.6023455  58.2212448  69.4276333  35.6122375
  58.2510996  69.6779680  34.6888351  59.0150023  68.9096022  35.7457399
  44.6393061  54.0771103  42.6704168  43.9708328  53.9669228  41.9942284
  44.1618109  54.4206524  43.4255362  37.8935289  58.6883116  21.0183930
  37.2927547  58.7671804  21.7593932  37.4352336  58.1217623  20.3977346
  43.3290243  74.2441607  47.3007250  43.9530420  74.5402145  47.9634333
  42.4771976  74.5336771  47.6275349  44.9171344  52.5895256  19.7131824
  44.0981332  52.1266693  19.5364761  45.1799766  52.2877830  20.5827236
  66.3269520  72.3954296  31.8977141  66.7704439  72.3185110  31.0529470
  65.3952265  72.4087000  31.6787505  56.5553904  54.7152948  18.7881482
  57.4758482  54.4781113  18.6753333  56.5782881  55.5394268  19.2744792
  63.6709452  49.0021896  10.2452254  64.1499758  49.2605352   9.4578117
  63.6344624  48.0467224  10.2007091  78.4900284  53.5933828  47.7264500
  78.4900331  52.8283691  48.3017635  77.7972174  53.4148407  47.0905495
  39.3513064  21.8087568  17.6773810  39.9175696  22.3696031  18.2074988
  39.3054252  22.2486677  16.8284988  45.2184499  56.9765039  67.4017087
  44.2816080  56.8615099  67.5608798  45.2777971  57.2014948  66.4732212
   9.7645908   3.0296983   8.3493304   9.6680455   3.3426370   7.4498975
  10.7106643   2.9953661   8.4907299  45.3480244  70.7742023  34.1514039
  44.4626379  71.1079311  34.0066838  45.6200504  70.4385376  33.2972598
  50.2723551  66.2430954  22.7152348  50.1682806  65.3381920  23.0094361
  50.2118731  66.1932468  21.7612481  48.8818216  48.3723021  17.2482204
  48.1630945  48.5305500  16.6361558  48.8628960  47.4275208  17.4007440
   4.9263530  12.8679742  25.3055477   5.5474954  12.1421041  25.2462053
   4.1733413  12.5817098  24.7885752  32.2335386  76.0033607  23.2472682
  32.8354096  76.5386438  22.7301121  32.6156878  75.9932041  24.1248155
   0.7614236   2.8914156  32.5202870   1.3529401   2.3809423  33.0732369
   0.4393821   3.5875883  33.0928779  46.1766005  77.1589994  59.6903610
  46.2444448  78.0785275  59.9474621  46.7590237  76.6979170  60.2940321
  71.3685179  53.7493849  18.8628328  70.4479027  53.6609554  18.6160934
  71.5334749  54.6919537  18.8387179  84.0192496  32.8326406  39.1437960
  83.7055813  33.6194029  38.6978602  84.9158179  32.7197637  38.8281155
  70.1664495  57.7113390  41.7152643  70.0982523  57.4230909  42.6254797
  69.6698236  58.5290718  41.6851377  56.9176666  24.2138141   0.9422397
  56.9593135  23.6986202   1.7478942  56.6828243  25.0949425   1.2332725
  28.8534503   4.7908773   5.3618288  29.6671443   5.0393381   4.9231881
  28.1739669   4.9280538   4.7017390  73.6912775  58.2837486  20.7572961
  73.9685297  58.6579609  21.5935516  72.7734137  58.5416126  20.6720662
  32.2108889  79.6312380  25.3722787  32.1730423  80.5207443  25.7238078
  33.0719733  79.3062258  25.6352091  63.4162092  67.7593613  44.6929502
  63.4600544  68.3519125  45.4434109  64.3304110  67.6110458  44.4511461
  27.8980212   6.4567175  52.2713375  27.7117400   7.3941602  52.2189522
  27.1145396   6.0366335  51.9165087  43.3514071  66.0465670  49.0126991
  43.9536715  65.5102348  48.4970856  42.5928068  66.1705542  48.4422779
  38.3109999  34.5102406  16.8840194  38.7409639  35.3619218  16.9614923
  38.9432907  33.8889885  17.2452474  70.3055130   2.8645124  21.7841697
  70.6041228   2.4044027  20.9997177  70.1649748   2.1715536  22.4293733
  61.6628838  71.2934685  59.2133236  61.5891504  71.2702084  60.1673937
  61.6624212  70.3730440  58.9505482  54.7347164  60.4297400  19.5086610
  54.0846252  60.9662771  19.0550768  54.5938730  59.5455647  19.1700864
  54.7867255   7.6850881  39.6145749  54.9602180   7.8413572  40.5428600
  54.4398360   8.5170068  39.2923856  81.3254166  63.0631018  51.1992168
  80.9886551  63.2034540  50.3142691  81.0458088  63.8374567  51.6874981
  60.0739299   9.6028795  30.2188873  59.2160546   9.9339857  30.4846835
  59.9128782   9.1635217  29.3838644  43.8432537  31.5082540   7.6809001
  43.0240153  31.4823618   8.1752777  43.7780677  30.7736768   7.0706737
  61.0075580  10.7420435  62.3334217  61.8218314  10.2682962  62.5030041
  60.6291615  10.8860578  63.2007790  67.4438524  35.3595018  43.6680555
  67.1473169  35.1671076  42.7785158  66.6882467  35.7695127  44.0889931
  63.9302301  70.5817986  29.0198922  63.7949753  69.6484900  28.8559532
  63.4737158  71.0197783  28.3015609  59.6210766  73.9789820  50.0310421
  59.7042942  73.0306673  50.1310587  59.8603582  74.1455746  49.1193247
  64.5563733   8.6630239   2.3600869  65.2164017   9.3097963   2.6096404
  63.8517677   9.1788568   1.9680715  27.0758963  74.4905949  25.4996753
  27.1555662  74.9464846  24.6617889  27.7461457  74.8898745  26.0542679
  63.8127136  72.7223492  24.8051596  63.6545229  73.6336613  25.0515723
  63.9231443  72.2646046  25.6385326  24.2961097  76.9411659  33.2209682
  24.5010924  77.4021864  32.4075389  25.1415110  76.8394613  33.6582136
  60.1535572   9.1234012  66.2945247  59.6714176   9.6245189  66.9522930
  59.4877685   8.5820051  65.8704296  47.9212724   2.4957838  41.1137772
  48.2304644   1.8879881  41.7855024  46.9687270   2.4925604  41.2080050
  66.0065508  67.7119780  38.7931538  66.2003565  68.3576918  38.1136537
  65.9920454  68.2168913  39.6062231  20.6368499   9.7437086  33.0974960
  19.7327094   9.9335756  32.8470898  21.1573939  10.0204744  32.3433995
  18.9734893   0.4570665  39.3205070  19.7330527   0.8663740  39.7349596
  18.5272317   0.0019731  40.0346327  21.1755484  53.7151670  38.0469227
  20.6965274  54.4207048  37.6121926  22.0839232  53.8367414  37.7706814
  49.8971653  63.3623171  45.6584930  49.1948366  62.7668238  45.3970480
  49.4531584  64.1900349  45.8428335  52.0143747  65.1277256  28.6166668
  52.2883463  65.4040909  27.7421427  52.3172569  65.8277893  29.1949415
  78.5518681  27.9501142   8.7257689  78.9589058  28.6954965   8.2842356
  78.5796820  27.2445478   8.0795252  61.0250671  43.8878866  43.7203074
  60.7953263  44.7393556  44.0923954  60.7003228  43.9241739  42.8206111
  33.3598399  61.8570948  10.7039845  32.4320817  62.0498419  10.8394301
  33.8187790  62.4830294  11.2641740  59.4317913  52.7929831  23.1415796
  59.7458458  51.9155407  23.3599663  59.5801640  53.3052111  23.9364648
  74.4158888  63.9406729   5.3898394  74.0310478  64.2424726   6.2126666
  73.7300491  64.0843344   4.7377497  62.6259171  11.7178239  18.0968571
  63.4131085  12.2538652  18.1928813  61.9832550  12.1305360  18.6738145
  41.6319799  66.0723448  21.1953163  41.4679480  65.2057409  21.5672350
  42.1347284  66.5307045  21.8686485  24.7128786  24.1731211  59.2345381
  24.4257797  24.6663709  60.0029857  25.6633819  24.1127249  59.3300760
  61.3316631  56.4947319  17.3969400  60.9605551  55.8805752  16.7634416
  61.0078192  57.3512602  17.1181655  20.6736244  33.4970566  54.7554565
  21.5155948  33.2944485  55.1632119  20.0867618  32.8055235  55.0614119
  60.9667826  75.1350498  31.8725967  61.0542631  75.0583839  30.9224916
  61.8256998  75.4364443  32.1686602  65.1912212  60.7877684  45.3836966
  64.9494886  61.6316700  45.7653046  65.8786869  60.4527187  45.9593391
  18.4379283  18.2019752   4.2837095  18.9125339  18.1855959   3.4526204
  18.1986419  19.1208357   4.4048070  64.4663715  72.1820879  13.2327354
  65.0633287  71.5877962  13.6873698  63.7202835  71.6333866  12.9908478
  66.2565266  26.5495386  12.2668052  65.9121262  26.4601602  11.3781929
  65.4890477  26.4580335  12.8314602  10.0214308  55.7512569  63.5241127
   9.4547003  56.4872456  63.2930851  10.0348109  55.7504988  64.4812155
  71.3057696   4.0611639   6.6679168  71.1857878   4.7750940   7.2941250
  72.1812092   4.2030515   6.3077742  20.8243709   6.1131849  26.6830802
  19.9957042   5.6618681  26.5222764  20.8481507   6.2395467  27.6316047
  51.1740541  40.8436823  13.6811519  50.3744030  40.5682325  13.2329142
  50.9116745  40.9496880  14.5955658  84.5266056  40.8630943   1.5000848
  83.7244320  40.5734158   1.9346449  84.6648312  40.2236032   0.8013898
  35.6456237  14.2460432  37.2799683  36.1211162  14.3536844  38.1037116
  34.7292667  14.3987074  37.5106549  68.7859821  55.3598976  50.9175158
  69.3885660  55.6225109  51.6133308  67.9167175  55.5571270  51.2663889
  74.1498327  75.6454325  40.4157352  74.5342255  74.8879814  39.9744344
  74.7708082  75.8571720  41.1127138  37.2680044  57.0200729  18.8953543
  37.7252960  57.4621582  18.1800377  37.2790575  56.0946560  18.6509919
  37.9543686  44.0686274  11.2582278  37.6412725  43.2473660  11.6373515
  38.5350657  43.7980747  10.5470133  17.4203830  50.7072057  31.3709235
  17.5088792  49.9026956  31.8819571  16.6545348  51.1443987  31.7431831
  61.8395138  68.5834169  59.6475315  60.9913731  68.2490253  59.3558693
  61.7414141  68.6928606  60.5933809   7.5597005  14.6831121  42.8295851
   6.9350438  15.1016321  42.2372389   7.2828965  13.7673654  42.8615141
  81.6314446   6.6078653  35.0633430  81.6199242   6.0970583  35.8727717
  82.1469103   7.3853101  35.2780676  21.7131442  64.3213129   2.5750634
  20.9099692  64.7936344   2.3558375  22.1967334  64.9216318   3.1425065
  71.7410135  57.8090096  12.8931868  72.0362043  58.5966396  13.3500624
  72.4386787  57.1705914  13.0412233  65.0925779  63.0000114  38.9215708
  65.8038521  63.4484053  38.4641218  65.5054283  62.2273588  39.3073106
  74.0446793   7.8673734  37.8063440  74.5174395   7.9226484  38.6368108
  73.2700049   8.4147253  37.9348516  78.5150385  61.6837120   5.3856474
  77.7897882  61.9486618   4.8199239  78.0945396  61.2396097   6.1219811
  25.3896106  20.5975099  59.3045736  26.3425220  20.6853863  59.2828632
  25.1307500  21.0003801  60.1333774  57.7155638  23.4004188  48.7192774
  57.4948168  23.1166673  47.8321552  57.6517916  24.3549871  48.6882544
  23.1340175  38.1441965  52.7074957  22.3805003  37.7436247  53.1410789
  23.6253409  38.5594835  53.4162712  47.4358988  55.4059935  28.7735653
  47.7183437  56.2159443  29.1983438  48.1481218  55.1903105  28.1715274
  78.4016930   5.8689298  19.3622398  77.9060351   5.5275430  18.6179221
  77.7373682   6.0638990  20.0232220  37.3172916  41.3755174  64.8049194
  37.0758880  41.2240835  65.7187159  36.4990963  41.2676187  64.3200029
  35.6965137  77.2184134  42.7210426  35.3770065  77.0138741  43.5998583
  36.3080716  77.9431772  42.8511953  60.7256699  50.2889442   6.1851168
  60.4176712  51.0258341   5.6575173  60.7797337  50.6375217   7.0749485
  61.6151476  72.1446133  17.4203396  60.9109354  71.7354298  17.9232132
  62.2253227  72.4688530  18.0827475  13.1342047  47.1722269  13.3840263
  13.0138797  47.8382635  14.0608954  13.1351489  46.3427353  13.8617039
  23.0200677   6.3866892  40.3745794  23.9002757   6.0774221  40.5886364
  22.4484115   5.6495466  40.5891800  19.7967057  41.1116209  24.9555254
  18.9844327  41.3678636  25.3923178  20.4852586  41.3276281  25.5843854
  20.0129771  78.8618946  68.9457035  19.6985388  79.4165277  69.6596670
  20.0489902  79.4450092  68.1874752  62.9037142  56.0871458  38.9589357
  62.4547625  56.8751717  38.6528349  62.5581694  55.9414530  39.8396206
  22.8334575   7.4748029   8.5188240  23.7067847   7.1116628   8.6660099
  22.7933221   7.6269140   7.5746405  54.8509780   4.1710705   5.1390218
  54.4122020   4.4200939   5.9524631  54.8000709   3.2153696   5.1222944
  78.2422113  63.7211752  47.6295185  78.0798388  64.6378565  47.4068975
  78.4401512  63.3026743  46.7917156  78.1654107   2.0339765  53.5635900
  79.1175972   2.0386781  53.6613321  77.8568636   1.4449682  54.2521286
  47.0716715  78.1095982  35.4737949  47.5428200  77.2786522  35.5352354
  47.7243090  78.7722731  35.6999731  59.3683868   1.3262167  26.4291358
  59.5435100   1.4602747  25.4976916  58.7544112   2.0232858  26.6601586
  51.4722347  79.4883490  14.6050429  50.6124496  79.4714689  15.0254107
  52.0916557  79.3464375  15.3208733  47.1285200  70.8632994  36.3574457
  46.6113901  70.8846045  37.1626496  46.4788437  70.8031845  35.6570625
  32.6128578  67.5330162  44.5958757  31.7136860  67.8577662  44.5483732
  32.5203300  66.5857220  44.6974182  66.7165709  74.1521740  44.4686604
  67.0398235  74.3654966  45.3440094  67.1774149  74.7584963  43.8888073
  23.9264827   3.4584989  14.2884338  23.2521491   3.6163511  14.9491858
  24.6404033   3.0405035  14.7699142  32.0458698  74.7554350  56.3105679
  31.9452739  74.9569798  55.3802490  32.6591396  74.0207958  56.3315344
  25.1162235  63.4152454  -0.2630091  25.7538835  63.9297623   0.2318620
  24.4677440  63.1471676   0.3880214  60.3386593  32.2758579   9.6591377
  59.5564651  31.7529678   9.8351741  60.2386951  33.0502486  10.2128136
  72.6991081  69.4386864  20.9684205  72.4560976  69.0864706  20.1121974
  71.9159651  69.8999214  21.2687159  68.0264425  77.0212984  32.5370789
  68.9077473  76.6757441  32.3952079  67.4882412  76.2461948  32.6976681
  71.7335892  67.4643135  25.4149318  70.8964491  67.6847076  25.0064564
  72.3005056  68.2095957  25.2164578  19.2229761   4.2881485  63.0474532
  19.9018968   3.8258453  63.5389573  18.8714946   3.6301847  62.4476386
  70.5641699  68.8109064  15.7330370  70.0158024  69.0184879  16.4896286
  71.2024450  69.5233297  15.6971693  40.2756453  64.3335485  17.8949440
  41.1662674  64.2057514  17.5683022  39.8109102  64.7475243  17.1677065
  36.2683797  70.9798193  42.3515844  36.6679668  71.0513258  43.2184458
  37.0069838  70.8455563  41.7577219  54.6490574  70.2492762  30.5583525
  55.1703405  70.7218122  31.2073565  53.8918877  69.9274445  31.0475898
  84.2163884   4.3486585  34.3642259  83.8017784   3.5682382  34.7320271
  83.4886061   4.8679056  34.0222573  20.6393576  67.8460741  56.8818140
  20.0507450  67.3796272  56.2883568  20.4194736  67.5097227  57.7505827
  80.7958113   2.6858606  41.0851431  80.2373158   3.2757940  41.5914011
  81.5274369   2.4881258  41.6698265  68.1357145  67.2404051  15.3389418
  67.4955606  67.7737951  14.8678446  68.8478851  67.8462696  15.5438232
  37.9957641  14.9876304  59.2345167  38.3106769  14.8860021  58.3363343
  38.2178653  15.8895775  59.4655860  64.4018613   4.2819109  31.4304447
  64.4079434   4.3380155  30.4749084  63.6224734   4.7710409  31.6941357
  46.9367313  70.0776386  52.4950218  46.4599514  69.7686148  53.2653570
  46.9451141  71.0305738  52.5848722  61.8784475  65.7515860  36.3179564
  62.3987007  65.8044338  35.5162239  62.2333622  64.9947786  36.7843366
  13.4225373  18.3428850  28.0629945  13.0042558  19.1575803  27.7845311
  14.3003659  18.3824339  27.6834059  50.1464515   0.7713308   9.7183394
  49.4607501   0.7909383   9.0507650  50.5517631   1.6371812   9.6708816
  21.6093307  31.9814577  36.7973018  22.5044303  32.2569074  36.5994215
  21.1634021  32.7867593  37.0597267  19.2683184  72.8479528  60.9561729
  18.5125613  72.3697186  61.2972832  19.8826647  72.8795671  61.6895294
  56.4744139  31.6064215   7.6500982  57.3203707  31.9659925   7.3830771
  55.9738636  32.3665762   7.9464823  38.8122134  11.6198053  15.4163051
  38.4986072  11.5272989  14.5166802  39.5512920  11.0144319  15.4757500
  57.8336239  56.9428015  36.4564896  58.0999517  56.5592289  37.2920585
  58.6104488  56.8715096  35.9017873  71.1777592  71.1546135  41.7413235
  71.2294769  71.1323595  42.6968670  72.0853233  71.2564993  41.4546490
  77.0958185  49.3472099  39.2677331  77.9850721  49.6946001  39.3368673
  77.1535826  48.6744070  38.5893250   8.8011365  15.6620111  46.9813824
   7.8758006  15.6765833  47.2258520   9.1562419  14.8965730  47.4333191
  59.9513102  64.7129583  49.0784311  59.8420858  65.6453657  49.2652941
  59.8966026  64.6517944  48.1247568  67.0657921  78.2324934  43.7199879
  67.5134563  77.4436855  43.4140348  66.7866516  78.6755085  42.9187059
  15.7566648  48.9275922  27.7330709  15.2512603  48.9288702  28.5459661
  15.2069478  48.4523573  27.1100140  67.1927404  54.6329594  57.0066404
  66.9950342  54.1137505  57.7861023  66.7629337  55.4737234  57.1635342
  67.0954132  66.8231344  19.4061339  66.3834238  67.0672512  19.9974954
  67.7007723  66.3231754  19.9536836  25.5822349  32.3450947  33.5093641
  26.1839271  32.5226116  34.2323351  25.1210356  31.5484095  33.7717056
   3.1583934   6.5611925  11.3681853   3.1507545   5.6174650  11.2083077
   2.2654920   6.8446436  11.1716747  48.2794285  66.6487265  56.1077547
  48.5301447  66.1085033  55.3584003  49.1105223  66.8990421  56.5113068
  69.5578371  11.5822973  21.4310455  69.5336138  12.0320215  20.5864215
  69.1121565  10.7502069  21.2722087  53.2566224   5.3442850  51.9332170
  53.2216965   5.1623048  50.9941244  52.7765905   4.6204176  52.3354769
  37.6695304  20.4504671   0.2361798  37.9705291  20.7650938   1.0886125
  36.7145496  20.4842939   0.2919554  28.1540542   4.3416299  41.8373871
  28.1050925   4.3513670  40.8814907  27.5762801   3.6249056  42.0995140
  44.1223383  79.7554827  39.6370864  43.2027817  79.7213125  39.3734980
  44.1087103  79.5774412  40.5774832  73.4026098  52.7232409  56.3473415
  73.6225557  52.6940632  55.4162073  72.4693632  52.9351902  56.3664722
  77.7015209  73.7572670  16.9340289  78.6205816  73.9634418  17.1044779
  77.3609161  74.5325470  16.4877582  68.9163685  80.0804138  48.7058878
  67.9760265  80.2515411  48.7578630  69.2568159  80.3525925  49.5580864
  44.9927383   0.7543459  31.5830684  45.0405650   1.3885107  30.8676815
  44.3647819   0.0984850  31.2801576  40.5856124  42.8012508   3.1472730
  40.7341901  42.0117229   3.6676645  41.0376445  43.4940857   3.6288070
  31.0098958  51.1958075  23.6062765  31.6796303  51.8708658  23.4968138
  31.4913678  50.4287815  23.9162588  69.7063589  63.6976385  35.7137704
  69.6103382  62.8242540  35.3340244  70.5328274  63.6599493  36.1951923
  39.7553134  54.0942144  24.8253179  39.1006422  54.7273779  25.1198316
  40.4895353  54.2108297  25.4282665  65.1558590  66.2900591  17.4911642
  65.8050728  66.5210772  18.1555319  65.4668522  65.4595280  17.1309805
  54.3872166  47.2200584   3.6310896  54.6094894  46.3878536   4.0485317
  54.6669912  47.8855562   4.2596382  52.9246473  61.8127203  40.1478100
  53.4010887  61.0731792  39.7705674  53.2697964  62.5788879  39.6894598
  38.2644486  72.5490284  22.4705100  39.0067911  72.0377684  22.1483707
  37.8633332  71.9937611  23.1391048  29.0187550  28.1244612  11.9089091
  28.8674736  28.1675100  12.8530979  29.7958112  28.6648130  11.7659652
  79.1683245  59.2224169  34.2771840  79.0008497  58.2812786  34.3266058
  78.3652258  59.5895243  33.9077377  58.7603569  67.0468998  26.8123913
  59.0684795  66.4904690  26.0970783  58.8722467  67.9399109  26.4864349
  31.9445281   2.3187914  28.5272193  31.8791061   2.8637972  29.3113875
  32.1172385   1.4384927  28.8610911  46.8018341  63.6460114  25.8445191
  46.8330717  62.6926613  25.7646513  46.6994238  63.8045168  26.7829323
  79.9021326   1.8700494  44.7324276  80.7540833   1.5108862  44.4846153
  80.1037203   2.7265539  45.1092482  82.8985500  54.8388815  61.0389280
  83.5651112  55.3609896  60.5924702  83.1008816  53.9350033  60.7974911
  69.5995188  50.7616329  16.1213470  69.4553947  51.3699102  16.8462336
  69.7542524  49.9171114  16.5445089  64.6622229  50.7477188  38.6750174
  64.5376825  50.0410366  39.3085194  63.7750578  51.0354805  38.4597158
  51.1004686  66.0614634  52.9692698  50.2524805  65.7938433  53.3235693
  51.3172436  65.3836918  52.3290634  20.3753225  34.1377109   3.4052896
  19.7836248  34.1694158   2.6535463  21.0624973  34.7703594   3.1960677
  76.1444187  73.0533743  29.7950888  76.1473608  73.1391144  30.7484365
  75.7127428  72.2148752  29.6313548  12.3174822  35.0793409  11.5465999
  12.1522272  35.9943724  11.7738473  11.6932726  34.5842886  12.0771813
  68.1290388  66.4894581  51.3777351  68.5660648  65.7852411  50.8988714
  67.7530527  66.0594034  52.1457958  83.9279747  60.7244062  41.6478872
  84.5655441  61.0337114  41.0044050  83.0777645  60.9482002  41.2693501
  24.4278293  12.5945272  28.6264110  25.3776507  12.6983251  28.6837721
  24.1778903  12.2089281  29.4660974  75.4574633  37.8587961   9.5512038
  74.9018240  37.0903039   9.6812785  74.9598837  38.5816026   9.9335629
  74.5556831  61.7589235  52.2673368  74.4249439  61.4199400  53.1529045
  73.7133455  62.1487045  52.0332956  58.9699888  78.5444307  45.3998280
  59.4473267  78.0857658  44.7084475  58.1136942  78.7323713  45.0155544
  23.4723035  33.9876789   5.2655935  23.2817213  33.1805557   4.7876214
  22.8399555  33.9955276   5.9841346  56.5615559  67.1882248  36.9250846
  57.4134207  67.6062202  37.0509481  56.2149382  67.5865555  36.1266971
  33.3685255  39.6035862  12.5854242  32.8988433  39.1930604  13.3114409
  33.1705070  40.5363464  12.6689696  64.0640020  66.4200974  55.1109982
  63.1612539  66.3410616  54.8027182  64.0398121  67.1405029  55.7408094
  43.0734634  41.6211700  69.3136835  43.9192152  41.9801378  69.0452099
  42.8742361  42.0674467  70.1367140  38.4367232   3.6774244  14.4802654
  37.8650336   3.7698450  13.7181211  37.8505664   3.4105482  15.1883864
  74.8452330  66.3188410  36.2684274  74.9230862  66.3510036  37.2219133
  75.1597309  65.4463148  36.0317349  84.5844979  48.9420076  64.1833336
  83.7601347  49.1215845  64.6354500  84.9949689  48.2486673  64.7000701
  29.1914516  28.9130201  26.4459157  28.9311080  28.9082994  25.5248165
  29.3232589  29.8382558  26.6528130  51.1811482  23.5733022  17.7924287
  50.6894981  23.7332430  16.9868636  50.9141218  22.6956834  18.0657566
  27.8821807  19.3994703  32.6584077  27.2628646  20.1292982  32.6529384
  27.9033523  19.1101446  33.5705876  48.9623790  12.8603449   8.2488531
  48.1013541  12.4674406   8.1057096  49.5088153  12.5010004   7.5499189
  22.2488634  11.8542808   1.7190837  22.1098272  12.5761837   2.3320770
  21.4430133  11.8191093   1.2037181  20.5777793  19.0130319   2.4757093
  20.9146838  18.2289590   2.0421666  20.7360463  19.7195997   1.8496594
  55.8473921  69.8588657  17.2479403  55.5645800  69.1665030  17.8453362
  56.3509464  70.4589319  17.7980185  31.2945991   1.0507764  54.1770267
  30.5484061   1.5194120  54.5509338  30.9751372   0.7239618  53.3359718
  17.9205184   4.9353017  25.1370692  17.5441795   5.8145036  25.0970173
  18.1660133   4.8214521  26.0552216  56.0736171  20.8771223  13.8780498
  56.9692222  21.0138649  13.5691356  55.6513111  20.3814930  13.1764602
  77.6883364  71.6535997  60.9775543  77.5214863  70.7821417  60.6184435
  77.4371243  71.5852022  61.8986654   8.0983084  49.2595339   5.7741487
   7.3781985  49.8731804   5.9194297   7.9301184  48.8942003   4.9055427
  19.4774966  23.0738439  30.6423879  19.7114568  23.9615812  30.3714371
  19.1375976  23.1764784  31.5313005   3.0483931  72.0735312  33.7296867
   3.2105178  72.2510147  34.6562099   3.9128894  72.1222591  33.3216333
  43.8799404   2.5212087  58.4808350  43.4266745   3.3627882  58.5310078
  43.7201296   2.1120157  59.3312836  80.4811824  54.8129316  67.3384432
  80.7667030  55.7261415  67.3660397  80.2139820  54.6182772  68.2367434
  70.4740143  70.6528378  22.0016503  69.6023369  70.4779577  21.6469216
  70.3972435  71.5142441  22.4119139  13.3269839   5.1513090  37.9995394
  12.5941854   5.5584421  38.4615803  13.5187869   4.3608274  38.5040903
  70.3734398  61.6407776  27.9456019  69.9734592  62.4246550  28.3221459
  70.6969357  61.1503649  28.7013006  36.6641955  14.2893018  29.2923093
  37.3817496  13.9597788  29.8333740  36.3460021  13.5190477  28.8214636
  26.9667172  79.8130751  13.0506587  27.5492501  79.0821362  13.2570910
  26.1735034  79.6375227  13.5568452  34.7205978  28.2893457  26.1147332
  33.8697486  28.2475462  26.5512538  34.5768504  28.8663091  25.3646111
  59.6539164  74.0688515  68.5583591  59.1819239  73.9333868  69.3800068
  59.7696400  73.1885624  68.2006741  55.7065868  56.2379694  23.2928252
  55.9848690  55.5816793  23.9316344  56.2724447  56.9913626  23.4614468
  31.4261550  59.8010778  41.5667820  32.1135539  60.1499939  40.9993553
  30.7563704  59.4808960  40.9625435  64.3491064   4.7120275  28.0739975
  63.7572633   3.9635839  27.9979062  63.7715637   5.4591264  28.2305551
  79.3999004  76.4320564  25.7070613  79.5323467  77.2479343  25.2243280
  80.0956059  76.4270973  26.3644791   6.9075602  73.1768703  11.6505682
   7.8335780  73.3320522  11.8367219   6.9093913  72.4974823  10.9762812
   0.4404658  77.3771429  55.9974813   0.8142203  76.5376616  56.2654352
   1.1862868  77.9768896  55.9805298  62.7658272  58.4260178   9.6776062
  62.5812483  59.3391752   9.4578189  63.5948944  58.4574366  10.1549852
  85.2610337  19.1757669  34.1119790  85.0593649  19.8143568  34.7959137
  84.5701252  18.5176172  34.1875577   3.6784857  64.7473717  26.7875886
   3.3687800  65.1048565  27.6197648   3.7886065  65.5132437  26.2240767
  43.6141300  70.0725317  39.9773145  44.1144228  69.6348572  40.6660652
  43.1488132  70.7762003  40.4295969  66.8831301  64.7175217  16.4394403
  67.1307373  65.5988169  16.7191613  67.0181751  64.7202110  15.4918194
  25.3319507   4.4917001  21.6876817  25.1722674   5.4290666  21.5778089
  25.7724052   4.2274751  20.8799601  17.7744502  68.4107685  44.7043228
  17.7900428  69.3166065  44.3953800  16.8581980  68.2504940  44.9302292
   8.2603412  11.3623800  27.4359155   8.2085662  11.7859640  28.2927299
   9.1171889  10.9357443  27.4310327  37.8026689  15.6209560  68.9021192
  37.5673450  15.1670357  69.7113231  37.7112020  16.5500589  69.1133808
  79.1136885  59.9047947  31.4382553  80.0655079  59.9194860  31.5384746
  78.9322233  59.0757132  30.9956121  14.1530055  36.1948109  28.1002617
  14.7409838  36.8692255  28.4403729  13.8568133  36.5382123  27.2573042
   8.3823508  68.9410305   9.2573088   8.3770484  68.5673571   8.3760756
   9.3102187  69.0497065   9.4658077  66.4124823  79.9268103  35.1518559
  66.8015432  80.3866863  35.8957481  67.0949316  79.9365187  34.4807386
  83.4622752  40.5433550  57.4747515  83.7132584  39.9739065  58.2020521
  82.5318180  40.7173814  57.6168776  34.3419353  15.0023550   9.4640445
  34.1862670  15.6880039  10.1135730  34.9466793  15.3991884   8.8371133
   2.8745465  12.1471967  23.4399724   2.4094968  11.4070024  23.8299370
   2.2247510  12.8494062  23.4100199  62.0225382  61.5649128  35.9357500
  62.4614191  61.9008350  35.1542306  62.2711229  62.1744251  36.6306853
  30.0330691   0.3650846   9.2593002  30.6251769  -0.1340208   8.6966848
  29.8176055   1.1451044   8.7480545  67.9343700  77.1505976  40.2105379
  68.7383652  77.6545858  40.3363085  68.0616522  76.7011404  39.3750668
  62.8409863  74.1163778  35.3641796  62.0879126  74.0519857  35.9515214
  62.4777460  74.4528866  34.5450020   3.5821742  50.2255392  55.7108021
   4.4684237  50.5749226  55.8042479   3.6061972  49.7268724  54.8941088
  61.3842058  79.7217035  22.1274304  60.5802441  79.7064447  21.6081524
  61.4492655  80.6234932  22.4417067  76.0463667  61.1873913  57.3082113
  76.7474174  61.6625738  56.8621635  76.3385248  61.1277008  58.2177782
  17.7353686  62.2414017  10.3639972  18.3253592  62.7453804   9.8035026
  18.0052489  61.3315773  10.2390289  41.9725513  57.4288559  44.9867725
  41.1339331  56.9774866  44.8907852  42.0760250  57.5436497  45.9314108
  76.1120605  45.4392672  52.2646952  76.7702150  45.8814812  51.7284918
  76.6085958  44.7974777  52.7724218  12.3403459   8.5458460  17.4598432
  13.2079988   8.9369955  17.5618708  12.2795634   7.9088678  18.1717372
   2.9943805  18.5542955  21.5075755   3.6428743  19.0768613  21.9793987
   3.0484729  17.6866808  21.9082499  78.1153761  30.6642713  54.9019384
  78.2240855  31.3590898  55.5512714  77.1722113  30.5024423  54.8799372
  81.9868313  19.7795286   3.6966839  82.2109305  19.2359819   4.4520494
  82.7807700  20.2845373   3.5210285  26.0500293  35.0443926  40.5693102
  25.9963565  35.9837713  40.7451487  25.1525931  34.7890367  40.3557062
  15.1251702  19.3141451  15.2814949  14.9185329  20.1062860  14.7854555
  14.2801528  18.8819399  15.4054904  69.4902897  64.3986940  27.9096842
  68.6842918  64.4085073  28.4259248  69.3675137  65.0915289  27.2607327
  37.2309685  73.7964392  17.1183717  36.9475508  74.5648050  17.6138711
  38.1726408  73.9213753  17.0005691  74.3092433  31.7200941   2.7173852
  74.5623771  31.6386408   3.6369037  74.5685379  32.6091713   2.4754333
  64.9944115  79.3725538  45.1880550  64.2345238  79.0391493  44.7109318
  65.7465124  78.9786768  44.7459745   4.3747239  18.7111272  43.2302284
   4.7105126  19.4222822  42.6845789   5.1166968  18.4607782  43.7807131
   9.0182418  73.1731892   1.4504737   9.3184394  73.2377100   2.3570885
   9.0513343  74.0719032   1.1226801  31.2567347  28.6953759   5.4801279
  31.3045138  29.0017986   6.3856959  30.9786528  27.7821779   5.5506366
  53.6639547  51.4237165  19.6980357  52.7363348  51.1881685  19.6816933
  54.0924692  50.7457161  19.1756094  66.4432001  49.9776268  56.5570545
  66.1282635  50.1933002  55.6792545  67.3968220  49.9715662  56.4746046
  45.4983044  55.9219790  36.9288492  45.4079580  55.4981518  36.0753632
  45.6998253  56.8347692  36.7228556  67.1391487  62.5556087  52.0684767
  67.3150110  62.9286385  52.9322815  67.9158831  62.0322561  51.8709421
   2.1898860  74.0317106  40.0761700   1.7881793  73.3313894  40.5903816
   2.8585738  73.5907316  39.5521188  34.5257009  35.9129997  59.0210093
  35.0652755  35.2530714  59.4564176  33.9860881  36.2809034  59.7207922
  47.8970766  48.8893366  -0.0329045  47.5671005  48.8754988   0.8655155
  48.3875132  49.7089720  -0.0953320  52.6719856  78.0807209  37.5196028
  52.9472828  77.7238464  36.6751599  52.4796152  77.3102379  38.0539989
  12.5743906  22.5664371   4.3159532  12.4085180  23.5001081   4.1856574
  11.7110864  22.1582979   4.2498779  50.4864645  69.8916864  15.8670676
  50.1937246  69.8992109  16.7783737  51.0454559  69.1174412  15.8014524
  44.0868711  74.0846729  39.3758368  44.1860914  73.3708906  40.0058365
  43.5557032  74.7361612  39.8337173  36.1643267  80.0895882  30.6950474
  36.0394239  79.3250895  31.2573385  35.8270192  80.8229446  31.2094808
  15.8050460  61.0517931  34.9596143  14.9344653  60.8814240  34.6000457
  16.0163802  60.2631378  35.4592037  55.6225109  55.3723764  36.9658518
  54.9727488  56.0371017  37.1942854  56.2511206  55.8329535  36.4100194
  68.8377857  61.5584564  15.1160038  69.7855902  61.5605354  14.9822509
  68.4713030  61.5212345  14.2325234  66.9598722  37.9642892  55.0861359
  67.4216700  37.1602154  55.3237009  66.0325718  37.7350450  55.1477480
  25.4787029   9.4073149  64.3965030  26.2564100   9.5563932  64.9342561
  25.3273548   8.4637066  64.4506455  24.8544615  72.5694275  30.2365422
  25.6473464  72.7539062  29.7330213  24.4524020  73.4273005  30.3730488
  32.2815471  27.2253313  27.5731349  31.9697719  27.8343858  28.2425284
  31.4939933  26.9787969  27.0881534  45.0872898  68.7053490  30.5953455
  45.8430243  69.1676378  30.9578109  45.2707148  68.6446190  29.6578503
   6.1902636  73.3312225  34.8016667   5.9742755  72.5924063  35.3706431
   6.6621226  73.9406824  35.3692365  20.9666638  20.2683820  15.0651133
  20.6349712  21.0649004  14.6506619  20.4583888  20.1889028  15.8723128
  63.3126688  78.4884310  25.6673098  64.2698336  78.4948444  25.6616259
  63.0749416  78.9389753  26.4776945  48.9151049  45.6067991  17.4929392
  49.5719004  45.5041122  18.1816375  49.4154882  45.8777761  16.7232502
  15.0148969  12.0411482  25.5753851  14.2708211  12.3536482  25.0606728
  14.6343618  11.7854013  26.4156342  71.3622046  75.7887030  15.9146619
  71.4423704  75.6539392  14.9703932  72.2592974  75.7259750  16.2425673
  61.1764669  61.4189100  42.5781775  61.9581842  61.9665718  42.6504040
  61.4636850  60.6566048  42.0755529  31.9683795   5.3496828  33.7413144
  32.3410564   5.4073038  34.6211004  31.0326247   5.5073156  33.8667870
  69.6832418  68.5757589  30.8742571  70.5499029  68.3786964  30.5188751
  69.1098404  67.9136562  30.4881668  77.0989990  69.7509003  40.3919840
  76.7838573  68.8515568  40.4820156  76.4537144  70.2789927  40.8620453
  77.7565848  29.4914617  21.0613132  77.1212851  29.0471067  20.4999113
  78.3092629  28.7877454  21.4012551  57.2961998  70.1036978  57.8837252
  58.0942726  69.7347260  58.2621002  56.7533922  70.3265142  58.6399937
   5.8652263  11.7335786  55.5550337   5.0536208  11.9680490  56.0050917
   5.6691747  10.9006776  55.1259947  26.3139014   9.0698137  37.8422809
  26.7190890   9.5826044  37.1429253  25.3946929   8.9982500  37.5850487
  13.9722365  72.0496273  43.9601278  14.3844146  71.8149710  43.1286955
  13.9375800  73.0061340  43.9487314  69.9968576  54.6145868  22.6666188
  70.8206511  55.0150633  22.9444957  69.9642658  53.7821150  23.1379652
  28.8131499  59.0034723  16.7283654  29.3501186  58.4698296  16.1425996
  29.0180707  59.9062872  16.4851236  35.0723280  25.7498737  63.0030084
  35.3033746  26.1915203  62.1858186  34.5232357  25.0145574  62.7309126
  71.9250011  68.5047388  40.6200361  71.0785151  68.8276339  40.3111124
  72.5325394  69.2245674  40.4498196   6.3584293  35.9098430  66.6090531
   5.7581032  36.6384025  66.4508063   7.1139158  36.0966297  66.0517556
  56.1632013  78.8016939  40.8006477  56.8010712  78.9047813  40.0944424
  55.7419491  79.6584272  40.8698511  69.1503716  72.5794744   9.0542877
  68.5553026  73.2382774   9.4122058  69.9999332  73.0189180   9.0173441
   1.8088645  55.1602316  31.4410305   0.8665389  55.2029228  31.6035748
   2.0229739  56.0070038  31.0494113  18.3362537   1.0728254  42.3699808
  19.2265897   0.7826700  42.5683308  17.9122071   0.3028097  41.9911671
  61.5327072  57.9426241  22.3686504  62.3116398  57.6317501  21.9072914
  60.9865618  57.1629333  22.4688649  59.8391591   3.0753698  34.0093160
  60.4584562   2.9128160  33.2977819  59.0149628   2.6994981  33.7000370
  15.3908743  28.5218235  60.5031634  15.0873245  28.9459844  59.7005594
  15.1469387  29.1288753  61.2018860   1.2601966  65.8228874  43.6727905
   0.4124850  65.8670425  43.2304621   1.4096659  64.8876286  43.8112831
  10.9995990  18.0385389  59.8781300  10.5318313  18.8417425  60.1068020
  10.8757596  17.4655618  60.6348228  65.0550186   5.1056566  45.3211832
  64.8356639   4.2968931  44.8585558  65.9460579   5.3098383  45.0373030
  31.4823871   1.4286604  65.2472067  31.0938602   1.5879812  64.3870306
  30.8181148   0.9282484  65.7210875  31.9384471  44.4777626  17.0431041
  31.5514986  43.7506813  17.5308036  32.6067726  44.0686554  16.4933681
  56.5244055  76.5003061  67.0937967  56.2970257  76.3513231  68.0115843
  55.8369303  76.0522985  66.6009521  17.5725417   2.6377096   4.4936231
  16.7283969   3.0882730   4.4682732  18.1058555   3.0913248   3.8409048
  59.2549562  51.8354940   4.4736418  58.3977842  51.4136553   4.4141725
  59.5232201  51.9621611   3.5635751  11.0385947  24.8450174  27.5854897
  11.8187623  24.8663702  27.0313120  11.2520700  24.2168893  28.2755041
  17.2871035  62.6527452  36.4404655  16.6723651  62.1498346  35.9062195
  17.5676745  63.3697653  35.8717895  56.9752936  25.8904829  11.5991509
  57.8313499  25.7121648  11.2097883  56.8758922  25.2210035  12.2760189
  58.9496899  79.6728182  20.2894282  58.2323027  79.1651821  19.9100900
  58.6567545  80.5822086  20.2308273  66.2967764   5.4132356  14.6081650
  66.7884623   5.3768053  15.4286218  66.9384157   5.6964960  13.9567888
  28.5444408  13.0193891  59.2756939  28.9117389  13.9004793  59.2048979
  27.6031356  13.1598081  59.3779612  60.3770828  19.7474122   9.6500814
  60.3842354  18.7993836   9.5180911  59.4861746  20.0140834   9.4233745
   5.7168734  36.7697668  26.9807959   5.0206530  36.1198688  27.0763969
   6.1743605  36.7561030  27.8214788  23.1144714  24.9985290   4.5995957
  22.3599768  25.4068089   4.1750056  22.8016758  24.1331577   4.8632646
  66.9515927  47.9575692  42.2400522  66.6273577  47.9097615  43.1393957
  66.4330597  47.3091374  41.7637205  58.5262545  35.0763625  65.8637104
  57.7323063  34.7448569  65.4442096  58.4512838  34.7940016  66.7752386
  43.7511826   7.3365247  42.4994278  43.8989353   7.7483660  41.6480827
  44.6183062   7.3040724  42.9035091   3.9085258  64.0250907  10.4511738
   3.9673937  63.8107488   9.5201397   2.9748191  63.9631460  10.6526387
  56.6143545  38.0584463  62.3135234  57.0127209  37.9983029  61.4452381
  56.3429125  38.9731885  62.3896635  28.0394697  10.2736402  55.9500742
  28.9863348  10.3493357  55.8319712  27.9383397   9.7732127  56.7597532
  16.8535484  78.3533407  28.8052607  16.0190405  77.8914055  28.8855267
  17.4473871  77.8777810  29.3861485   6.8389934   9.1151470  33.0659533
   5.9591323   9.4652092  33.2057142   6.7354572   8.1671309  33.1482816
   4.7639173   9.1936409  40.5677605   5.6842226   9.4326973  40.4576588
   4.6764106   9.0015000  41.5013838  38.6583471  12.8011811  55.5644178
  39.1487551  12.5643170  56.3515806  37.9698682  13.3873498  55.8784771
   1.4255608  44.0104471  53.8501024   0.6287349  44.1965232  54.3467665
   1.2232841  43.2114754  53.3633137  16.9825185  57.2088204  54.9775314
  16.9600881  56.9395743  54.0592527  17.3435558  58.0951176  54.9585056
  31.1155081   7.8965211   5.9298593  31.7739224   7.4832100   5.3713828
  30.4596972   7.2139913   6.0723221  60.8729367  74.9221543  44.0255022
  60.7163865  75.8488033  43.8437176  61.8040318  74.7961823  43.8426828
   7.3264986  20.7822514  43.1378984   7.4460000  19.8490107  43.3140087
   7.0057040  21.1428237  43.9645243   2.3170866  67.1512435  11.4080560
   2.5165118  66.4449880  12.0225990   1.9400824  67.8427492  11.9520426
   7.6753928  23.0675942  52.7251089   8.1255510  23.4148711  53.4951664
   6.7528941  23.2760566  52.8726507  34.4567227  19.0478396  16.4932811
  34.0733051  19.8959160  16.2696993  35.3737426  19.1224778  16.2292051
   9.8093189  66.8702255   5.9552038   9.8529280  66.5733216   6.8641472
   9.1790856  66.2809489   5.5407286   2.8876961  79.8887383  15.7896221
   2.3656882  80.6376452  15.5017388   3.6359514  79.8747580  15.1928389
  13.5415256   4.4870621  22.6170278  13.2922542   5.2865595  22.1534562
  13.7463498   3.8613141  21.9222474  39.2587805  23.1906724  25.4988503
  38.5236406  22.6761746  25.8321524  38.8561583  23.9866662  25.1516938
  29.8102331  15.3544331   5.5982274  30.6972837  15.0557482   5.3978300
  29.5811343  14.8983181   6.4079827  81.6432710  33.5353814  30.4428625
  81.6200991  32.7371989  29.9150419  80.8206243  33.9806900  30.2399230
  60.7859043  36.3146887  17.4003005  60.1503898  36.8198834  16.8932211
  60.9370179  36.8398056  18.1862044  42.5031376   6.6516054  25.9067845
  42.9367685   6.3409829  26.7015862  43.1977749   7.0803869  25.4069281
  27.7568936  25.3646922  23.4217286  27.3389030  25.5128384  22.5734544
  27.8055978  26.2338352  23.8197875  74.6190923  24.5462584  12.9584002
  74.0170914  24.7385168  13.6773324  75.4596269  24.9005532  13.2485890
  47.3468542   3.2320306  25.3350067  47.9144192   3.1993315  24.5649219
  47.7143574   2.5796214  25.9312749  47.7612495  20.4802322  15.3205144
  48.4666681  21.0186553  14.9617410  47.7392054  19.7073340  14.7562671
  51.8002916  75.4797770  23.4597826  52.0245237  74.6723262  23.9223576
  51.5042074  75.1876066  22.5976920  76.4670033  75.1671867  12.5774145
  75.7345195  74.6770428  12.2039747  77.2467918  74.7160796  12.2538960
  76.8760353   9.4052970  49.6541882  77.0235306   8.4613228  49.7124052
  77.7523500   9.7794700  49.5630884  46.4266253  10.7482338  20.0757980
  46.0412884  11.0113645  19.2400301  45.6747913  10.5580223  20.6368637
  71.3409138   5.7074893  40.2139091  70.9746838   5.5857849  39.3379569
  72.2388458   5.3830791  40.1452923   8.1771523  18.2662213   4.9648353
   8.4043527  18.9264512   5.6195945   7.3441792  18.5663521   4.6010926
  22.5079656  18.3481956  20.7761860  23.0905795  19.0201139  21.1301899
  23.0466604  17.8733361  20.1432967  53.2041454   2.8224838  37.8570652
  52.3722696   2.3506519  37.8969693  53.5513020   2.6227927  36.9876766
  57.4568900  18.7156230  68.1598919  56.7259892  19.0907413  67.6686645
  58.1938966  19.2975503  67.9743861  83.0037533  78.2893590   6.3685226
  83.5553156  79.0706019   6.3276481  83.3860814  77.6923279   5.7253980
  36.4373779   2.3643792  10.1118422  36.2573218   2.1805395  11.0338044
  36.7901778   3.2541868  10.1095057  11.5220345  57.7030740   5.4201365
  11.6301073  57.3314891   4.5446494  11.6108860  58.6475048   5.2921242
  77.3767424  26.7485905  34.7090030  77.7797121  26.7927265  35.5761242
  76.4733976  27.0320058  34.8499870  40.8871044  67.8534267  17.0876253
  41.4713539  68.6035476  16.9771433  40.5917562  67.6472149  16.2007880
  59.8659714  52.1912450  58.7795354  59.4406303  52.4230140  59.6051253
  60.6803735  51.7621130  59.0418900  59.8859657  54.7959004  25.1898646
  60.4887069  54.8089466  25.9333396  59.7038997  55.7188139  25.0129056
  18.9335942  34.6607709  10.6757653  18.2051873  34.9698925  11.2143743
  18.8148880  35.1035285   9.8354644  18.0993938  20.7823968  10.0778770
  17.2709298  20.9913135  10.5094230  17.8425717  20.3649163   9.2556942
  59.2164040  19.5353198  31.7535543  58.5133791  18.9281631  31.9845176
  59.8563576  19.4402707  32.4590039  14.7144294  28.9238119  16.2494302
  14.9736631  29.8154640  16.0170734  14.4681978  28.9788985  17.1727753
  56.8830331  56.5406173  62.3169786  56.4711650  55.6961518  62.4999405
  56.4831313  57.1430379  62.9441941   1.3391079  71.2250439  18.9505112
   1.9028867  71.0357873  18.2004666   1.9349469  71.2433545  19.6994245
  45.4791320  14.8148723  63.8806064  45.5605138  15.2625843  63.0384863
  45.8938230  15.4072042  64.5078320  39.0260991  41.4293514  57.1776438
  38.7183841  41.6882797  56.3090242  39.9595293  41.6413112  57.1740890
  49.3437719  29.2876124  22.0452952  49.2708445  28.9581180  21.1495543
  48.7736845  30.0562811  22.0649028  35.1424039  68.4649775  44.5203447
  34.2213119  68.2242201  44.6195984  35.3331817  69.0038703  45.2880859
  44.8087931  20.2794027  46.7063522  44.0039349  20.4660439  46.2230253
  44.6959496  20.7307339  47.5428915   7.6880672  66.6089088  58.5920025
   6.7784049  66.6885549  58.3049417   8.1975200  66.6291934  57.7818919
  27.0651650  36.7890167   3.7813252  26.6240978  35.9636807   3.5800505
  26.7137837  37.0467377   4.6335831  32.0254959  75.2952001  53.3251524
  32.7561153  75.9070189  53.2351208  31.9980444  74.8302100  52.4889374
  36.2667751   6.6945863  53.1678057  37.0756054   6.2225300  52.9698420
  35.5689716   6.0810632  52.9378319  24.8928764  49.8823517  63.8692135
  24.4797637  50.5422741  63.3123738  25.0527885  50.3341836  64.6977714
   5.4747242  23.2521176   5.5165058   5.9201944  22.7227998   4.8549843
   5.9310561  24.0933204   5.4972756  83.3068093  68.7095720  65.9011701
  82.8258999  68.8015586  66.7236645  83.5829552  69.6000463  65.6843028
  46.0262060  23.1410241   5.1170427  45.2946711  23.4647250   5.6426907
  46.5440178  22.6143122   5.7258773  47.9733467  46.9225931  14.0510833
  48.1121922  46.5279818  13.1901336  48.7887621  46.7576170  14.5244896
  36.5192413  59.1934729  33.6825418  35.6182146  59.5158529  33.7038708
  36.7747617  59.2573595  32.7622914  69.5169457  33.7794846  63.2857371
  70.2454957  34.1471469  63.7860060  68.7553175  33.8909656  63.8547064
  46.2261581  28.5706139   9.3573141  46.6624451  28.9144492   8.5777867
  46.2019730  27.6235986   9.2201698  73.6885710  69.3956302  27.0405722
  74.5558996  69.2421697  26.6658425  73.3159048  70.0948356  26.5034866
  74.3295670   3.9660445  16.3311565  74.2800570   4.6776432  15.6928718
  73.4237242   3.8300410  16.6089797  51.2370404  64.0950948  59.8413867
  52.1741947  64.2644745  59.9377466  51.1781629  63.4861189  59.1052402
  78.0043650  19.9679840  33.9118361  78.0514336  20.5361986  33.1429768
  77.3371315  19.3187284  33.6893487  43.7339592  53.4428024  16.3270581
  43.4060240  54.3411207  16.3685024  43.1723928  53.0123329  15.6824112
  76.3759751  77.8623731  13.0194223  76.6360659  76.9585911  12.8412020
  75.6709523  78.0361369  12.3957384  13.4407819  78.9242854  36.4145184
  13.3609451  79.4473276  35.6168437  12.6823438  79.1747181  36.9420457
   7.3058070  72.1986399   6.1258525   7.5519789  71.2749598   6.0763866
   7.9310430  72.5804845   6.7418939  42.0266438  38.8318729  33.7239933
  41.6614437  39.4644213  33.1053305  42.9743862  38.9430833  33.6488152
  53.6036444   9.1524667   5.9645438  53.0567455   8.8467181   6.6881812
  53.0114555   9.1831648   5.2131432  71.6409787  55.2483159  66.3663945
  72.0617827  54.4338959  66.6418499  70.8500107  55.3025371  66.9027404
  52.5013278  72.5926403  25.1361561  52.7200843  71.7272530  25.4818177
  51.6333438  72.4830280  24.7478008   7.5220526  32.5426207   8.1465816
   8.1386627  32.6345406   8.8729250   6.9292511  33.2883559   8.2398134
  21.2403488  24.0962744   6.8022335  20.5629754  23.4485459   6.9967598
  20.9214807  24.5492458   6.0216105  22.3903561  13.5366094   9.8068392
  21.8997645  13.5540688   8.9851052  21.7173958  13.5112226  10.4870677
  64.9120387  38.0312487  69.2085174  65.6631382  38.3467334  69.7110619
  65.2336105  37.2467917  68.7641628  55.8029509   8.0109233  12.0606554
  55.1039410   7.7836931  11.4474785  56.5316439   8.2832664  11.5029240
  22.7163137  76.0573841  45.2212381  22.5566591  75.5006898  44.4591141
  23.6003698  75.8258636  45.5059719  79.4455898   3.6896989  47.2344828
  78.5928053   4.0518811  46.9940376  79.6314657   4.0656003  48.0949354
  75.4897746  67.6184708  65.1832301  75.8486994  67.3294741  64.3442500
  74.9544295  66.8828994  65.4808406  13.9269090  15.5610168  17.9907191
  14.2488372  14.6666360  17.8781223  13.6120260  15.8132875  17.1227098
  18.3319820  62.2434292  46.4341831  17.4332822  61.9152568  46.4637041
  18.4332908  62.7377687  47.2475672  46.9935020  46.9385630  58.2999719
  46.2965878  46.3084304  58.1170107  47.5590154  46.9009149  57.5286031
  20.2701950  15.9346473  18.7815738  20.5654049  16.7288578  18.3362496
  19.3209910  15.9296346  18.6582172  59.0755987  11.5188456  52.0669985
  58.6299467  10.8659363  52.6067543  59.2558432  11.0659397  51.2432146
  41.0756315  66.6654156  32.0299673  41.3512767  65.9243224  31.4904952
  41.8669380  67.1940313  32.1330857  60.3621610  22.7053612  55.8719552
  60.5855711  22.7230936  54.9413610  59.5993551  23.2788259  55.9461141
  50.5619192   6.5580696  19.8830819  50.3390026   5.9267825  19.1989636
  51.3307571   6.1836863  20.3131509  36.6045154  69.6739910   9.4173545
  36.4479269  68.7300227   9.4425839  37.1597208  69.8042140   8.6485761
  32.1358347  36.0983872  31.7448473  32.4001813  35.3055239  32.2114515
  32.8534412  36.2675381  31.1343861  42.7392769   3.0152515  33.5810089
  41.9151306   2.7932060  33.1477499  43.0502033   2.1858290  33.9437962
  82.7119894  57.7564845   7.7826267  82.1462793  58.2766233   7.2119617
  82.6179023  56.8600211   7.4605519  60.8789492  31.8655944  13.3986330
  60.9296417  31.6146374  14.3209577  61.0429573  31.0530615  12.9199672
  60.6136084   9.6664733  18.5791302  61.1100864  10.3104687  19.0841162
  59.7195578  10.0082159  18.5683072  67.4040956  53.1912933  49.7668839
  68.1207914  53.5324583  50.3018475  67.2195907  53.8904152  49.1396570
  20.1133407  77.1590895   5.3564054  21.0142912  77.4807576   5.3888947
  19.9544490  76.8031005   6.2306231  73.1044025  74.0522979  19.7952783
  72.4352832  73.9472810  19.1189039  72.6097257  74.2168180  20.5980611
  27.1366358  15.5426145  30.3575039  27.6402259  15.5190098  29.5438266
  26.8612409  14.6362734  30.4951119   2.4250496  76.7998431  40.8477974
   2.4469055  76.8650759  41.8025208   2.3217882  75.8642430  40.6739521
  56.9270481  65.6491123  53.3773613  57.5741542  65.0286219  53.0419731
  57.2166599  65.8381949  54.2698860  51.2836456  11.3755429  10.6170785
  51.4499187  12.1682584  10.1069939  52.0195007  11.3245201  11.2271142
  82.8614052  57.6278132  61.8826283  83.7661942  57.8318816  61.6461057
  82.5851735  56.9789463  61.2354035  47.5662565  43.6615133   3.5553849
  47.2480297  44.4420767   3.1018567  48.0891657  44.0025711   4.2809704
  24.8640108  12.9839182  24.6235442  25.5290675  13.4110487  25.1634455
  24.0463877  13.1124544  25.1043773  64.3347224  37.0666367  55.9074116
  63.5224350  37.4571696  55.5850721  64.0602072  36.5102291  56.6363037
  26.6548599  68.0336521  18.0987847  27.2679294  68.0661497  18.8331664
  25.9251464  67.5034986  18.4192371  45.1205301   9.5721745  32.7408123
  45.9904718   9.3721050  33.0863690  45.0246716   8.9940459  31.9839692
  37.9681182   3.9067304  30.0466323  37.4643540   4.7195059  30.0896287
  38.7967515   4.1597784  29.6397376  11.4890015  25.8320236  14.1771841
  12.0749640  25.2783537  13.6611140  11.9339275  26.6785288  14.2184329
   0.1672743   7.4079311  27.9045177   0.4784628   8.3129716  27.9217100
  -0.4065223   7.3374170  28.6674166  61.1973111  75.0766454  29.0678716
  60.5100883  74.7473297  28.4886408  61.5025271  75.8793859  28.6451626
  56.2180758   7.6725280   2.7420643  56.0111475   6.8193662   2.3605850
  56.8725109   8.0463642   2.1519825  24.8322678   3.9014983  29.4089580
  25.6851149   4.3171200  29.2819118  24.9538565   3.0049068  29.0965939
  77.8541279   6.6381198  16.2453508  78.7715816   6.6423428  15.9724069
  77.3959398   7.1138382  15.5525422  15.3489625  37.3698664   5.6208265
  15.7914138  36.9283724   4.8958760  14.4867015  37.5967860   5.2726227
  67.6989230  46.5640819  67.9706668  67.0528420  46.7966425  67.3037884
  67.6137956  45.6154644  68.0661104  50.0364072  73.6729656  11.4715147
  50.8630509  73.9378295  11.0681045  50.2340234  72.8385834  11.8969393
   6.6406001  79.6570722  13.8077700   5.7199873  79.9011071  13.7121177
   6.7503060  79.4989988  14.7454321  79.7221918  75.5056379  37.2126484
  79.8788233  74.6612207  36.7899680  80.5618663  75.9615905  37.1553135
  53.3358415  54.3401486  50.0165368  52.5934108  54.9355596  49.9140001
  54.0988668  54.9156612  50.0695229   8.6375501  38.3797783  44.1687751
   9.1311433  39.1966761  44.2414022   7.7707174  38.6498478  43.8656355
  53.1141710  35.5755520  21.7540884  52.8964424  36.3009810  21.1687875
  52.3501492  35.4903364  22.3243833  37.2179961  12.2896576  17.2809386
  37.8845096  12.2516763  16.5949738  37.4513412  13.0598152  17.7992415
   0.2805794  73.8821171  37.8361440   0.4692949  74.6980588  37.3726177
   0.6188191  74.0250764  38.7201047  63.3351564  18.0747187  41.0841370
  63.9235926  18.8034832  41.2812948  63.7028074  17.6767540  40.2950287
  75.6928570  75.0198636  27.5554657  75.1204879  74.6838127  26.8657613
  75.4766281  74.4923256  28.3243489  63.6650022  56.5412813  55.0600517
  63.9775785  56.2759644  55.9249998  64.1943296  57.3074812  54.8387337
  40.4743767   9.8196471  42.9743290  40.4476786   9.5833576  43.9015198
  41.2204599  10.4147100  42.9001951  54.3621826  18.6775219   6.7514497
  55.2185965  18.3665097   7.0448047  54.3945646  19.6254456   6.8803805
   4.8269615   8.4915692  28.7504196   5.1420772   8.1398505  27.9178166
   5.0146449   7.8025937  29.3878508  44.8944807  26.9972348  12.4156165
  43.9499521  26.8420172  12.4174976  44.9884462  27.8987503  12.1079266
  68.8644123  20.7792783  16.3076329  69.4639730  21.4822769  16.0575271
  69.4356060  20.0753617  16.6149998   8.0974746  10.5816758  53.8665438
   8.6238414  10.4694939  54.6581173   7.9710627  11.5277958  53.7950611
  33.6055517   2.3472565  11.9668996  32.9908466   3.0434844  11.7353046
  34.1165066   2.2040914  11.1702442  78.1363697  69.8951147  17.1342695
  78.3145327  70.8330433  17.0651293  78.8833899  69.5445381  17.6193321
  68.3757062  21.1443802  54.1571236  67.6242990  20.7351251  54.5862270
  68.8356109  21.5996643  54.8624135  38.4042025  29.6612167  13.1950355
  38.9843607  29.1095328  13.7197185  38.6715817  30.5563331  13.4036160
  56.4587623   5.2959937  43.7071276  55.5157954   5.2208287  43.5608625
  56.5614849   6.1153269  44.1912460  35.7745194  38.6641812   7.9500788
  35.4144692  39.5359921   7.7871692  35.0117302  38.1254482   8.1601965
  74.5344599  43.0476659  66.2580750  74.0016469  43.2153740  65.4807613
  74.1845854  43.6426982  66.9212169  21.2668241  71.9588391   7.2095281
  21.5180267  71.0407100   7.3103559  22.0976127  72.4339275   7.1919912
  60.9240818  21.4316964  20.6252480  60.7448959  20.5040550  20.7788849
  61.5913296  21.6573024  21.2734127  31.1257089  79.6314968  22.7312779
  31.3345064  79.2809399  23.5971570  31.9099153  80.1161254  22.4736118
  17.5305545  26.7525744  12.7659249  16.6496181  26.8831444  12.4150181
  17.4209106  26.8081427  13.7151992  73.5005482  29.2322975  66.5745807
  73.4895524  28.3781201  66.1427349  72.6875599  29.6527857  66.2944529
  64.0207871  47.3519164  55.0970519  64.6369108  46.6903001  54.7825909
  63.6059865  47.6894730  54.3031836  21.0069301  14.2390853  58.0595279
  21.1696079  15.1273352  58.3769859  20.5608012  13.8031870  58.7856115
  31.9712949  37.0203686  14.2374253  32.2692227  37.7442050  14.7883606
  31.0299206  37.1644592  14.1410518  30.5471624  59.0895472  19.8710048
  29.7976984  58.7493859  20.3596997  30.6888689  58.4493957  19.1736114
  34.8134971   2.4785505  15.0871396  34.0139532   2.8418040  14.7063375
  35.2948737   3.2417697  15.4065192  68.5503751   2.7708280  25.9844208
  69.1736537   2.2328581  26.4726257  67.8032237   2.8672397  26.5749288
  30.6326389  35.5171943  16.6670489  29.9738836  35.8413887  17.2811913
  30.5064249  36.0459948  15.8792210  24.6924080  79.3653532  34.9328375
  24.1403640  79.3579547  35.7147741  24.6434320  78.4704913  34.5965981
  21.1652769  70.7993094   3.3705238  21.8473638  70.2229176   3.0259073
  20.7036317  70.2645872   4.0164256  71.9987602  70.9109656  44.4910288
  72.8817625  71.0838173  44.8176193  71.4320726  71.0437022  45.2509451
  81.3147349  71.1539040  30.8977294  82.0116277  71.7649988  31.1367559
  80.6138344  71.7106769  30.5586505  66.2884569  25.2554989  24.6291256
  66.1556816  25.9661579  25.2564716  65.6624746  24.5817184  24.8944521
   0.9663094  66.5752910  48.0624008   1.7335285  67.1100817  47.8584290
   0.2255381  67.1746407  47.9714680  61.9873484  35.9905299  57.9008592
  61.5083798  35.6428862  58.6531652  62.5567802  36.6653320  58.2704819
  22.5955868  16.7289853   8.8555002  22.1621323  16.1450875   9.4779265
  23.5228395  16.6813874   9.0882480  77.7104516  67.5349686  28.1080103
  77.2667379  67.0173536  27.4361300  78.6021681  67.1875820  28.1279612
   2.1670331  73.9725629  51.3936996   2.4569524  74.8765407  51.5161848
   1.4661397  74.0317027  50.7444859  40.8717950  58.7447423  60.9910948
  40.3775033  59.2861205  60.3756136  41.7783495  59.0352267  60.8910436
  33.8418683  44.7029507  58.6420406  33.7311497  44.7626325  57.6931406
  34.7876748  44.6276024  58.7685514  81.5383801  42.9377651  27.4478674
  81.8786123  43.6565161  26.9150734  81.6532540  43.2337904  28.3508658
  50.3145266   1.1740422  23.1973481  50.0801325   0.3197959  22.8346467
  49.5000887   1.5051916  23.5758448  33.4832525  16.4505589  11.5128648
  33.5979867  15.8000314  12.2056007  33.6740923  17.2875333  11.9362855
  67.9260572  69.6952730  61.6135187  68.6289509  69.3525344  61.0615194
  67.8751858  69.0807420  62.3456360  11.9212497  72.8775165  33.0090022
  12.4735273  72.1737216  32.6685691  11.8725551  73.5112510  32.2932911
  42.8458261  11.8057311   7.3695403  42.3847342  11.1378312   7.8770244
  42.1503544  12.2960114   6.9311553  44.7243500  25.3398371  42.4142027
  45.1550007  25.2783036  41.5615654  45.3910398  25.0572348  43.0402136
  66.9152021  22.5035095  28.1626463  66.7834759  22.4477744  29.1090989
  67.7790213  22.9039598  28.0642200  17.4519660  33.6879760  60.7485259
  17.9398944  33.0891603  61.3138384  18.0363300  34.4371122  60.6321413
  18.7350392  18.2617366  53.7404966  18.8882887  18.5624826  52.8447866
  18.5030079  17.3378491  53.6465454   5.5659252  18.9600897   4.4914466
   5.4294074  19.6517670   3.8440078   5.4131067  19.3873668   5.3342468
  57.7255201  14.7609293  21.6337943  56.9539261  15.2059865  21.9842148
  57.4228048  14.3640661  20.8170366  15.4643059  25.9034324  21.7839670
  15.7988489  25.5314541  22.6000214  14.7148645  26.4348912  22.0525169
  46.7370367  17.8271568  12.4386036  46.9097519  17.1105957  11.8279159
  47.4298000  17.7545500  13.0951405  17.9367554  47.5008059  12.0975018
  17.5313449  47.4458885  12.9628670  17.2241879  47.7649307  11.5155065
   7.6984960   8.3626920   9.3552744   7.8364259   7.7327931   8.6478609
   8.4796685   8.2829517   9.9026716   0.7993438  57.2059423  62.7336437
   0.8195045  57.0741421  63.6815119   1.1718108  58.0782884  62.6051504
  23.2965561  39.4116929  69.0433635  23.8578369  39.4240128  69.8186336
  23.9045413  39.4720501  68.3065171  15.9636700  11.3810074  55.7389927
  15.2712357  10.9016085  56.1939049  15.6646371  11.4295352  54.8309994
  25.4657578   8.4881759  23.2142091  24.7774434   9.1480023  23.1300354
  25.6504273   8.2185876  22.3145127   5.0202443  56.5713984  54.0803970
   4.4562700  57.3026425  53.8285220   4.8293664  56.4300531  55.0076605
  67.6156576  35.2629910  17.6092708  68.1361360  35.8523236  17.0633554
  68.2624287  34.7741328  18.1181288  82.5245436  35.4421574  57.8477991
  81.9946965  36.1776611  58.1552494  83.2016858  35.8453530  57.3045278
  30.4129470  61.7049942  16.1727941  29.5266832  62.0662055  16.1555338
  30.8724226  62.1640573  15.4696763  20.9375167  24.2878556  25.1748705
  20.3086567  23.5666394  25.1996326  20.8438706  24.6572447  24.2967963
  30.6672764  26.6746616  22.5412416  30.9684825  25.8003283  22.7883172
  31.3058686  27.2684312  22.9360461  11.4152181   8.8415855  23.0040002
  10.5651236   8.4041250  22.9571009  11.4358354   9.4082683  22.2328472
  36.4656997  10.7030678  12.3159313  37.1913767  11.3187528  12.2131670
  36.0905719  10.9154928  13.1705582   1.2921799  61.3926850  28.0435562
   0.8590354  61.1728428  28.8683486   1.2830056  60.5766783  27.5432754
  21.2036670  71.2929551  28.4101844  21.2658943  71.8656824  27.6457620
  21.5228332  70.4451863  28.1009078  29.8238187  77.0881778  63.4897662
  29.1515146  77.7659780  63.5592330  30.4852719  77.4654633  62.9097957
  55.9126409  22.4654263  44.9911404  55.2638134  22.0099622  45.5276156
  56.7504056  22.0832699  45.2525592  34.7303070  77.5855927  19.4670415
  34.8153604  78.5375873  19.4150436  34.2990841  77.3386119  18.6489463
  59.0702494  56.6439742  50.8407260  59.4894346  56.7375606  49.9852980
  59.2140254  57.4866491  51.2713779  17.9206383  52.9269648  20.9177709
  16.9720602  52.9456472  20.7909584  18.1820667  52.0488119  20.6407571
  73.0929478  74.2673880  64.0288139  73.5356339  75.1156145  64.0565122
  72.1956404  74.4739491  63.7672640  46.7626286  29.9702144  18.4226096
  46.5737057  30.6686735  19.0492630  46.9706106  30.4286599  17.6084828
  50.5732870  44.0627766   6.8346649  51.1796474  44.4197369   6.1857116
  49.7148418  44.1147470   6.4144278  30.3953886  42.7107859  18.2230735
  30.4253554  42.8507710  19.1695094  29.7149563  42.0488453  18.1002843
  82.2698172  57.3078924  34.6729804  81.6009911  57.6607853  35.2598096
  83.0996283  57.5846022  35.0616623  48.1715298  39.8442245  19.1799879
  47.3008108  39.5317674  18.9341068  48.7457466  39.5259619  18.4834146
  70.0105580  26.0454553  37.5689889  70.5392846  25.9988147  38.3655453
  69.1123971  26.1488491  37.8833986  23.2705498   7.4654752  24.3569970
  24.1451335   7.5109249  23.9706397  23.4245753   7.2260869  25.2708888
  84.5867666  36.3816476   1.7814495  83.7767461  35.8723378   1.8079755
  85.0303587  36.1690497   2.6025832  60.3446436   0.8008516  28.9913297
  60.7163334  -0.0772137  28.9071870  60.0308800   1.0133624  28.1123400
  68.0867672  67.6819181   1.4700294  67.6153326  68.5149717   1.4675380
  68.0446243  67.3855829   2.3792279  40.7394934  44.5986223  28.7977982
  40.4885340  44.9027729  29.6700048  40.1605511  45.0745964  28.2023931
  32.6822400  46.0661125  35.1767111  31.9125319  45.9566641  35.7351065
  32.6279426  45.3447294  34.5499015  64.2486890  58.4446496  61.9733632
  63.3412417  58.5905069  61.7059750  64.3650611  57.4961394  61.9184310
   2.2716731  41.1782598   8.4290218   2.4004668  41.3141870   7.4903160
   3.1430548  41.2902021   8.8090163  26.8427801  18.0774832   5.3609985
  26.8488646  17.6421618   4.5085365  25.9328294  18.0205643   5.6525099
  15.5588163  61.5694557  16.1897230  15.9554542  60.9938238  15.5358446
  16.2271417  61.6560815  16.8694806  37.6397289  79.4067540  42.6948738
  37.9896415  78.9835864  41.9108295  38.4144796  79.6518123  43.2007837
  50.4810715  14.4381869  44.3610001  50.4484701  15.0685751  45.0805664
  49.5815516  14.1213191  44.2792320  56.2922859  56.9329405  20.4325867
  55.4488230  57.2325516  20.0934172  56.1103535  56.6802073  21.3377142
  67.0191336  32.4116445  14.9288607  66.0708380  32.3311496  15.0312829
  67.3614359  32.3629141  15.8214331  15.7318854  18.9659393  11.8214345
  16.4479196  19.0953302  11.1995137  16.0601830  18.3044338  12.4304199
  14.4887722  40.8990955  50.9332037  14.9497986  40.0631905  51.0035181
  15.1215982  41.4877796  50.5218506  38.6126685   5.4166979  52.4940443
  38.5589743   5.2807516  51.5480709  39.4777513   5.0852740  52.7349234
  62.2823000  24.4234133  24.5628452  62.5403929  25.2903938  24.8758388
  61.4288998  24.2670536  24.9671841  55.0094128   3.5083434  20.1940608
  54.7087955   2.6046720  20.2901912  55.9260750   3.4863326  20.4687905
  73.6467190  62.4663864  33.2692003  74.3550045  62.4220286  33.9115381
  73.0563552  61.7538200  33.5140538   1.4034917  43.5234830  69.3145477
   1.0601594  43.4955731  68.4214771   2.3541333  43.5464805  69.2050739
  63.1596192  35.1824391  53.8756300  63.6313542  35.7264352  54.5063174
  62.2536548  35.4871166  53.9269555  25.0292206   7.1658617   4.4599798
  25.0201774   7.4735498   3.5536253  25.6979465   6.4811409   4.4738078
  40.1861906  33.9827180   3.2192114  39.9432325  34.7993422   2.7829486
  39.7480440  34.0256834   4.0691593  29.3558002  17.5396061  31.1993432
  28.6266494  16.9387972  31.0457134  28.9891529  18.2225609  31.7609262
  62.2408279  62.6592952  63.2115222  61.4413985  63.0578214  63.5554940
  62.9161652  62.8873044  63.8503993  17.0899987   9.5576775  21.6510177
  16.2939072   9.4620025  21.1282206  16.7763543   9.7945243  22.5238061
  13.7305654  64.7769759  25.9669256  13.0831112  64.4299040  26.5805817
  13.3691085  64.5827828  25.1021290  31.6819692  47.0701551  17.9766560
  31.5672469  46.1447191  17.7606821  32.1339917  47.4389553  17.2177792
  38.1280303  38.8925958   9.0490651  37.6329160  38.7323809   9.8524493
  37.4717450  38.8612080   8.3529782  17.2682428  26.0034394  19.9079740
  17.8129220  25.4018378  20.4155469  16.5374017  26.2133670  20.4893804
  78.4124601  43.9318323   1.5708382  79.0148366  43.1881762   1.5894972
  77.5460595  43.5411787   1.6847263  68.2754898  21.2189341  50.1123762
  68.1976318  22.0083809  50.6480503  68.1221867  20.4985595  50.7237625
  22.1012497  56.1410713  40.4553223  22.0000815  57.0912504  40.5115223
  22.8251338  56.0131216  39.8422551  51.1287689  32.6712322  21.3142705
  51.1430359  33.5567045  21.6775393  51.9807768  32.5729656  20.8892322
  18.7434447  46.3756227  29.5429969  18.5721695  47.2810173  29.2838550
  19.0102589  45.9410286  28.7329531  37.4590325   5.5077881   3.7219480
  38.1273413   6.1678165   3.9062217  37.2874045   5.0975662   4.5695883
  37.4899173  38.8016868   4.5503107  38.3207512  38.4186625   4.8317996
  37.5331616  39.7111368   4.8457122  63.5216602  35.7961750  44.2612696
  64.1872986  36.3709617  44.6391321  63.3649119  36.1534518  43.3871914
  52.7983475  21.3466907   8.0283237  53.6215878  21.7820406   8.2496351
  52.8578663  21.1862946   7.0865369   7.0838727  77.3102141   3.6599213
   7.7898897  77.8675781   3.9872095   6.8476213  76.7597423   4.4065121
  54.9607905  42.5857171  57.7325869  55.4794177  41.7852354  57.8131211
  55.4790958  43.2531574  58.1821597  57.0304918  24.0107775  13.6718476
  56.4009762  23.5955715  14.2613792  57.5989723  24.5205784  14.2490506
  17.7419388  18.6321080  15.4368222  16.8122995  18.8521695  15.4966056
  17.9165912  18.5834479  14.4969487  37.9953493  76.2704704   8.6454076
  38.9306272  76.0911975   8.5487169  37.8814615  77.1497361   8.2846391
  30.9903444  79.3999113  13.7080944  31.0331787  78.4734292  13.9447963
  31.8600238  79.7409228  13.9169037  75.1902826  18.7485262  34.5755077
  75.5461616  18.7135692  35.4634047  75.5515797  17.9753443  34.1420508
  49.0961266  19.4582176  48.2136106  48.7044621  18.7141776  47.7561903
  48.4139729  19.7551847  48.8158655  81.0843810  77.1309906  61.9367707
  81.9538840  77.2857267  61.5676463  81.0255011  77.7387386  62.6739318
  51.2107515  14.6345973   4.9070162  50.6617451  15.2535021   5.3884530
  52.0456600  15.0898027   4.7977182   3.1334426  51.4802080  66.3935900
   3.0496909  51.9327992  65.5543176   2.2559573  51.5171307  66.7742327
  43.9383316  31.4419651  12.2482455  43.2847691  30.7903314  11.9943452
  44.7750759  30.9827876  12.1758294  70.5493927  51.9854689   1.4407869
  70.7234669  52.9027271   1.2296826  69.8166132  52.0161486   2.0558685
  69.0178442  49.2457008   9.2377043  68.5026884  48.4402084   9.2827636
  69.9198532  48.9617252   9.3859053   3.2107466  24.7071528  33.7355924
   2.6651782  24.4431162  34.4764471   4.1080970  24.6320891  34.0601993
  35.8205713  68.5835216   3.8341373  36.2672437  67.7582000   3.6455607
  35.0593246  68.5819016   3.2538500  78.2793612  61.9448219  23.6510181
  77.6015062  62.1159087  24.3048334  79.0993805  62.1652136  24.0928626
  25.3457975  37.8204703  33.3249855  25.5877614  37.0142651  33.7807465
  25.8653378  38.5019064  33.7515426  85.0298638  74.5355240  11.1387765
  85.3647847  75.3426699  10.7481682  84.0784163  74.6112011  11.0662842
  48.2049894  20.1272988  12.1686041  47.4993801  19.4919384  12.0475137
  48.6738300  20.1265073  11.3340855  10.9079254  43.0158281  46.3956976
  10.5036759  43.0707121  45.5297852  11.0235333  42.0777655  46.5470362
  58.9793093  76.4842112  19.9807012  58.0705615  76.2334711  19.8147523
  59.2425882  76.9640742  19.1954327  79.1283806  58.6453897  68.1459387
  79.3817814  58.3351511  67.2765874  79.2996748  59.5868725  68.1236043
  35.0175524  38.0076885   3.3371559  35.8842111  38.0884576   3.7354183
  34.5944190  38.8483381   3.5117987  42.8722429  21.1328721  41.5610456
  42.9678249  20.4726791  40.8745766  42.6804066  21.9431877  41.0890102
  55.6451043  77.6073319  64.1815127  56.1144861  78.3247358  64.6072415
  56.3342913  77.0135242  63.8837815  26.0812022  63.7131911  62.5874985
  26.2879112  62.9743010  63.1598104  26.8478038  64.2833763  62.6461638
  71.9945916  43.3744070  47.2821952  71.4072855  42.6686591  47.5527907
  72.6967104  43.3643818  47.9327012  66.5460968   2.8221422  32.6864338
  66.3379002   2.7240896  33.6155581  65.7767296   3.2517573  32.3126245
  16.0571849  61.6155529  27.2451687  16.7220986  61.0690689  26.8262672
  16.1433685  61.4240742  28.1790543   2.4303550  30.0274110  25.2603436
   3.3452433  30.2379560  25.0736070   2.0180148  29.9660730  24.3986917
  62.1236181  20.2230239  14.7967100  61.3835669  20.6902742  15.1843107
  61.9811773  20.2899837  13.8525391  64.1543341  39.1289473   1.1642656
  64.6925974  38.4844732   0.7047492  64.6826887  39.3875647   1.9193730
  50.3140020  46.1590052  15.2062273  50.9310722  45.4387617  15.3354871
  50.7986403  46.9403172  15.4725111  71.7439651  16.6528177  27.0823407
  72.6263905  17.0153368  27.0040250  71.2063742  17.3909783  27.3693013
  71.0336065   5.5204916  14.7901070  70.7163191   4.6231726  14.8919940
  71.9846487   5.4489505  14.8715270   9.7727513  19.9853551  33.3780289
  10.3861904  20.5819726  33.8069487   9.3879467  20.5044389  32.6718354
  70.6950712  39.9084783  11.1088228  70.4820919  39.8125935  10.1805580
  69.9329281  40.3485918  11.4852071  75.9445095  56.2938452  10.6271088
  75.7672024  56.8643093  11.3750172  75.0856495  55.9535599  10.3765166
  60.4195309  28.8925171  21.9524908  60.1632071  28.6913705  22.8525305
  60.2668524  29.8333597  21.8645501  38.2987118  80.3016853  24.0846729
  38.5813189  80.3931618  24.9946165  38.3851767  79.3664789  23.8998818
  20.1131678  22.7669144  17.9849589  20.1270771  23.5145760  17.3874271
  19.6317148  22.0895863  17.5099242  82.6378163  76.9718748  65.6590498
  82.2107895  77.5784284  65.0540931  82.3866089  77.2840530  66.5283439
   1.1569049  37.7436300  44.0837718   1.5716579  38.4778604  43.6308718
   0.4843452  38.1489402  44.6311498   3.2288244  37.5687638  57.9325283
   4.0654685  38.0222638  58.0354465   2.8356864  37.9649819  57.1549118
  46.4124203  37.2238064  33.7709498  47.1821737  36.9062114  34.2430067
  45.7354879  36.5711784  33.9500380  27.2295297  75.6990192  23.2808256
  27.7846731  75.0785051  22.8085876  27.7185691  76.5216083  23.2603264
   9.1768195  20.0808984  53.3235253   9.5771434  20.3858012  52.5092734
   9.3959071  19.1499978  53.3642162  11.5002884  15.4631229  52.3280836
  10.6849278  15.6017633  52.8099561  11.8299593  16.3451954  52.1563495
  55.9329891  12.0358717  42.1795464  56.3570023  11.3422501  42.6848507
  56.0300255  12.8196836  42.7203369  57.3659229  25.2336264   3.8648272
  56.8104267  24.5377707   4.2161715  57.8520870  25.5577922   4.6229798
  66.3970693  55.7630294  60.4900110  66.9070967  56.0377675  61.2519974
  66.6904601  54.8688358  60.3151674  20.9814180  75.5152229   1.2232039
  20.4091896  76.2596292   1.4093396  20.4410137  74.7463701   1.4050221
  31.8670511  19.8401523  33.5772324  31.3345671  20.1819921  32.8590131
  31.8192387  18.8891792  33.4792686  67.5344025  12.6805772  33.0251098
  67.9890143  13.3578386  33.5259867  66.9378005  13.1647386  32.4542379
  17.0903075  39.8132610  14.9908221  17.8320801  39.2183399  14.8809457
  17.2355628  40.4999399  14.3399715  47.8845024   0.9037288  32.1539545
  46.9971371   1.0352615  31.8200183  47.7691650   0.3585961  32.9322600
  80.5804105  64.2265938  48.8920498  79.9859972  64.9379609  49.1305113
  80.0369139  63.6178849  48.3917332  32.5371885  57.7198887  13.6636198
  33.3138943  57.7772522  14.2200971  32.6205802  56.8745613  13.2223773
  70.6617546  26.2196398  31.3149238  71.3937235  26.0401225  31.9050288
  70.3079128  25.3559637  31.1025786  45.3689528  25.6967402  18.8898695
  45.9620333  24.9846005  18.6504042  45.9346724  26.3530159  19.2966807
  76.3249787  56.1949736  62.5908709  76.5064200  55.7053560  61.7886329
  75.8423193  56.9672495  62.2961528  53.3120394  22.4186945  46.8138981
  52.5062990  22.2734284  47.3097944  53.1471872  23.2211471  46.3187933
  58.8104534   3.3456206   6.6609877  59.7156382   3.2921878   6.3543522
  58.7113094   2.5951087   7.2467643  39.4950784  11.9902941  57.9589487
  40.0133432  11.4251800  58.5319067  38.6947931  11.4924951  57.7917123
  62.7496576  30.1721048   1.1393970  61.7976284  30.2588868   1.0910416
  62.9121542  29.7946787   2.0039061  56.5613521  72.3392723  11.9908428
  56.7465938  72.5606743  11.0782099  56.7937339  73.1281726  12.4806035
  67.5108767  10.0983107  15.8783007  66.6867542  10.2612591  15.4194903
  67.7488708  10.9468639  16.2518609  12.5906767  68.4554527  23.4942269
  13.3730043  68.8141201  23.9132118  12.7102579  68.6429820  22.5632262
  25.6358945  70.1380449  67.5925872  24.7116174  69.8955637  67.5364978
  25.9729650  69.6282846  68.3293090  47.8305578  20.5630302  31.7681456
  47.5737190  20.7878733  30.8738804  47.0050335  20.3729773  32.2138214
  81.3586397  10.5447861  40.2450801  81.2042565   9.8398538  39.6162177
  81.3826055  11.3398166  39.7125579  16.0394114  31.0336280   2.9920185
  15.4706019  30.4566336   3.5016882  16.6034335  30.4385853   2.4980259
  51.7203236  31.6931248  14.1162562  51.8615437  31.2838411  14.9699402
  52.2455311  32.4928784  14.1442490  38.6234069  18.9157701  28.4308577
  38.8844967  18.8584030  29.3499708  37.9628992  18.2309127  28.3263040
  21.5264543  55.1999968  61.3955206  22.3600646  55.6648296  61.3230187
  21.6746136  54.5479077  62.0804001  23.5899570  74.2732149  67.1041409
  23.4599139  73.9576203  66.2098697  23.4928539  75.2232677  67.0393480
  26.6201258  11.6520131   9.3223000  27.5263357  11.6134667   9.6281320
  26.3803601  10.7382727   9.1679573  60.7889305   4.0506407  64.1996498
  60.7027764   4.4742676  63.3456296  61.3600875   3.2997223  64.0379966
  50.3821087  52.0462656  10.3978515  50.9316778  51.6351366  11.0650682
  50.9373999  52.7257967  10.0155830  44.1416216  12.4198842  30.2177954
  43.4130907  12.5817800  29.6184087  43.7884855  12.6222122  31.0841608
  34.8400044  53.3906174  35.1792526  34.7938895  54.3386793  35.3028655
  34.1113162  53.1899309  34.5919108  21.1715078  44.2263746  21.8647814
  21.0647535  45.0212574  21.3422894  22.0966268  44.2237139  22.1105003
  55.7570934  30.8562350  27.9097986  55.0880098  30.2506781  28.2289553
  55.4223537  31.7239666  28.1361198  40.2797079  48.2076693  11.4355969
  40.1215935  49.1062498  11.1461401  39.6010017  47.6925945  10.9993839
  79.8081589  26.1743331  43.2258797  80.0548840  25.6445098  42.4678230
  80.5931282  26.6834664  43.4279490  38.1655669  34.4822025  27.5769711
  38.8202071  33.8887668  27.2088528  38.1079507  35.1977444  26.9437933
  72.7030516  27.1600270  17.9541147  72.8017950  26.7074656  18.7917709
  72.6402855  26.4567256  17.3078477   5.7826084  52.9803801  11.7096627
   5.8405596  53.4727621  12.5284624   6.0136938  52.0837879  11.9524729
  47.8021574  24.5483828  51.3825607  47.1324253  24.7741199  52.0281124
  47.3407459  24.0153050  50.7351351  19.8722613  12.4901319  14.2635977
  20.6485844  13.0486882  14.2240024  20.2168608  11.6123867  14.4280541
  30.9409380  41.7404461  24.2613792  30.6181121  42.5165892  23.8035345
  31.4287519  42.0883179  25.0078750  41.2702847  21.8742132  13.7190092
  42.1288157  22.0939517  13.3572376  40.9142923  22.7114868  14.0164590
   5.8038825   7.6925856  11.5165710   5.0856608   7.0675039  11.6148543
   5.6233424   8.1365120  10.6879771  48.5662521  76.6172267  15.8917809
  49.3659891  76.4471782  15.3940547  48.1697811  77.3724131  15.4573429
  29.6552110  23.0380321   9.6615958  29.7076869  23.9797401   9.8248869
  29.2820430  22.9677320   8.7829399  14.0955856  46.9765115  31.0611249
  13.1884744  47.1196443  31.3311196  14.2623594  47.6586664  30.4106761
  84.0108013  34.2364025   5.0195408  84.7615719  34.1351485   4.4344506
  84.2465973  33.7357903   5.8005780  68.8855743  30.9279752   1.3196301
  69.0364742  30.3636622   0.5613342  67.9378939  31.0618973   1.3337220
  48.3189917   6.1202252  26.7556787  48.7226677   6.1790448  25.8897591
  49.0504313   6.2054044  27.3672104  45.7711996  68.4553871   9.6758533
  45.0232805  68.7226270   9.1415942  45.9031929  69.1826926  10.2839947
  41.0816349  66.4433310  26.4471626  40.4979910  66.1627684  27.1520567
  41.2788547  67.3579345  26.6492462  44.3447733  10.4784536  26.8282795
  44.8646021  10.1356781  27.5552678  44.1311073   9.7077715  26.3023257
  61.6455992  56.1477250  53.4592963  62.4079498  56.2178737  54.0338684
  60.9104475  55.9986359  54.0539003  18.7372065  35.7515550  36.4011335
  19.2211890  36.2555337  35.7469201  18.4716845  34.9550104  35.9415150
  48.2566929  24.0170097  15.9906459  48.2288456  23.1877589  15.5133653
  47.7121878  23.8669705  16.7634535  14.8338240   6.1275059  34.2560029
  14.4277304   6.8137747  34.7854877  14.1491622   5.4662484  34.1549659
   5.1528567  38.2447648  14.8221374   4.2945021  38.4860587  15.1703334
   5.2618045  37.3263192  15.0687516  18.2705415   2.0666548  65.9632192
  18.0093111   2.9548260  65.7200179  17.5112642   1.7118307  66.4256356
  38.2430625  30.1145530  18.9834714  38.6625147  29.3572783  19.3919194
  38.3685827  30.8257008  19.6117580  52.6410866  49.5707846   8.0987829
  52.0254803  50.2455044   7.8124142  53.4709597  50.0349045   8.2089227
  66.3507320  56.2877546  13.8379812  66.4358098  55.5030094  14.3794334
  67.2383613  56.6427217  13.7895560  21.3266338   8.9130112  51.3825381
  20.4675115   8.5135313  51.5187646  21.5166391   8.7625070  50.4565371
  64.5899685  53.2637936  57.8493655  64.3727525  52.4426597  58.2907153
  64.5591196  53.0499488  56.9168687  20.0285305  73.5278473  39.0141582
  19.2213930  73.2703284  38.5686851  19.7969831  74.3279401  39.4858241
  75.9935093  16.7250812  14.0370631  76.8269587  16.2543595  14.0404928
  76.1410379  17.4690807  13.4531701  28.3627285  78.4090392   8.4536338
  29.1731418  78.3628238   7.9463565  27.8125681  77.7153395   8.0898553
  28.0059589  70.5959682  28.9004374  27.7773346  71.5254633  28.9016819
  27.1646751  70.1423214  28.9522338   7.2198761  61.3811922  31.8418527
   6.9079018  61.5390110  32.7329183   6.8934339  62.1268511  31.3382101
  37.8204788  32.5214620  66.2670196  38.0595935  31.8936106  65.5852169
  37.5337137  33.2984777  65.7871748  82.4659729  27.0027566  11.9905865
  81.9159603  26.9950771  11.2072217  82.2124195  27.8013229  12.4534440
  66.2493976  76.9689065  56.8882657  67.0545228  76.7529637  57.3587692
  66.1387905  76.2535554  56.2619508  15.8109344  65.6971345   0.2325780
  15.7026781  65.4543422   1.1521235  16.7583431  65.7020793   0.0961008
  30.9175658  40.4835510   5.3147662  30.4928422  39.9174881   4.6702391
  31.5659165  39.9205303   5.7377070  51.8119240  38.5023952   7.8889412
  52.1080637  37.9133058   7.1950334  50.8749676  38.6118340   7.7265584
  24.3196440  20.1873374  29.3398309  24.3578625  19.4153607  29.9044776
  24.9363279  19.9976683  28.6327553  34.0715218  13.0773890  46.3029766
  33.7256384  13.1612015  47.1915531  34.9223113  12.6536083  46.4161110
   8.4379937  54.4294947  57.9537941   8.2090022  55.3135830  57.6671172
   9.3094232  54.5208472  58.3391560   7.5944579  16.3141680   2.9542276
   7.8591216  16.5009451   2.0535061   7.9283351  17.0547819   3.4604383
  33.1631340  55.9302459  28.1500268  33.6184515  55.8242212  28.9852953
  32.3873104  55.3750382  28.2279897  69.4350004  42.6876020  10.3916883
  68.8607407  42.0572615  10.8265817  68.8653898  43.4292126  10.1872683
  46.3755846  41.3235331  16.7443907  47.0281029  42.0236778  16.7601907
  45.9528255  41.4093685  15.8899069  54.7919798  33.3808517  22.8234291
  54.1305733  34.0309644  22.5865173  54.7466230  32.7276254  22.1252370
  70.7471657  26.6283798  24.2181778  70.6165028  26.2298155  25.0785899
  70.2238941  26.0911226  23.6233902  42.6055241  61.7029238   9.1543138
  42.5399828  61.1890316   8.3494216  43.4159708  61.4020348   9.5652616
  62.0142555  58.0530071   2.8301179  61.5824366  57.3267508   2.3803183
  61.2980652  58.6294174   3.0966860   3.1256694  14.1502655  33.6885858
   3.2816809  13.3649194  33.1640625   2.1788615  14.1603863  33.8288927
  52.7246284  56.7927027  15.7403016  52.7562761  57.7493143  15.7514381
  51.8490553  56.5782690  16.0622060  65.6596375  13.0676436   5.3609145
  65.9454775  13.6091232   4.6251658  65.2928829  13.6905003   5.9884280
  19.7216571  15.6642338  55.9770168  19.6104206  16.4970632  56.4355481
  20.1055969  15.0801702  56.6310001  49.7923088  66.0225248  11.5519083
  50.3585482  66.7752600  11.3816273  49.4907618  66.1483240  12.4516177
  65.9701920  20.5234194   5.0509006  65.6860685  20.9612560   5.8532751
  65.9418297  19.5906949   5.2640957  53.5246801  57.5151873  27.5236082
  53.5058403  57.4495745  26.5688467  52.7405357  58.0176640  27.7446723
  10.2933204  25.1837039   7.5816333  10.3656304  25.9444189   8.1581026
  11.1904788  25.0153756   7.2935277  29.4050360  36.6966319  23.9674044
  29.5879555  36.9539237  23.0637598  28.8447595  37.3947430  24.3064690
  26.7779029  76.4270816  34.7822571  27.4968732  77.0097209  35.0268936
  27.1285118  75.9034769  34.0617418  66.9876372  37.1865453  23.4767628
  66.1136972  36.7964353  23.4601259  67.3722779  36.8775644  24.2970133
   3.8894775  66.8251067  66.3059825   3.2036187  67.2277862  65.7733673
   3.8358237  67.2777158  67.1477064  49.9468899  75.8892345   3.9243311
  49.6255493  76.6499853   3.4403542  50.7164240  76.2114668   4.3936032
  62.7598381  25.2633119  53.5879421  62.4324179  26.0814261  53.2141542
  62.5242853  24.5948625  52.9445744  63.3353233  38.9329720  23.0362058
  64.1571093  39.4137907  22.9376626  63.5715437  38.1563950  23.5435128
  44.3754578  46.8106556  17.3366296  44.9218798  47.4801111  16.9249427
  43.6381435  47.2969151  17.7056098   6.5094770  24.4038482  50.3531445
   6.8095959  23.5114380  50.5256439   7.3124565  24.9001308  50.1945246
  79.2193127  60.9373474  38.4424663  79.8282242  60.8596563  37.7080131
  79.3507719  60.1355028  38.9484262  55.9194231   8.0993193   8.5110426
  54.9651194   8.1474328   8.4542960  56.1369085   7.2353160   8.1611431
  36.9461846  52.7597332  33.2885742  37.3987651  53.5938311  33.1633449
  36.2177968  52.9679394  33.8736677  55.9362316  18.4057212  25.2609205
  55.4967356  18.7525094  26.0373282  55.6850719  17.4823999  25.2358699
  12.3186684  38.7216926   9.0105438  11.8142450  37.9286170   8.8293809
  12.9031992  38.4752488   9.7273558  60.4776859  18.7727129  18.7743044
  59.9086905  18.6393416  19.5323837  61.3408422  18.4818506  19.0685737
  26.8800176   1.3984485  41.2492538  26.2102617   1.8965383  40.7806779
  26.4519895   1.1262842  42.0610119  67.5733614  51.5543747   9.7514606
  67.6695871  52.4200630   9.3545276  68.1456137  50.9883881   9.2333770
   1.8058795  44.0078115  22.6383448   2.3609656  43.3311462  23.0259466
   2.0001906  43.9695835  21.7018533  71.7714453  69.3261719   3.6700031
  71.6750193  70.2782726   3.6489940  71.1714935  69.0398121   4.3586889
  72.7559233  18.4354281   7.5974125  73.5681629  18.3123159   8.0886799
  72.8657150  19.2802083   7.1609211  58.8201904  29.1247106  24.5783949
  58.1085396  28.4966326  24.4546747  58.5946989  29.5861030  25.3861737
  46.5879679  48.3089828  15.6673634  47.0570421  47.7441549  15.0532234
  46.1433697  48.9494467  15.1120496  46.9532394   1.2352585  18.1486201
  46.8889141   2.0437793  18.6569393  47.4106264   1.4915776  17.3477876
   2.5855082  40.5499220  22.3200917   1.7939109  40.0166273  22.2479725
   2.7194709  40.6535530  23.2621884  82.6077366  38.1045198   4.9673778
  82.6679230  39.0553927   4.8754606  82.0266914  37.8315568   4.2573673
  11.9428041  76.2607008  67.8058458  12.2530153  76.6520077  66.9892207
  12.1724250  76.9000560  68.4801812  71.7177105  36.7908883   9.1336560
  71.6446304  37.6291013   8.6772674  70.9502745  36.7615438   9.7049814
   2.5150603  65.3668880  13.5103416   1.5842074  65.3773737  13.2875288
   2.5326937  65.3953171  14.4669569  17.5087894  -0.1398806  60.5844016
  17.8632272  -0.0913099  61.4722342  18.0714382   0.4388614  60.0698978
  82.0838070  60.1092625  22.1345448  82.2220802  60.8849907  21.5910769
  81.2594128  59.7393656  21.8186688  76.7766762   8.8053095   6.3834137
  77.0304680   7.9388040   6.0656238  77.5015545   9.3758738   6.1279935
  43.4802302  58.8413674  60.2423490  43.6212774  57.9583305  60.5837930
  44.0719410  58.9056402  59.4926966  69.2956543  13.1099939  38.5179043
  69.7140169  13.7082660  39.1369963  68.5534286  13.6048925  38.1709075
  29.9681200   4.7275539  47.8478790  30.5612100   5.4782959  47.8773499
  29.1573347   5.0772138  47.4782921  79.0332031  10.8478272  13.1211591
  79.1233969  10.5296206  14.0194023  79.3535280  10.1272988  12.5785124
  34.7595930  14.6945977   5.2706850  35.3353810  15.0601506   4.5990652
  35.3530502  14.4084084   5.9650463  80.5742645  38.5153103  39.0569639
  79.9342966  39.1131687  39.4432759  81.3840580  39.0241385  39.0175533
  24.7499241   0.8171554  52.6349211  24.2059435   1.1280104  51.9112611
  25.4173006   0.2733465  52.2164560  57.6459408  51.4796972  11.2963235
  58.5139704  51.7849922  11.5600622  57.4935150  51.8953037  10.4476368
  45.9751638  54.9732596  68.8642850  45.6702109  55.6784600  68.2933844
  46.9213625  54.9428075  68.7228247  64.7620106  72.0991230  36.0741568
  64.8533106  71.5887880  35.2695107  64.2898893  72.8872967  35.8056188
  75.4332503  42.4762550  28.8015462  75.5281790  43.2652008  28.2678939
  76.3099106  42.0923698  28.8195658  53.7465334  70.0140619   6.3086128
  54.2382336  69.2039585   6.4434880  54.3222809  70.7020807   6.6423440
  72.5155354  32.5148535   7.3504800  72.3202801  33.4467530   7.2521514
  71.6705084  32.1130872   7.5523400  57.6340389  58.8346910   4.4432756
  58.4854650  59.1248798   4.1160166  57.8439236  58.1806469   5.1099181
  38.2571626  19.1852403   3.4076864  37.4357486  18.8693273   3.0312425
  38.4540272  19.9833810   2.9173324  61.9119692  51.8572426  21.6609740
  61.4050674  51.1172962  21.3266659  62.0878363  52.3953247  20.8891106
  17.2578108  57.3150110  28.5308003  17.0042074  57.2060347  27.6142645
  17.2454321  56.4277887  28.8898540   4.6112097  78.1359083   7.2156024
   5.0324262  78.9845827   7.3518372   4.8990477  77.6038278   7.9574043
  59.5849180  36.3411689  12.8787482  58.9109945  36.8615413  13.3160961
  59.8446417  36.8706226  12.1247911  76.1028862  42.0089006  14.9912679
  76.3805723  42.1841383  15.8903873  75.4064655  41.3580036  15.0782263
  55.4703188  42.1654940  16.1107457  55.6433201  42.8432846  16.7641258
  56.3255644  41.9850588  15.7205844  10.1759267  51.2859821  33.1133389
  10.7265103  50.9227943  32.4196649   9.8628527  52.1184540  32.7594900
  34.5350099  57.1837902  16.2128699  34.2749858  56.6215324  16.9425833
  35.4028440  56.8662930  15.9632897  57.4376869  53.4902143  15.8104467
  57.3847532  54.1162920  15.0883257  56.5965700  53.5714960  16.2600565
  77.3075663   1.3393106  19.9597538  77.7032410   0.7570161  20.6082916
  76.3646971   1.2299814  20.0833321  36.6446948  22.6837349   9.6785933
  35.7417774  22.7247763   9.9936944  37.1372437  22.3127699  10.4107225
  17.4130553  42.2432566  35.0341654  17.6458758  42.1807671  34.1078162
  16.6307563  41.6986752  35.1217723  73.5707951  65.2954245  33.0998731
  73.4750509  64.4292164  33.4957910  72.6805353  65.5454826  32.8526115
  35.3016257  49.4539165  19.4612038  35.6169033  50.0787306  20.1142287
  34.7137332  49.9649954  18.9049578   6.9293607  13.8829466  53.7185598
   6.1222972  13.4911009  54.0522350   7.0049871  13.5505863  52.8241051
  15.4431118  71.1838583   4.4348246  15.4031957  70.2730964   4.7266319
  14.6461643  71.5825079   4.7843787  15.1006582  23.4786707  52.3571551
  14.1590287  23.6429602  52.3064221  15.1735141  22.6433867  52.8189183
  54.9070168  22.6365519  39.0354490  55.1445055  23.0260944  38.1939697
  55.5316401  23.0101562  39.6571374  81.1626850   6.8502321  43.4972763
  80.5617319   7.4153032  43.0116987  81.1021077   7.1573915  44.4018269
  26.5464128  25.6729027  38.0960465  27.2337831  26.2057730  37.6962925
  26.0308517  26.2938114  38.6107279  24.3080854  42.9604626  39.9498701
  24.0570712  43.2665825  40.8213711  23.5006499  42.6039934  39.5794559
   6.7113799  78.0047417  22.7931094   6.7488688  77.4202633  22.0360065
   7.4726409  77.7626944  23.3204865  40.0673103  36.9700551   8.9970285
  39.6964383  36.5909553   8.2001793  39.4373751  37.6416945   9.2583936
  58.1835413  56.5907097   9.6436918  58.7090778  56.9626236   8.9353645
  58.8176012  56.1390114  10.2006221  46.1400700  38.7347865  17.5654948
  45.9811926  39.6543765  17.3525560  46.4778376  38.3559155  16.7539513
  62.3072195  42.4404907  20.0901580  62.2982264  41.6124487  20.5702567
  62.7918196  42.2468472  19.2877269  54.2891073  28.4284568   9.2752844
  53.4732533  28.9053702   9.4274950  54.0127134  27.5262618   9.1144013
  64.2064632  11.5109535  48.7674547  64.5221294  11.9033571  47.9534484
  63.4528412  10.9835573  48.5026122  27.8537035  61.0378647  49.9817562
  27.5879312  60.6607008  49.1430998  27.1352243  61.6240835  50.2191687
  61.9900990  39.9634600  13.9197838  61.6731501  40.0575256  14.8180759
  61.2918949  39.4896698  13.4678280  68.4776115  42.9852438   4.8697570
  67.9748631  43.7554312   4.6046382  69.3716240  43.3090544   4.9798748
  75.5829675  11.6052433  57.5144196  74.8435302  11.8815800  56.9730271
  75.6359894  10.6586881  57.3823310  36.1396742  34.9486923  15.3411067
  35.3042650  34.6625042  15.7104588  36.7976308  34.6192336  15.9533024
   1.0228708  68.1664282  66.1953527   0.3741863  67.4745089  66.3245467
   1.3479736  68.0269056  65.3059304  34.5015812  39.9132705  24.2328358
  33.6582232  40.0406981  24.6672773  34.3822122  40.2925777  23.3621407
  64.5009674  70.9288166   3.7630680  64.4396461  71.8820987   3.7020409
  65.1695503  70.7740460   4.4303557  43.5056019  33.3349371  20.8847475
  43.6109734  34.2704630  21.0577250  43.6010695  32.9205632  21.7423081
  24.2956842   4.4570108  62.3272831  24.7139562   4.5500990  61.4713532
  23.9777435   3.5542723  62.3415846  52.6130893  54.1031212  62.2541518
  52.1620681  54.8790711  62.5868893  52.4363353  53.4252268  62.9064167
  63.3586359  29.2290330  22.4931431  62.9390764  28.3932805  22.2888970
  63.8892078  29.4256711  21.7210960  44.3243980  67.4659014  16.3987851
  43.7512255  67.7445889  15.6846166  44.2458391  66.5120029  16.4106131
  45.3140640  77.6662159  13.2125199  45.7359982  78.3933783  12.7548838
  45.2954865  76.9571829  12.5697434  16.6831195  25.9035468  33.4348011
  15.8161128  25.4999638  33.3941627  16.8448961  26.0299301  34.3697286
  82.2175463  72.6820666  65.7250712  82.4485930  72.7905589  66.6476095
  82.8482636  73.2270414  65.2545074  71.8600368  53.7551689  11.0711455
  71.1088276  53.4517860  11.5809309  72.3501587  54.3126869  11.6754484
   5.4637259  55.2870607  16.2254071   5.7111853  54.5609999  15.6528473
   5.9653491  56.0330582  15.8966303  39.9983146  77.1078306  65.1755179
  39.6305396  76.2345678  65.0399131  39.2767551  77.6168781  65.5449254
  36.1455202  26.9755721  11.4889419  35.8540368  27.8608036  11.7071950
  36.3376212  26.5712404  12.3350179  70.6226063  46.6354847   8.8837469
  70.4158163  46.9907570   8.0193084  71.5530634  46.8250799   9.0042990
  76.4192494  68.5780674  51.4715470  76.5808543  67.7750808  51.9668544
  75.4657038  68.6591488  51.4512396  83.0212975  56.5837622  19.2064393
  83.5746479  56.0113049  19.7377837  82.1392632  56.4556170  19.5554686
  76.0416412  47.7897453   6.8623000  76.3363314  47.4417019   6.0207206
  76.0580015  48.7398958   6.7475021  11.2316968  60.3076249  56.2321902
  11.0245063  60.6615239  57.0970941  11.0054996  59.3795055  56.2926984
  34.2005470  55.7326299  66.6181595  34.1393497  56.3165921  67.3741189
  34.4912746  56.2974328  65.9021247  67.6201976   5.3966184  45.5245209
  67.2627510   5.3104587  46.4082862  68.2358612   4.6682211  45.4431058
  47.3679447  54.7962713  39.1324282  48.3087444  54.9585629  39.2016077
  47.1635294  54.9609947  38.2119322  68.8541889  33.4602118   2.9813418
  68.9355707  33.9042139   2.1372619  69.0564728  32.5442696   2.7906528
  21.5556639   7.0293915  29.5306754  22.1398562   7.7876455  29.5327210
  22.0751113   6.3257867  29.9197125  60.5289888  12.5868499  19.3386936
  59.6926832  12.3430347  19.7354043  60.6953049  13.4742069  19.6567619
  49.2531252  33.4188080  24.1483355  49.6272087  32.6681924  24.6097136
  48.6329842  33.7979913  24.7711349  23.5589790  23.8628888   2.0194814
  22.7406120  23.3741546   1.9320360  23.4672832  24.3377209   2.8455314
  23.7130000  62.7422696  65.6446750  24.1934516  62.1361476  66.2086043
  24.2627170  63.5251695  65.6112737  34.1796511  57.2842741   8.1456786
  34.9085635  56.7242861   8.4127474  33.9474887  57.7691746   8.9376396
  56.8796977  44.8324838  46.2862063  56.4126190  45.5769843  46.6654015
  57.1341117  44.3002278  47.0400000  71.6076374  66.9361115  10.6082082
  71.1773062  67.4116421  11.3187885  72.5121260  66.8313646  10.9034288
  64.4580806  47.7018686  69.1733715  64.1843284  47.5459047  68.2695093
  64.6590294  46.8311449  69.5164132  81.3321877  46.0683155   9.2300427
  81.5731144  46.5498686   8.4386575  82.0000172  45.3870821   9.3085271
  65.3144121  60.5185747  40.3462791  66.1149406  60.1501560  40.7199812
  65.1454163  59.9855900  39.5693636   5.8320445  20.6225610  26.8978524
   5.4253787  19.8081613  26.6018724   5.2274245  21.3087010  26.6152239
  30.4524435  34.6829172  48.3391262  30.6932462  34.0665384  47.6475144
  30.6845869  34.2336508  49.1518379  21.7317369  77.1043521  66.1554787
  22.2699382  77.4802118  66.8521125  21.3441827  77.8618747  65.7170836
  56.3682508  12.5603223  16.7807639  57.1203852  12.4570549  16.1977887
  55.9164906  13.3381259  16.4533997  12.0615604  77.6049167  65.4923407
  11.7350747  77.4450833  64.6068496  11.6470697  78.4265238  65.7557685
   9.7594600   3.0190649  39.3585324  10.0223642   3.9174928  39.5584059
   9.3574672   2.7016248  40.1671505  42.5135040  55.8910465  29.6325040
  43.4530830  55.9269238  29.4532371  42.2026014  56.7797089  29.4597340
  55.4241896  31.0832095  14.2705584  56.3098335  31.2728047  13.9608526
  54.9550200  30.7897806  13.4895265  60.4043531  64.1270638  17.3626959
  61.1554432  64.5328140  17.7956617  60.6538200  64.0853357  16.4395201
  38.0996717   8.5873981  66.3247654  38.0429948   9.4702288  66.6903195
  37.3248781   8.1381174  66.6625128  57.8949118  41.3614941   5.0237811
  57.7931404  42.1475649   5.5604029  57.2125864  41.4368868   4.3567109
  81.8993126   6.9212045  50.0415373  82.6646792   7.0234480  49.4758606
  82.2415100   6.5105905  50.8355951  31.9127668  20.5503174  37.7472091
  32.5967849  20.0332399  37.3217893  31.3830770  20.8874317  37.0247007
  13.2535375  28.6538883  54.8302425  13.7485040  27.8346535  54.8401952
  12.3869766  28.4062572  54.5077861  49.5077991  58.1811380  15.1265109
  48.6238527  58.2187891  14.7612035  49.4294596  57.6010609  15.8838773
  73.3162832  54.1888523  25.2102804  74.2156601  54.4069147  25.4548240
  73.0269527  53.5744047  25.8847952  51.5631294  35.0064206  13.7880707
  51.0266352  34.2185068  13.8752306  52.4598980  34.6790576  13.7182832
  50.9865904  53.4055948  18.0556870  51.7580843  52.8756380  17.8552341
  50.9825706  53.4711409  19.0106308  42.6923383  32.9108425   3.3471108
  42.5097431  32.1469827   2.7999259  41.9674505  33.5105749   3.1707764
  72.9931077  52.8635424  66.7887563  73.8809737  52.6076072  66.5389008
  72.7129754  52.1863586  67.4045309  10.4351224  18.3855291  66.1770458
  11.2876810  18.3582302  66.6113580  10.1696766  17.4681326  66.1125875
  78.8226374  79.8674971  64.7557161  78.2458981  79.2536217  64.3010033
  78.2426270  80.3488260  65.3457541  61.2344790  50.8806705  24.2169142
  61.6004229  50.0233793  24.4345593  61.7145205  51.1545992  23.4354043
  -0.0917894  75.3981686  27.5993538   0.3334254  75.6795502  28.4094477
   0.3272837  74.5644569  27.3859668  35.9314513  54.5716715   5.7974821
  35.5858421  54.9316597   4.9806628  35.2108622  54.0522671   6.1541373
   6.1835879  54.4579744   1.6384149   5.9491366  53.5413170   1.4934984
   7.1251315  54.4401550   1.8099087  19.6852511  74.7805786  16.8514299
  20.1704043  75.5049229  16.4562333  19.7910517  74.0565300  16.2343466
  29.2515039  74.8997307  13.1870222  29.8000455  74.1171789  13.2412767
  28.4008145  74.6198225  13.5249758  28.5911955  10.8590742  65.6461016
  29.5256389  10.9739443  65.8188934  28.4176649  11.4162250  64.8873550
  80.4504858   3.8674535  59.0065193  80.4019390   4.7811689  59.2875862
  80.0831162   3.8689127  58.1226254  11.6883105  30.7410240   9.6283478
  12.1442717  30.0088453  10.0433791  12.3693198  31.1989307   9.1356146
  55.6764317  39.8799205  18.6268628  55.5257177  40.8238316  18.6773956
  55.7901239  39.7052050  17.6926351  72.6219702  72.5325251  14.1388500
  72.3040867  71.7975473  14.6632481  73.2305002  72.9933405  14.7164047
  22.6571864  48.0647707  35.2978730  23.3929080  48.1683969  34.6943736
  22.6375979  47.1278763  35.4930091  64.5109940  60.7129622  32.9816937
  65.0738049  60.3291225  32.3092794  64.4221258  60.0248146  33.6410809
  36.1282849  37.2177911  13.9140308  36.0866952  36.4313817  14.4581461
  35.2132702  37.4311996  13.7311816  76.6219330  76.3614702   9.2938441
  77.4356747  76.2350368   8.8059211  76.5538025  75.5861187   9.8510009
  81.9795895  54.9789429  57.7225399  82.3625088  54.1161823  57.8814363
  81.6385460  55.2502632  58.5747766  78.6919594  38.5176873   4.1496179
  78.6718321  39.0775299   3.3734709  79.4602776  37.9609060   4.0234673
  55.2566290  65.4965782   0.4533708  55.4441881  65.4308033  -0.4829668
  54.8637962  64.6533012   0.6787694  71.1411524  62.9884863   6.8245667
  71.7622948  62.4435234   7.3077148  70.3483343  62.9809952   7.3608643
  32.8860344   5.3427120  65.1770232  32.3554290   6.1066194  64.9508960
  32.6271309   5.1280399  66.0731912  23.7173801  19.9373521   9.0285385
  23.7676387  19.2213907   9.6618676  23.0017572  20.4881277   9.3459702
  60.4806757  68.0397224  31.5471578  59.9969435  67.5545931  30.8786654
  61.4002562  67.8460217  31.3652563  36.3543428  14.7468086  55.2705062
  36.9304098  15.2638527  55.8335758  35.5234398  15.2219768  55.2770961
  73.2789191  65.0483853  64.8994655  72.7615031  65.0354558  65.7046664
  72.6977786  64.6776229  64.2353535  54.3755102  36.3825393  14.1810942
  53.7600803  36.8963194  13.6581159  55.0703526  36.1440158  13.5674703
  29.4747604  36.7245146  53.5198105  29.5196737  37.6013799  53.9010168
  29.0963424  36.1817404  54.2114974  28.3300114  47.7128410  39.5186305
  28.6691928  47.9111576  38.6457849  28.1332278  48.5687637  39.8992920
  56.3665628  72.0835114  31.7324257  57.2312450  72.4342918  31.9457531
  55.7962656  72.8518200  31.7059731  79.8886681  46.9612741  18.0706167
  80.5328751  47.6679373  18.0274820  79.3937683  47.0382166  17.2549069
   6.0674781  45.7143307  27.2268462   6.7729777  45.3300285  27.7472353
   6.0730094  45.2151346  26.4101434  69.5474100  33.8800478  18.9153886
  70.4081774  33.8841367  19.3340683  68.9596033  33.5205007  19.5798004
  32.5066662  65.1585627  28.0993462  32.0695400  65.7988739  28.6607337
  31.8390489  64.4941092  27.9289889  45.3350353  36.2799144  14.0579116
  45.6321669  35.9911346  13.1950378  44.4830418  35.8586121  14.1712201
   3.2023829  43.0060291  26.6524220   3.5765094  42.8461075  27.5188422
   2.4411887  43.5619307  26.8191123  55.5516958  19.7335386  37.7527308
  55.6297207  19.8447943  38.7002373  56.3776588  19.3270373  37.4904823
  17.3434509  18.7293907  19.7304774  17.0136560  17.9935070  19.2147780
  17.3951210  19.4543215  19.1075564  48.9782810  39.4868231  12.5690556
  49.4598532  38.6668181  12.4599099  48.8556004  39.8130226  11.6775537
  79.5760822  45.3944206   5.7824701  80.0140381  44.5541525   5.6468940
  79.7001314  45.5817938   6.7129195  83.7864780  74.1631699  15.1163626
  84.5640564  74.6142769  14.7875679  84.0517139  73.2458162  15.1822984
  74.0953970  37.2953033  26.5262842  73.9087772  36.7209148  27.2689056
  74.2153215  36.6994405  25.7868266   7.7147216  38.9304543  23.4330225
   7.9566783  38.7759399  22.5198889   8.1760997  38.2488632  23.9216828
  81.9773579  58.9410400  10.3994298  82.3701477  58.3675814   9.7413343
  81.4443779  59.5552111   9.8944998  28.7216144  33.2242860  15.7786834
  29.4164329  33.8072958  16.0845733  28.1235843  33.1533994  16.5227056
  42.4324560  47.1928692  22.2201371  43.0598640  46.7627478  22.8011584
  42.3518705  46.5995455  21.4733410  66.7300558  52.3571777  19.0363431
  66.4077091  52.9121780  19.7464836  65.9440088  51.9425917  18.6807108
  51.5295553  63.4716558   1.9897240  51.1763573  64.1512823   2.5638282
  50.9189367  62.7401495   2.0806876  45.4457582  19.7345968  65.9782530
  44.8510183  19.2471977  66.5483079  45.0690521  20.6134649  65.9344912
  50.8615923  24.4236898   2.5397462  51.7826748  24.6486044   2.4084201
  50.6780767  23.7648678   1.8700396  36.6178526  24.5022102  51.3354743
  36.6271127  23.6228700  50.9574497  36.2527193  25.0558134  50.6452358
  83.1814003  69.1638279  48.6112165  82.8962421  69.1553402  49.5249176
  84.1098213  69.3931532  48.6521816  54.7047663  15.8995318  25.2129245
  55.0023127  15.3632510  25.9478402  53.7497091  15.8813119  25.2743483
   0.9811038  73.6774349  23.4823895   0.3985423  73.5032034  22.7431393
   0.4226130  73.5854483  24.2543101  14.1356235  11.0719385  16.7778111
  13.2544570  11.4074316  16.6128039  14.2574267  10.3857698  16.1216402
  71.2931490  60.5839157  18.1025541  70.7131386  61.3126659  17.8817737
  70.9879637  60.2860451  18.9595079  31.8265642   7.0364614  50.0536562
  31.8578304   6.1498686  50.4131175  32.7214969   7.3635813  50.1448358
  66.1062479  56.4277458  20.0090241  66.1780643  57.2700977  19.5601153
  66.4254951  56.6003847  20.8947492  18.6521357  74.4755793  24.4150615
  19.4239444  74.8974323  24.0374613  17.9391593  74.7020197  23.8178778
  23.7253875  54.4066048  14.6073866  24.4810504  53.9506817  14.2367959
  23.9113063  55.3344965  14.4635940  17.5895995  79.2012596  18.8386714
  18.0555648  80.0253487  18.6973095  16.7990130  79.4520521  19.3164921
   7.2519892  26.0164261  25.6948447   7.1893042  26.9709563  25.7291293
   7.5701064  25.7659817  26.5622020  76.3031149  58.0777550   8.1195617
  76.6488600  57.6139402   8.8821673  75.4488564  57.6758003   7.9617578
  81.9066238  39.8985624  15.0740862  82.3445034  40.7496786  15.0839078
  81.1274052  40.0238419  15.6157088  40.8803619  21.0292908  52.7764917
  40.4076017  20.4063745  52.2244919  40.2859272  21.2013717  53.5067392
  70.2759314  22.7977562   9.9736881  70.9885931  23.3888602  10.2164721
  70.7154083  21.9935632   9.6973366   6.3534750  12.6271101  59.0943826
   7.0397795  12.0078893  59.3429483   5.6212510  12.0753761  58.8193000
  43.3064235  45.1464697  68.7481741  43.8941921  45.1271578  67.9929354
  42.9722513  44.2519518  68.8145298  25.2802194  22.9430862  64.1876317
  25.6636680  22.0714231  64.0906603  24.3512548  22.7793499  64.3502582
  40.4012788  27.5728174  68.2930883  39.6202196  27.4717136  67.7490692
  40.0888599  27.4390121  69.1879199  16.3641852  78.9904690  36.1285138
  16.4437121  79.7348213  35.5319834  15.4340571  78.7653446  36.1079264
  38.2495046  54.3682289  13.1696975  37.3536587  54.1892576  12.8839374
  38.7795424  54.2560720  12.3805785  23.1952024  60.9506607  11.4228272
  23.6224103  61.6832495  11.8667161  22.8760338  60.3936386  12.1328223
  12.0063596  48.4518232  22.7513242  12.4885945  47.6571169  22.5230265
  11.4042812  48.5852613  22.0192575  70.6215096  69.9489594  46.7457962
  70.6615591  70.8202362  47.1401405  71.3644457  69.4798136  47.1255112
  83.5111618  60.4801321  12.6026082  83.2525253  60.0935698  11.7660022
  82.7290916  60.9417343  12.9051340  26.2668909  37.3893781  44.3201900
  25.3580392  37.6706215  44.4256497  26.4100851  36.7689558  45.0348926
  75.4555368  49.6027708  31.7347264  76.2819862  49.2990112  31.3593006
  74.8939466  49.7660971  30.9769845  33.9219618  33.8578391   7.9272461
  33.6895800  34.5926809   8.4949052  33.3679509  33.9676476   7.1544307
  43.4891033  74.8529816   7.4485439  44.2472935  74.2864656   7.3055750
  43.6124182  75.1997042   8.3321774  85.2638721  41.2552738  44.2591619
  84.8689842  40.4040670  44.4482374  84.7874641  41.5754795  43.4931803
  19.5250666  10.7151771  11.2474060  19.7643936  11.1248147  12.0787609
  20.2975178  10.2070904  10.9996212   7.4644202  75.0890112  13.9749289
   7.0580214  74.3615627  13.5038698   8.1734294  74.6844006  14.4747674
  60.7759536   1.5092083  69.3433027  61.6069664   1.2426658  69.7365011
  60.5335201   0.7770916  68.7763315   2.6978545  11.7736234   9.2590922
   2.2052293  11.6463079  10.0698590   3.6096864  11.8445959   9.5415014
  48.3849062  19.2794939  57.6869476  48.0011715  19.4936558  58.5373092
  49.0583957  19.9464126  57.5532997  64.7491503  47.0901775   3.3812281
  64.9605799  46.3455248   2.8181812  65.0437021  47.8552675   2.8871515
  77.5168371  76.1949015  15.3797913  77.5874710  77.0931864  15.7027853
  77.7454233  76.2552214  14.4522452  71.6042662  69.2463064   6.9228226
  72.0986080  69.1621113   7.7381569  70.7299614  68.9215899   7.1381980
   2.1362036  45.0330353   2.8147736   1.6940230  44.1911983   2.9244024
   2.7513236  44.8886395   2.0957357  13.8748664  62.8152037   5.4741204
  13.1663913  63.4443188   5.3381038  14.6093959  63.1696463   4.9730551
  74.6169316   1.9054403  27.3264027  74.3760907   1.0248651  27.0386338
  75.4595696   2.0732202  26.9044590  33.4561014  75.3535891  25.6668878
  34.2002344  74.8378611  25.3561997  33.4558153  75.2261972  26.6155720
  38.3696617   2.9454561  55.0625814  38.5053648   3.7944170  54.6417690
  37.7873052   2.4734493  54.4673491  57.1702147  59.4795132  29.7181273
  56.9428682  58.6932564  30.2144551  57.9717779  59.8002529  30.1314735
   2.4229258  63.9497614   3.4124407   2.8859824  63.8437700   4.2434457
   2.9295367  64.6091700   2.9383603  20.1518111   3.0154886  10.9697485
  20.5525975   3.8740339  10.8337510  20.7441764   2.5675954  11.5736771
  79.5652628  14.1980577  19.5874476  79.5604563  13.6005342  18.8396680
  80.0973034  14.9393654  19.2982626  48.7181533   4.4476171  52.4740029
  49.2074073   3.7417980  52.0512963  49.2842401   5.2149340  52.3903382
  39.0913033  72.6365709  19.5122981  38.6752915  71.7867613  19.6571934
  39.7206569  72.4782896  18.8086712  57.9378033  73.9553738  26.6516638
  57.2899818  73.5080719  26.1071610  58.4722853  74.4500208  26.0304666
  60.3950834  52.2273397  11.6258729  60.2754021  53.1763172  11.5891540
  61.2516022  52.0782709  11.2253904  81.9076538  24.4820356   9.5400679
  81.5569782  23.9900470  10.2825010  82.0278835  25.3700519   9.8765218
  80.2053746  75.3420955  68.0667897  79.4989975  74.7273952  67.8682928
  80.0454482  75.6062728  68.9728060  10.8949197  19.5541569  50.3440226
  11.7179979  19.8244186  50.7511235  10.3343094  20.3279444  50.4006279
  72.8147650  56.9485617  42.3285580  72.0153093  57.2760010  41.9163895
  72.6622152  56.0095787  42.4347210  46.9094563  65.5789328  20.6702852
  47.3635244  64.8965693  21.1646914  46.2020636  65.8634710  21.2489605
  82.2773170  78.3512163  10.6033361  82.9160786  78.8229942  10.0688899
  81.9108391  77.6927900  10.0130773   7.0081729  53.1674814  14.8330712
   7.3798293  52.3849773  15.2402472   7.7001303  53.8252211  14.9024725
  44.5462942  62.6906395  33.2535625  45.3124714  63.2047701  33.5082722
  44.6220684  62.6025057  32.3034453  75.9025465  13.7643709  23.3269787
  75.5277382  12.8882398  23.2366943  76.7968022  13.6775007  22.9968500
  38.9328588  19.5621630  25.5168820  38.6579288  19.3733068  26.4140893
  38.5283197  18.8714500  24.9920035  57.5608791  20.9216066  56.6597033
  58.2771839  21.0614725  57.2790385  57.6969875  20.0322529  56.3329614
   6.1145093  68.6713821  54.7871876   6.9756391  69.0838748  54.8545755
   5.7566335  68.9975959  53.9615131  25.6977296  24.7700572  14.4702661
  24.9159646  24.7278810  13.9195430  25.4031372  25.2028608  15.2715945
   3.0163497  50.4927206  45.9660864   2.1112746  50.3085089  45.7147884
   3.2739657  51.2287521  45.4110003  68.4490347  58.8951969  17.0379972
  68.8832331  58.0484486  16.9344366  69.1264486  59.4696760  17.3948038
  47.8967597  80.6533438  58.7510360  48.2187583  80.0925308  58.0453158
  47.3139407  80.0886828  59.2586888  19.0002849  60.8137160  59.4983090
  19.4874456  60.8955294  60.3181953  19.0602329  61.6804629  59.0965760
  83.3715439  33.3306551  24.6650958  84.1012287  32.8818464  25.0921345
  83.0409336  32.6975846  24.0277958  60.2298864  65.5563718  59.6583933
  60.9297236  65.8402949  60.2464808  59.8685821  64.7745114  60.0759876
  33.2883859  27.9622483   2.1343550  33.5913086  28.6337352   2.7455634
  34.0691757  27.7232313   1.6348849  16.2320727  43.9583778  12.1417618
  16.2363166  44.6860981  11.5199649  15.3363055  43.9362192  12.4784243
  59.4666386  61.2536764  30.1272440  59.0676737  61.2155104  30.9964991
  60.3822708  61.4776754  30.2935886  37.0328212  63.3303595   0.7643021
  37.3283267  62.4236488   0.6819385  37.8364444  63.8330078   0.8975854
  24.2011886   1.3308992  34.3701768  23.8293223   0.7138433  35.0004053
  23.5197120   1.4348497  33.7060833  35.5854182  10.0857916  30.5551958
  35.4610019  10.7857504  29.9142456  36.5200667  10.1120271  30.7601023
   0.9186667  80.0685692  49.1632605   0.2450103  80.5642986  48.6977768
   1.7143267  80.2041531  48.6486912  44.1620315  55.1436945  56.5151370
  44.7097553  55.1167627  57.2996808  43.2938732  54.8798414  56.8199528
   9.1793169  25.4890295  64.2725498   9.6290601  24.9908109  63.5900993
   9.0085543  24.8488136  64.9633408  65.2636658  15.6514158   1.1780600
  64.9802934  14.7372999   1.1598467  64.4781600  16.1501970   0.9535006
  61.0368061  30.0231385  11.2333810  60.0999832  29.9309397  11.4068568
  61.0905313  30.7062030  10.5649734   4.5449465  76.8959856  13.6124945
   5.2171916  77.0707226  14.2711174   4.9065131  76.1843967  13.0841541
   1.6983432  72.6103830  14.9300683   1.6088313  73.4120750  14.4147909
   0.8397883  72.1911764  14.8719263  42.6100397  71.5459824  34.2117167
  42.6250315  72.4766302  34.4350910  41.6827250  71.3095760  34.2325377
  83.8392448  60.7605839  37.2164655  83.7972164  61.7154408  37.1644139
  82.9746437  60.4667759  36.9294500  84.2699753  10.3606691  25.2895498
  84.4540059   9.6842088  25.9412885  83.8846623  11.0786523  25.7918096
  18.0545253  69.4297981  36.5984344  18.1949061  68.6320925  37.1085238
  18.3702105  70.1344824  37.1641159  67.9633284  50.9431934  28.1604719
  68.4315443  50.4530668  28.8363290  67.5931311  50.2699900  27.5895214
  13.0644244  70.6102180  48.4558582  12.3763674  70.0317430  48.7847614
  12.9908580  70.5524063  47.5032377  18.9333118  28.0249019  56.6822267
  19.0017093  28.6571785  57.3976184  17.9978908  27.9897400  56.4822674
  48.5148668  75.0907373  39.0048027  49.0987968  74.3606997  38.7991238
  47.6500702  74.6892357  39.0893483  57.4497080  68.6973524  45.6197548
  57.8629255  68.7992477  44.7623730  56.6860104  69.2735147  45.5875587
  65.2670097  38.2129931  41.0930443  65.5523586  38.0018663  40.2040911
  65.8078146  37.6591396  41.6560793  24.3150642  55.9498113  61.4187146
  24.6459415  55.6830758  62.2763897  24.9744060  55.6364530  60.7995952
  75.5749798  43.7944269  62.4436235  76.0872364  43.9281464  61.6461611
  76.2291479  43.6453009  63.1263113  23.5093225  60.9169050  60.5729169
  23.5656942  60.1834150  61.1853278  23.5630478  61.6958662  61.1265910
  22.6284851  79.4870419   2.2056754  21.7420972  79.2748142   1.9132449
  23.1999363  79.0130139   1.6015485  78.0207218  43.5358568  53.8066328
  78.6894859  42.8914972  53.5747302  78.4857811  44.1839071  54.3357671
  31.5049232  16.0484024  52.7567459  30.8602918  16.7104765  52.5070584
  31.3979496  15.9549614  53.7033487  57.8280258  63.1391001  26.1939526
  57.5957441  62.9290056  25.2894425  58.2327318  62.3391104  26.5293050
  63.3761835  72.9093313  19.4016242  63.4433508  72.4139214  20.2178884
  63.6397362  73.7984657  19.6387112  82.2648621  64.4619608   2.0394655
  82.2004128  63.6858511   1.4829351  83.1716824  64.4623137   2.3459072
  59.3267595  10.0031557  24.6770239  59.9234783   9.5443811  24.0856862
  59.0554773  10.7801141  24.1881824  65.3768396  75.0847435  30.1084971
  64.9180460  74.4207764  29.5938230  65.5292559  75.8018064  29.4930124
  84.1191864  71.1686754  43.3098507  83.7776566  70.2856922  43.1687021
  83.8968182  71.6424465  42.5083971  54.7031074   0.3760423  23.5576344
  54.9481921   1.0132684  24.2285371  54.0245681  -0.1578532  23.9708805
  42.1971183  11.4014806  11.9602907  42.9213863  11.0880174  12.5019634
  41.5780788  11.7806806  12.5841868  66.8272114  50.6057787  42.0635748
  67.5932598  50.7806540  41.5169334  66.7609215  49.6511078  42.0846653
  65.4809475  59.6119499  49.3457651  65.1845217  60.1616192  50.0711823
  64.7766066  58.9752483  49.2243576  56.2268066  44.6978474  20.7413244
  57.0687771  45.0790358  20.9903526  55.8560801  44.3779516  21.5637970
  30.1709098  28.1346631  48.2365513  30.1307124  28.8866305  48.8274527
  29.4857711  28.3017445  47.5893307  85.2618122  47.0489740  16.8685603
  85.6937218  46.7652893  17.6742935  84.4885540  46.4888048  16.8013000
  29.1006427   7.3398676  31.8367720  29.1035419   8.2090749  32.2376490
  28.2440429   6.9758596  32.0603395  26.9474524  69.3422031  40.1633310
  26.8450850  68.4567451  39.8144531  27.6479453  69.7275352  39.6369672
  58.9429712  67.2211409  19.6141207  58.3164835  66.4996243  19.6702957
  59.1154003  67.3162365  18.6773944  73.7481260  74.1419506  25.7873321
  73.1436729  73.4887457  26.1397433  73.7253952  74.0031481  24.8405218
  69.7926105  44.5613333  60.5014015  70.5216468  44.8219534  59.9385435
  69.1387428  45.2498861  60.3806145   8.8059096  34.0566053  20.5050278
   9.3491178  33.8964739  19.7333300   7.9999452  34.4370355  20.1558447
  63.5822487  28.2587886   2.9280651  63.7383938  27.7863383   2.1103603
  64.2898655  27.9756474   3.5071507  69.6725321  61.5763378   3.1542298
  70.1604748  61.0182238   3.7597474  69.3740082  62.3096848   3.6921099
  75.7113348  19.8916807  27.3529863  75.0912463  19.1970815  27.1310449
  76.5129410  19.6552171  26.8863606  29.5157104  17.9855814   6.1485881
  28.6203532  17.8824606   5.8262140  29.9565272  17.1747102   5.8948123
   4.3873423  74.5739174   1.3610025   4.9906844  75.3158998   1.4018665
   4.9527949  73.8027716   1.4037794  69.7014575   7.8923502  17.1085334
  70.1809459   8.6789503  17.3684990  70.3792815   7.2270574  16.9894779
   1.5740126  54.1171789  16.8515325   1.8749541  53.9385843  17.7424681
   1.5763873  55.0720501  16.7848170  66.3513947  68.7807274  35.8225203
  66.5750694  69.3665171  35.0992966  65.8064318  68.1032276  35.4222202
  47.5888114  19.3174352  54.7014332  48.2282691  19.9938573  54.4783115
  48.0740028  18.7005987  55.2494526  77.1816158  69.1114664   1.1858231
  76.3953924  69.3906355   1.6550261  77.5586987  69.9230623   0.8461858
  20.4489821  47.7777815  30.9907413  19.8707598  47.2346783  30.4550838
  20.3560084  47.4257755  31.8759990  10.0290889  73.1236744  42.4390936
  10.9373683  72.9859209  42.1702385   9.5097274  72.8004122  41.7028856
  79.3105186  28.5193058  67.8602636  79.6421875  29.3843075  68.1010995
  79.2273010  28.5515209  66.9072322  70.4946232  78.9834499  40.4733133
  70.8703995  79.3314981  41.2819433  70.8382750  78.0920506  40.4137707
   7.6926535  48.5606241  32.9232645   7.9442614  49.4383526  32.6360059
   8.5152358  48.1516171  33.1921482   1.3611525  45.3244257  34.7641706
   1.6063422  44.7363186  34.0498614   1.9742125  46.0560989  34.6931624
  60.6730080  58.4626627  66.7787504  60.1107597  57.8826523  66.2652349
  61.5275764  58.4082603  66.3509846  18.7863845  74.9362278  59.1305256
  18.2754916  74.4591713  58.4765911  19.0328139  74.2714119  59.7735834
   0.7107740   0.8518495   3.1354055   0.3022056   1.1692896   2.3300859
   0.6074767   1.5727129   3.7566358  70.2505302  50.7889891  25.4345322
  70.6614733  50.3770638  26.1945820  69.9696922  50.0556040  24.8872614
  81.1306286  45.3305149  15.1309299  81.7158985  44.5882320  14.9802613
  80.3654385  44.9487400  15.5610096  11.0424592  44.1931227  35.6735111
  11.5744378  43.8091469  34.9765206  11.2495258  43.6706212  36.4483309
  79.1318364  71.8941830  14.1126573  78.9480348  71.8280552  15.0497139
  79.5110888  72.7662943  14.0039313  42.1606064   8.4835958  29.3898177
  42.4011421   7.7336979  28.8457346  41.2436914   8.6524785  29.1730595
  18.0037702  70.3219400  26.2916613  17.5958074  69.9217389  25.5237818
  18.5766424  69.6395526  26.6415119  61.4740451  52.4426466  56.1010624
  60.9939440  52.5330001  56.9242097  60.8384689  52.6799148  55.4258013
   1.8023223   6.9605875   4.1098663   2.4336451   6.4243841   3.6301175
   2.2586268   7.2049969   4.9150291  15.9045519  70.1829002  34.5996165
  15.7469333  70.7533596  35.3519225  16.7142166  69.7201703  34.8153877
  75.5860432  52.6215428  66.2714604  75.9123572  52.2644418  67.0974324
  75.8016022  53.5532933  66.3115693  33.1572676  21.9361258  22.0632982
  32.5789070  21.1751103  22.0124626  33.7980676  21.7969632  21.3659906
  15.4233325  13.9851582  40.2039337  15.9263325  14.2658353  39.4394422
  15.2108431  14.7980702  40.6624651  64.6931036  50.6755108  58.8077439
  65.5377491  50.5949491  58.3646668  64.1933545  49.9150616  58.5107601
  59.2013677  65.7416159  66.2015275  59.4815763  65.0539261  65.5975414
  59.9584898  66.3232428  66.2701291   2.2517604  32.3101234  16.9034636
   2.8108424  33.0697989  17.0663989   1.5892428  32.6275301  16.2898219
  36.5198255   7.5390768  22.7520108  36.5550566   6.6280389  23.0435610
  36.6593766   7.4934244  21.8061399  70.9878778  41.1741829  52.0391369
  71.8768597  41.5148306  51.9396305  71.0547876  40.5333185  52.7469873
  12.8926576  68.3630047  35.8593583  13.7006200  68.3370755  35.3467584
  12.2602142  67.8722463  35.3345728  12.1622908   9.9428821   0.5810450
  12.7333462   9.3640560   0.0759822  12.7267039  10.2954662   1.2690526
  51.6947079  47.3080969   2.8707010  52.6433134  47.2749376   2.7470931
  51.3638163  47.7238846   2.0745438  12.5544513  77.9382720  41.3425779
  13.1383766  78.0833502  42.0870352  12.3777975  76.9976170  41.3564968
  76.6482742  69.4319282  26.1600041  76.9815106  69.0608988  25.3429818
  76.9373627  68.8196323  26.8365765  62.8316021   7.7273405  36.7115617
  63.3903313   7.5522339  37.4687886  63.2421684   8.4760362  36.2789869
  63.3562088   3.8470739  11.8218732  63.4996033   4.3655473  11.0301316
  64.1740370   3.3648649  11.9437838   3.6766793  48.0944967  68.4282248
   3.3349349  48.3751863  69.2771377   3.4610774  48.8130844  67.8337674
  18.8250602  54.1720114   6.5100718  18.3636154  54.2895518   5.6797177
  19.7498668  54.2784820   6.2873101  47.1313429  26.9501424   2.8964999
  46.6169071  27.0065141   3.7017405  46.6484642  27.4843812   2.2659016
  53.9415932  16.1209214  45.5894184  53.7790918  15.2008200  45.3814793
  53.1385517  16.4147007  46.0195923  76.1194481  76.5277983  18.0155849
  75.4394973  76.5354926  17.3419034  76.0041488  75.6893224  18.4626842
   8.6447980  66.9507033  65.8586065   7.8190734  66.9575912  66.3427213
   9.1941287  67.5895125  66.3129080  48.1512117   8.3503145  40.1985693
  47.7826118   8.8079077  40.9541988  48.4076691   7.4933386  40.5392361
  39.6577575  54.2698973  58.7649584  39.3085696  53.5478514  59.2874051
  39.0569045  54.9967235  58.9290512  44.4814014   4.5071658  42.7218771
  43.9751530   5.1849031  42.2739792  43.9690208   4.3032002  43.5042429
  52.6544476  14.0712798  27.1452856  52.2465324  14.7986138  26.6753697
  53.0548954  13.5373533  26.4591384  42.4909592  15.2756345   8.0564165
  42.2603369  14.4076204   8.3874738  41.9876242  15.3648281   7.2471368
   7.7931345  13.1421292  35.4426455   7.4417907  12.4559164  34.8752832
   7.1261454  13.2582605  36.1193061  13.8998235  73.8552240  13.6078274
  13.5554422  73.6974827  14.4868886  13.3860887  73.2786135  13.0422938
  53.3376884  11.8562782  12.2564936  54.0830660  11.6120565  12.8051233
  53.0367661  12.6897383  12.6184642   3.1916549  53.8001865  62.2453327
   3.3176114  53.4467763  61.3647259   3.5108211  54.7008997  62.1898497
  26.3103307  72.3689930  45.2506351  26.3793291  72.8194396  46.0924006
  27.2081674  72.3403058  44.9200344  54.7151184  27.5397062   6.3301271
  55.3975058  27.0805478   6.8197715  55.1302242  28.3546114   6.0475624
  56.4815712  43.8348722  12.1256757  56.3962173  44.6997356  12.5268734
  55.5865860  43.4970856  12.0919895  71.6389370  10.6692624   2.8807944
  71.7449284   9.7614503   3.1651807  72.0831251  10.7083309   2.0337994
  32.2697665  23.8504845  63.6899865  32.6641299  23.7178796  62.8279377
  31.9768359  24.7617203  63.6817545  67.6486349  18.2160294   3.3440864
  67.2490978  18.8390982   2.7371389  68.5439968  18.1093299   3.0228847
   3.4805562  39.2569176  45.8133722   3.8949659  38.6412431  45.2088547
   4.0450217  39.2502200  46.5863944  26.7769599  24.4066310   5.3076822
  27.0047927  25.2224350   4.8618251  26.5480828  23.8031888   4.6007848
   1.7633655  56.1935776  56.6557146   1.5223672  55.3682011  56.2351144
   1.0645845  56.8001753  56.4108122  53.2946619  40.3351159  69.1987036
  52.4384626  40.5076127  69.5903628  53.1309017  39.6397621  68.5616026
  35.7010505  78.2062880  68.6214726  36.6261766  78.3163229  68.4017709
  35.6177613  77.2806708  68.8506707  76.3601502  60.3644353  50.7955242
  76.7053422  61.1557370  50.3821004  75.6621655  60.6792861  51.3699067
  63.8841785  74.9473302  32.6364183  64.3248809  74.8289279  31.7949939
  64.3284286  74.3391333  33.2271504  59.4417667  22.6251793  14.9068427
  59.8077202  22.6372266  15.7912433  58.5192728  22.4027395  15.0323641
  38.7574339  27.0667195  17.5259995  37.8131580  27.2194743  17.5612223
  39.0253687  27.0106506  18.4432232  64.2264223   2.3383673   7.1765137
  63.2934666   2.3180772   7.3896247  64.6418905   1.8270415   7.8708923
  75.8511699   3.4847446  64.4200856  75.0668968   3.7965914  63.9685417
  75.6806244   3.6605020  65.3454248  18.1296279  35.9200892  66.2463412
  17.3255183  35.4021367  66.2093717  17.8455760  36.8164760  66.0673530
  33.8964714  26.6869493  66.4880959  34.7014917  26.4298435  66.0385720
  33.7672294  26.0109182  67.1533093  22.8400816  80.5767264  15.2007687
  22.8675569  80.3329732  16.1260045  23.4111942  79.9416047  14.7687018
  16.1298253  62.5144559  59.8189521  15.2564504  62.2300106  59.5496333
  16.7083242  61.8021947  59.5464564  35.1510728  51.0525546   0.6304748
  35.7920898  50.3421316   0.6053700  35.0077547  51.2129865   1.5631874
  72.6963624  73.7573844  68.8096987  73.5032042  74.1486484  69.1445842
  71.9978293  74.1969043  69.2945764  28.5039915  78.7532180  22.8669429
  27.8874076  79.3471406  23.2950950  29.3178094  79.2537983  22.8090644
  55.2463961  59.6082973  27.4937367  55.5474424  59.9832249  28.3214045
  54.5823383  58.9676952  27.7484655  77.9664382  47.7753341  53.4845222
  77.1749981  48.2148528  53.7954474  77.7709778  47.5441277  52.5764645
  63.0750545  52.9360896  53.0460978  63.0115708  53.7854487  53.4828926
  62.1893056  52.5761741  53.0923534  82.8809261  29.5841146  26.3439941
  83.4101486  30.1915193  26.8609190  83.3528709  28.7528563  26.3940692
  65.6109746  65.6619459  67.9227228  66.0009655  64.7987801  68.0608528
  64.6709093  65.5207616  68.0348595  75.4889687  72.7443153  67.5640061
  75.0672349  73.0618006  68.3624909  75.1540431  71.8544179  67.4538237
  80.0514126   8.1124890   8.5201114  80.8401680   7.5743216   8.4531933
  79.5246887   7.8608346   7.7615201  62.7084359  58.8954991  46.2211204
  63.5650595  59.2096680  45.9317685  62.4313625  59.5299929  46.8820882
  66.8756628   9.6810794  18.5568154  65.9279108   9.7367156  18.4347379
  67.2320414   9.6819174  17.6684320  49.0549148  76.7752633   9.3254787
  49.7793592  77.3022122   9.6627223  48.7480558  77.2546060   8.5558683
  78.0678749  13.9359093  13.8634503  78.9771223  13.7162828  14.0666008
  78.1285429  14.5703280  13.1492627  58.5353851  44.9305916  22.0672297
  59.3410730  44.8225737  21.5618277  58.8157654  44.8711920  22.9805160
   1.4916970  53.3824986  40.7160354   1.3576867  54.3208152  40.8495808
   0.6125524  53.0334836  40.5693389  22.3518588  35.0021684  32.2290445
  22.6004436  35.2858376  33.1087995  22.4889877  34.0548617  32.2351528
   2.9731252  47.4725914  34.6804858   3.4819629  48.0882686  34.1529871
   3.2644155  47.6290923  35.5787564  44.5415020  39.1009760  14.0138972
  44.8640490  38.2072091  14.1295397  43.7024355  39.1142583  14.4743562
  65.2078199  17.1559274  43.4119606  64.3188763  17.3601198  43.1215906
  65.5546904  16.5774453  42.7327919   5.9075906  58.9056462  57.9244519
   5.2672889  58.3447593  57.4866713   6.2847306  59.4333118  57.2204853
  50.5724430  18.6535549   2.7044874  51.5205336  18.5570431   2.6148376
  50.2104950  17.8881145   2.2580263  71.0366782  68.6859184  67.5435413
  71.3342246  68.2484013  66.7458723  70.5218752  69.4298631  67.2308741
  76.5129614  34.2685604   8.6552167  76.3824749  34.7777867   7.8552842
  75.6731558  34.3200994   9.1116190  59.1657686  34.3439960  11.0359883
  59.4848776  35.1084161  11.5156388  58.2206726  34.4803524  10.9694636
  48.0186939  25.3526616  20.2894664  48.1084871  26.3001084  20.1869202
  48.1218386  25.2026200  21.2291908  11.3866442   4.7910619  27.9190230
  11.8937701   5.3521508  27.3323083  11.1021155   5.3748900  28.6221743
   3.4531897  44.8289824  10.8799279   4.1517848  45.0169754  10.2531493
   2.7254599  45.3848886  10.6013286  31.8387630  51.8811732  38.6199642
  32.7371433  51.5525788  38.6542774  31.4041450  51.4685672  39.3663550
  70.6040820  42.5886869  57.8866518  71.4829453  42.7505621  58.2296134
  70.7499560  42.2592743  56.9998372  73.1272706  43.0849439  53.7522352
  73.8368376  42.6066926  53.3232582  72.7274807  43.5998517  53.0513275
  56.4214516  31.2636852   3.3269346  56.3378906  32.1231437   2.9139200
  56.9443130  30.7513833   2.7101746  77.6383877  43.6843204   8.3481628
  78.0510569  43.1552362   9.0308070  77.2934008  44.4471788   8.8121277
  57.5663757  24.6547174  29.7530627  58.0206251  23.9584303  30.2274871
  57.3707390  24.2732263  28.8972449  35.4754376  11.6558444   0.3230877
  34.8857260  12.3689866   0.0783446  35.4399872  11.6332340   1.2793638
  51.5398563  68.0194769  11.1948919  51.4592231  68.8702009  10.7636166
  52.0968879  68.1880460  11.9548476  13.3292320  33.9545464  41.9198037
  13.4774520  34.1823256  42.8376175  13.4540822  33.0061537  41.8852211
  75.8863926  43.2744789   6.3050377  75.7683039  42.3387384   6.4683789
  76.2631750  43.6136627   7.1169627  48.1464434   1.2155727  26.9603539
  48.8929319   0.6607782  27.1866202  47.6101398   1.2304909  27.7530599
  57.7762898  41.8765886  54.5466853  57.7564391  42.0481405  55.4881776
  56.8547066  41.8322262  54.2918301  54.9022055  25.5156183  26.6825247
  54.0239525  25.2515364  26.9566846  55.0864410  24.9741936  25.9149647
  50.0441790  10.9415579  36.3906717  49.5034218  10.9197628  35.6011534
  49.4148302  10.9704614  37.1113062  59.6899986  33.9535666  18.0104232
  60.1222515  34.7900891  17.8383136  60.4044724  33.3553338  18.2292271
  81.6012915  46.6897118  61.8448586  80.6921156  46.6551489  61.5474862
  82.0653876  46.0836333  61.2673486  78.5467768  36.5050244  30.6282401
  78.9970636  37.3220491  30.8425879  78.0286980  36.7138767  29.8509312
  30.9750488  26.0733336  66.5013943  31.9148757  25.9113055  66.4195228
  30.6625201  26.1316997  65.5985365  47.3016930  49.4840050  12.2653770
  46.4093781  49.7641516  12.0616090  47.5275850  49.9644709  13.0618429
  45.6365204  37.1047616  19.7722161  46.5262985  36.7526031  19.7948027
  45.6428099  37.7249074  19.0430999  37.7190139  77.8714257  58.8083649
  38.5229614  77.8892571  58.2891572  37.9153087  78.4134704  59.5724893
  21.6768670   8.9009923  10.7151711  21.7688131   8.5709578   9.8213845
  21.3072586   8.1663144  11.2049365  75.8062180  61.8062407  66.1697445
  75.0016078  61.3739377  66.4559979  75.5140313  62.4593764  65.5339203
  63.6160286  42.0469725  63.0015475  64.5556696  41.9189681  63.1316364
  63.5571631  42.7624658  62.3684318   2.2871568  36.5967959  52.6701451
   3.0858590  37.1038908  52.8156293   1.5916850  37.2529533  52.6253117
  51.6594076  45.6369686   4.9833015  51.6272831  46.1676359   4.1873181
  52.5501108  45.7543182   5.3136140  60.3968000  43.1287003   2.7677032
  61.1845541  43.4089231   2.3017111  60.7222080  42.5714827   3.4747058
  73.5318621  27.3500448  40.1353264  73.1684597  26.5419465  40.4974700
  74.1733511  27.0555371  39.4888068  35.9892000  12.0657488  64.8608438
  36.7974819  11.6621395  65.1770864  35.5714429  11.3844152  64.3340648
  18.0162061  65.0860021  11.4077604  17.4371446  65.8467136  11.4550686
  17.5443233  64.4595490  10.8590198   6.9307067  56.3421208  49.3124772
   7.4045875  56.0918838  48.5193492   7.6072242  56.4013940  49.9870432
  20.2983978  45.3176260  67.4237097  19.5242622  44.7555280  67.4552519
  21.0202815  44.7459617  67.6850762  13.1501520  17.8098953  23.5743856
  13.7102950  18.4341359  24.0356827  13.1487679  18.1144583  22.6669335
  66.7869568  14.7753561  19.7834766  67.5735331  14.7540474  20.3285241
  66.6431189  15.7050431  19.6067727  82.3513039  76.8073016  47.0177890
  82.2195633  77.1590000  46.1373449  83.2961520  76.6676623  47.0810247
  12.3634208  70.7041399   4.0010291  12.4244846  70.0642202   4.7102576
  12.9686702  71.4010451   4.2544642  67.8747320   6.0234708   9.8381066
  68.1466007   6.2759078   8.9557260  67.9419756   6.8299043  10.3493547
  59.4056034   8.6117846   1.2757641  59.5634079   9.0993512   2.0842248
  59.5506716   7.6965964   1.5158027  50.7448006  31.0606670   7.6461357
  50.0682831  31.5255308   8.1385320  51.2388515  31.7524791   7.2061998
  10.5948379  50.6182772  43.5426284  10.6753995  49.7125113  43.8415051
   9.6707418  50.8318156  43.6717940  51.4933395  22.0696402  28.9833879
  50.6617880  21.9328356  28.5294724  51.3779974  21.6379118  29.8298764
   3.7841357  73.2048277  22.8550768   4.3618740  73.8169978  23.3108139
   2.9233302  73.3505539  23.2475209  61.0304642  36.9862890   9.5540404
  60.3415775  36.5774369   9.0301067  61.1200953  37.8659105   9.1873497
  81.5146351  20.9946322  30.5983210  81.0826778  21.7427564  31.0105753
  81.9825363  20.5640745  31.3138103  84.6460207  64.8922831  58.8683987
  85.2234753  64.3261462  58.3562828  83.9890297  64.2984778  59.2317033
   8.7816932  51.0776192  29.6815181   7.9222753  51.3135010  30.0307966
   9.1026189  51.8811399  29.2721368  84.6396502  37.5534114  52.1396566
  84.1143092  38.3535069  52.1495760  84.5653590  37.2292188  51.2420977
  12.4180854  68.4778664   8.4687507  12.9657138  67.8048740   8.8729984
  12.2255577  69.0890048   9.1798586   2.2855737  61.8870240  62.8282715
   3.0136039  62.4682766  63.0481578   1.7009046  61.9388753  63.5843826
  15.6452119  31.3983822  18.5044086  15.6210721  30.7822752  19.2365718
  16.3278246  31.0571408  17.9266334  42.4619532  25.8073759   9.8913169
  42.5002766  25.7536340   8.9363956  42.7713156  26.6902089  10.0941300
  68.6211403  74.8307878  61.6004015  68.6487015  73.8969070  61.8085761
  68.2887705  74.8665339  60.7034702  40.2332973   9.0787971  32.2493243
  40.4203844   8.1436968  32.3318934  39.7950768   9.3086445  33.0686927
  53.1874609  18.7168527  17.9548907  53.2390928  19.5452499  17.4781048
  54.0564919  18.6082709  18.3411908  36.5528178  21.3254905  17.6976824
  37.3974586  21.5633488  18.0800927  36.7398190  20.5513883  17.1666181
  35.6358600  22.2464108   4.9651209  34.8004746  22.4244094   5.3971833
  36.2758040  22.2342229   5.6768465  55.5946445   8.5614806  15.0755179
  55.6905222   8.0286068  14.2861605  56.4540815   8.9646685  15.1981640
  28.0440261  15.7234698  24.0938473  28.7795093  15.1129419  24.1444207
  28.3313396  16.3937384  23.4738255  42.9886818   7.5253648  19.0191638
  42.3186302   7.1167397  18.4711766  43.4380579   6.7902678  19.4362104
  66.8575668  25.2657294   3.2208550  66.8687487  25.2254820   4.1771430
  65.9394169  25.4197192   2.9983306  27.4397720  79.6463757  47.1039152
  28.1593193  80.1047286  47.5379610  27.7228941  79.5640989  46.1932516
   1.2412288  76.1488706  29.8260332   2.1616771  75.9292632  29.6818829
   1.0003783  75.6648594  30.6159425   0.7414263   0.3449162  30.7942033
   0.3467196   0.6670765  29.9838614   1.5890521  -0.0081739  30.5238771
   3.0850551   4.1233101  10.5663776   2.4377371   3.4752548  10.8442914
   3.9290428   3.6936805  10.7054269  52.4798489  24.0617371  33.2399845
  53.2036352  24.2522073  33.8367152  52.9046726  23.8381672  32.4118710
  13.8095821  46.4230786  22.1864462  14.1342224  46.4526377  21.2864637
  13.3755458  45.5728374  22.2566938  70.8567047  40.3698063  19.0651083
  71.5208101  40.1430845  19.7161019  70.2899599  40.9996510  19.5104516
  40.4305566  56.4131770  26.6930842  40.1673187  57.2348128  26.2785339
  39.6063245  55.9992419  26.9490862  25.4771566  13.9965415  54.0433550
  26.1619735  13.5797131  54.5663404  24.7723579  14.1711605  54.6670532
   8.3924844  48.6553943  36.6928673   8.0919101  49.1403854  35.9243155
   7.9424932  49.0701431  37.4288846   4.7210386  63.7329537  54.0383900
   5.3872993  64.4198233  54.0615893   4.6421602  63.4449726  54.9478281
  74.8688126  16.0777080  55.5860043  74.4014597  15.7200944  54.8310709
  75.7936001  16.0139072  55.3474045  78.7025031  73.7486321  59.2871953
  78.3002146  73.0882507  59.8513723  79.6436699  73.6370259  59.4212926
  80.5290794  30.0594091  25.0597620  80.6994820  30.8645940  24.5710135
  81.3776016  29.8222113  25.4339004  30.0792241  42.6835012   8.2002014
  29.7019339  42.3144913   8.9987731  29.5849371  42.2737646   7.4902511
  46.8093707  64.5401078  58.9356018  46.5094974  65.1090461  58.2266451
  46.9905307  63.7021452  58.5098875  17.8157676  74.8886923   5.2665913
  17.9400219  74.9017099   6.2156034  18.2068456  74.0615998   4.9851540
  10.8059432  39.5067246  63.9242471  10.8166435  38.7781826  64.5450080
  10.9381416  40.2848200  64.4658405  44.7638556  26.4156192  64.5640487
  45.5125364  26.1750656  65.1097987  44.4707831  27.2559637  64.9164153
  77.7220917  35.1399159   1.2084266  78.5270452  35.6394982   1.0717043
  78.0129814  34.2303801   1.2744389   9.5203092  57.0196921  50.0860298
  10.3716638  57.2992617  50.4225886   8.9467885  57.7723247  50.2304209
  12.4506343  19.0011545  67.8636693  13.2219423  18.4343143  67.8604377
  12.8028024  19.8853966  67.7620552  29.2345454  66.1316019  48.4132744
  29.2699935  65.2583247  48.0229355  28.3762099  66.1707312  48.8351274
  72.4857998  17.7759087  39.3153071  72.4262142  18.0878675  40.2182817
  73.4249210  17.7518106  39.1317129  12.8581828  15.7665479  41.7906713
  12.8342932  16.6225696  42.2183275  12.4719828  15.9188354  40.9281826
  84.2960739  47.7666807   6.8744862  84.7589684  48.5652924   6.6211647
  83.4079170  48.0592680   7.0789450  12.1550205  54.5607859  61.7894501
  11.6085365  54.8917466  62.5022251  12.6704147  53.8597852  62.1884514
  77.5866985  25.2489972   3.7549818  78.3454227  25.8219385   3.8659239
  77.3688316  25.3173590   2.8254160  21.5892272  15.4893579   3.0335838
  21.5607743  15.7126131   2.1032184  22.4463849  15.0812425   3.1558591
  53.3804989  45.5993462  13.7733722  53.0054235  44.8994493  13.2388663
  54.2457914  45.7529116  13.3940041  61.2675571  45.2808666  10.2590072
  61.9991875  45.4488754   9.6651012  60.4876232  45.3878164   9.7144896
   8.3114165  40.8720303  20.9622526   8.9171046  41.5519953  20.6672716
   8.8161677  40.3590345  21.5933585  21.1082771  76.6712743  58.4039236
  20.2356841  76.4975697  58.7569702  20.9468200  77.1511656  57.5916017
   3.8198680   0.1611964  44.1376686   3.5200995  -0.0224823  45.0279665
   4.3682402   0.9408031  44.2256403  49.8389721  55.0769138  27.3559952
  50.7327890  54.9978447  27.6892734  49.7465563  56.0038662  27.1358657
  60.8772453  66.7926317  44.9132705  61.8036231  66.8522054  44.6798015
  60.7212981  67.5548083  45.4709411  43.0516243   5.9548730  28.4242225
  43.9610100   5.6561941  28.4178138  42.7613354   5.8192664  29.3262053
  48.5450948  28.0443903  55.2808595  48.0495466  28.8272425  55.0404180
  48.9798797  27.7779623  54.4707943  16.4158739  53.6308918   7.7671933
  15.9079326  52.8720341   7.4802041  17.0005668  53.8192592   7.0331073
  80.9100723  40.7681942  22.7183127  81.7223072  40.3069925  22.9276156
  80.3219509  40.0842237  22.3981237  56.0578979  14.8595901  68.1184818
  55.7663025  14.1784187  68.7244575  56.8780674  14.5235344  67.7570597
  82.9035091   1.3170964   1.2096419  82.7895927   0.6553531   1.8918076
  82.0118999   1.5526100   0.9531298  76.1498499  54.4978380  15.6201994
  76.8277931  54.1215372  16.1814666  75.3835964  53.9427948  15.7651424
   1.6295840  75.1080161  56.6389347   1.3067128  74.3048006  57.0473850
   2.3096063  74.8123032  56.0336626  52.8283752   2.0240637  44.4882847
  52.8306640   2.1339079  43.5374118  51.9041980   2.0726581  44.7327758
  76.4419707  62.3002964  68.7842702  77.2582825  62.7819782  68.6506768
  76.2706002  61.8809062  67.9410771  58.8141966  30.5821252  18.1330311
  58.7849855  29.6281600  18.2060134  59.4969988  30.7518911  17.4840391
  81.5390595  66.8832070  68.7353904  81.7337759  66.3948923  69.5353069
  81.2360295  67.7371699  69.0438560   5.5819442  46.3192004  57.4453152
   5.4647901  45.6999546  56.7248703   5.7085588  45.7674611  58.2171846
  72.9218253  70.1394135  15.3807688  73.4133299  69.9115664  14.5916320
  73.5732039  70.1222736  16.0819436  16.3741745   5.3472610  66.8092958
  16.3019956   4.9941917  65.9225247  17.3049129   5.5450722  66.9133133
  81.3068962  27.7845216   0.6036842  81.2498569  28.6417556   1.0257344
  82.1681118  27.7800584   0.1859356  13.1899375  35.8886909   6.0573357
  13.7983435  36.3789272   6.6102731  13.6655539  35.0905991   5.8269745
  70.7727814  31.3514042  14.2126918  70.5322742  31.4569306  15.1331556
  71.1836386  32.1828127  13.9756572  80.2502060   4.3279171   5.9163707
  80.0687599   4.4956464   6.8411279  81.1482048   4.6339220   5.7891494
  70.8528865  15.2171131  40.0728346  71.2082065  14.3854757  40.3864575
  71.5968383  15.8190056  40.0950194  78.8458729  59.3027687   9.7618169
  78.9875889  58.3561516   9.7538590  78.1906557  59.4411135  10.4457629
  21.4944198  40.2864629  66.4095197  21.5868070  40.8082360  67.2066701
  21.9464710  39.4660532  66.6065246  48.7562513  36.2301993   5.3147858
  48.7798738  35.5273676   4.6654007  49.5866251  36.6918874   5.1983476
  48.3771420  12.8958845  14.0201986  48.6768866  12.0173073  14.2536235
  48.5964441  13.4337807  14.7809899  77.7180918  55.1530594  64.7705725
  77.6520689  55.7076007  63.9931679  77.1528300  55.5773133  65.4161114
   5.9207656  74.8207384  47.0619560   5.0500753  74.4516307  46.9139910
   5.7687452  75.7605225  47.1615840   8.9470412  79.2000967  63.3236546
   8.0521228  79.4205886  63.5819841   9.0502956  78.2827812  63.5768396
  57.7094650   0.5466652  16.9066381  57.6064730   0.7753341  15.9828770
  57.6388407  -0.4077202  16.9264448  80.6987953  12.8313041  38.1117249
  79.9129343  13.1171381  37.6459408  80.8709526  13.5304058  38.7424779
  71.4343596  64.3098545   9.7235256  70.5222559  64.2256260   9.4456714
  71.6010761  65.2523947   9.7156399  58.9797354  13.7052083  23.7755322
  58.6243868  14.3390453  23.1524658  59.6898270  13.2741201  23.2999635
  28.1471408  73.7067596   4.2787454  28.8232864  73.6139039   4.9498916
  27.3265327  73.5327784   4.7397971  75.5917263  43.2871342  41.8361235
  75.1280403  42.6124620  41.3400936  76.2135077  43.6593723  41.2107801
  23.3028525  54.1625881   0.0056543  23.6247939  53.5797262   0.6933027
  23.7106246  55.0071335   0.1971940  51.2056446   8.9425993   4.5158860
  51.1587858   8.8884968   3.5613656  50.7337236   8.1685627   4.8231116
  71.9876432  15.2953899   7.8286988  72.0361996  15.1011622   6.8926698
  72.4344540  16.1367238   7.9222280  38.7172569   0.5134531  35.7018185
  38.7654127  -0.4280357  35.5359555  37.8035368   0.7406135  35.5293370
   2.0574397  34.3879461  30.9262204   2.2041434  33.6879373  31.5623832
   2.2838515  35.1903081  31.3965201  49.3960597  65.9198338  60.0243319
  50.0558879  65.2288300  59.9662042  48.5922839  65.5111176  59.7032142
   6.9006326  31.5924847  66.3160137   6.6719320  30.8229786  66.8373469
   7.7693631  31.3950479  65.9659306  63.1722116  39.1171145  49.4775581
  63.0131245  39.0969658  50.4212332  63.4922314  38.2392430  49.2698193
  58.7724924   6.0581315  32.9644847  59.2008829   5.3566241  33.4549975
  59.2219687   6.0685539  32.1194458  69.9048813  66.0342747  68.9239411
  69.1362294  66.4453894  68.5284839  70.4534300  66.7683083  69.2005623
  66.3101292   5.6949443  26.0718775  65.9528255   5.0890237  26.7210507
  66.3332748   5.1892745  25.2594781  52.7491760  48.1697130  10.5462205
  53.6713886  47.9548311  10.6861353  52.7055788  48.4553623   9.6336770
  72.0241737  35.1418424  27.0941043  72.1329975  34.9066305  26.1726594
  71.9808435  36.0980630  27.0937037  13.4378928  41.0170984  15.5172169
  13.0777091  40.1562262  15.3041637  12.9779547  41.6203260  14.9334311
  10.0821235  68.1750780  68.0024909  10.3880241  67.4795610  68.5846534
   9.2935922  68.5131603  68.4269277  55.9401096   1.7604776  64.8095164
  55.9560169   0.9192844  64.3530399  56.8556846   2.0388504  64.8306907
   7.1281125  76.1744457  58.2616306   7.2183540  75.2226001  58.2160247
   7.5434854  76.4150077  59.0897775  59.5081009  75.2187298  24.5503306
  60.3848327  75.5706556  24.3963218  58.9384235  75.7382260  23.9830375
  39.3736768  51.8791103  21.3750696  39.4596004  52.8183079  21.5386629
  39.9391127  51.4692545  22.0296931  61.5303040  20.5304527   4.8415130
  60.6353617  20.7003593   4.5475015  61.6530085  21.1178708   5.5872434
  64.8053122  13.0460870  21.0264397  65.6250238  13.5301280  20.9264207
  64.8295259  12.7171159  21.9250083   3.7012126  62.9021388  60.4818178
   4.3064716  62.7843028  61.2139452   2.8729989  62.5383860  60.7948244
  42.8959703  19.2012954  10.7791042  43.5186529  19.6138299  11.3776994
  43.3734894  19.1231918   9.9532038  79.4230175  44.8387861  29.7189522
  80.0571060  45.4776716  29.3934035  78.5915041  45.3127050  29.7336483
  79.9384832   2.7848598   3.7352225  79.9619246   3.2208261   4.5870534
  80.7736588   3.0124083   3.3266446  67.0286608  45.5127192   1.4748424
  67.8400612  45.0653791   1.7151453  66.3342094  44.9462509   1.8111318
  39.1524339  35.7696247  21.6146064  38.4590125  36.2494087  22.0676017
  39.7392893  36.4505291  21.2856627  76.1061239  54.9051476  18.8044333
  76.4566755  54.1240740  18.3763397  76.2522602  55.6100321  18.1735492
  82.8431797  72.7405310  18.2236671  83.4070396  73.5139656  18.2138371
  82.2115898  72.9134369  18.9218283  31.1855865   1.3202713   6.3897800
  30.9755087   0.6386590   5.7514197  30.3340912   1.6301145   6.6983020
  42.2435440  74.4697801  15.2248430  43.0947412  74.8903797  15.1032245
  42.3917354  73.5552339  14.9842656  57.8724003  13.2858312   0.9349047
  58.0296135  13.4742939   0.0097027  56.9949055  12.9040051   0.9558184
  70.9807444  20.6040382  33.9055085  70.8557892  19.6935046  33.6380267
  70.8964872  20.5873299  34.8588467  65.0980282  38.2670665   8.6780292
  64.8226786  37.4137259   9.0130270  64.3887663  38.8610435   8.9237320
  50.4438066  14.0157473  20.8661127  49.5462656  13.7362707  21.0465169
  50.8204126  13.2979643  20.3570104  49.6158141  20.7331347   8.1307960
  50.4047507  21.2184191   7.8893501  49.7995013  20.3988695   9.0087229
   3.4413642   7.2003615   6.1891288   4.1905612   7.7032197   5.8696604
   2.9837817   7.8003544   6.7780757  25.1633085   6.8455025  60.8434666
  24.7772087   6.7222877  59.9763001  25.7192577   7.6191231  60.7503910
  15.7193202  29.5052576  41.9051504  16.5860099  29.1005301  41.8696308
  15.1155776  28.7990689  41.6748619  83.5799178  45.4609740  65.7101459
  84.1121777  45.7347995  64.9631820  82.6847323  45.4408550  65.3718192
  53.2909324  68.8263947  47.4989224  52.7181651  69.5922190  47.4578810
  53.8250377  68.9683705  48.2804633  73.9368404   9.6265074  66.7701099
  74.8018612   9.6080776  67.1795238  73.3345092   9.8101469  67.4910215
  84.8949154  75.2010208  47.4057937  85.7298144  75.5982166  47.1579719
  84.7593888  74.5065099  46.7611862  12.0793655  32.6128870  63.6726362
  11.1843040  32.7587879  63.3663548  12.0604970  31.7374557  64.0592826
  71.3880205  39.1596723  54.2070580  71.3266754  38.5142422  53.5028648
  70.6482840  38.9594436  54.7805834  56.9371952  12.5338503  39.5546413
  57.3644127  11.8052193  39.1042972  56.5524925  12.1392246  40.3372694
  56.9164337  62.3087440  11.9139516  57.3174728  61.4797554  11.6528416
  57.1553100  62.4106751  12.8352451  53.3093071   7.9599720  32.4953198
  53.8024998   8.7737048  32.3912239  53.1905937   7.8711534  33.4409690
  50.7801819  67.3176813  26.0593104  49.8638964  67.2272015  25.7976484
  50.8369923  68.1973648  26.4323545  61.4473295  40.6662130  16.5237772
  61.3156414  40.0177050  17.2153926  60.6106329  41.1274862  16.4654982
   8.8821715  34.1103411  23.2929039   8.9672393  34.2401075  22.3483634
   8.5703200  34.9528503  23.6232877  12.4888065  72.1819621  64.2055488
  12.2276523  71.6037804  64.9223021  11.9580629  72.9691797  64.3273277
   8.7741870   9.1384846  34.8499274   9.5904845   8.7047595  34.6013594
   8.2023448   9.0259886  34.0906072  73.1706294  38.1234763  60.3832061
  73.9405449  37.7010441  60.7640142  73.5019406  38.5651678  59.6013016
  67.1558441  21.0670420  47.5432158  66.2420143  20.8481594  47.7254964
  67.6107563  20.9031387  48.3693052  79.8654604   2.7667999  15.2865553
  79.2782831   2.3879108  15.9406936  80.5375195   3.2157695  15.7993889
  23.4622062  79.2529425  10.6718254  24.2119850  79.4901029  10.1260984
  22.7816738  79.8811040  10.4299212   0.3568667  63.7739086  20.5565834
   0.0946349  63.2409334  21.3071871  -0.3368551  64.4281721  20.4733634
  37.7974367  43.2197952  26.8516898  38.3356738  44.0086079  26.9173551
  38.2789207  42.5591660  27.3496580  10.2755851  27.2763181  11.3529313
   9.4622725  27.5343680  10.9191549  10.3292197  27.8463674  12.1200025
  81.2918091  27.3313546   5.3632402  81.0410404  27.1562433   4.4562203
  80.4840088  27.2113180   5.8625132  11.2627818  57.6062161  61.5294541
  11.9483735  57.7744883  60.8830202  11.7370345  57.3492557  62.3202038
  49.7368908  34.7787070  10.4877210  49.3120813  35.3654385   9.8620105
  49.6657228  35.2321911  11.3276732  36.6655081   6.2354922  29.5611429
  37.0159835   6.8327570  28.9003325  36.4998740   6.7913276  30.3226185
  51.2983847  19.2446423  13.3361006  50.8359480  18.4589124  13.6276758
  52.1673346  19.1714883  13.7308240  22.7373981   9.8822683   3.5047987
  23.5155439   9.3879116   3.2472476  22.6655436  10.5750167   2.8481644
  51.0839605  73.9699364  17.8990257  50.7416821  73.8017797  18.7769794
  50.3366518  73.8248491  17.3187613  17.8518885  27.2884631  31.4119387
  18.0052489  28.1037188  31.8895054  17.5283545  26.6793227  32.0756388
   9.7429540  60.6434590  52.5579906   8.8317516  60.8833510  52.3895097
   9.7390678  60.3006655  53.4516955  18.1825083  12.0789826   9.2924505
  18.7296599  12.4794900   8.6168355  18.7440032  11.4153266   9.6930957
  38.0108560  34.4718977  51.3391174  38.9283432  34.7272678  51.4352012
  37.8723110  33.8151308  52.0215357  69.2351437  48.7301302  12.9235733
  69.8092842  49.4959974  12.9166293  68.3651733  49.0812445  12.7335715
   5.2571214  73.2229255  15.5075824   5.8027519  72.7189205  16.1113214
   4.5690788  73.5943518  16.0597348  56.1796808  52.1269846   6.1651099
  55.4338169  52.2652388   6.7488962  56.8683815  51.7827606   6.7338210
  37.1106975   4.6902456  36.5101576  37.1479111   3.9225759  37.0807123
  37.1841602   4.3343057  35.6246376  38.0383648  73.0442546  35.4259992
  38.3191026  72.2446285  34.9810100  38.4228243  72.9794554  36.3001966
  76.0912466  49.7485399  15.0937819  76.0440254  50.0700426  15.9941351
  75.1979351  49.8357010  14.7611713  68.5138893  12.8820741  23.4670496
  69.1386938  12.6396728  22.7836061  68.4095669  13.8287485  23.3713603
  84.4641503  62.2184902  57.5603426  83.7514647  62.7963740  57.2876502
  84.4668253  61.5174943  56.9085527  14.7738626  79.8886400  66.4808921
  14.3134858  79.1466337  66.0888369  14.9051263  80.4993778  65.7556323
  10.6848830  36.5176678  23.5630751  11.1041945  36.0006356  22.8752637
  11.1277312  37.3655772  23.5289955   2.1103019  12.6420820   6.6793817
   2.2301406  12.3044264   7.5669962   1.6817206  11.9281197   6.2073570
  40.7934024  72.2832900  54.1337073  40.1828983  72.0797282  54.8422886
  40.2363517  72.4025255  53.3644772  62.0816803  51.6573524  26.8237305
  61.6349411  51.3613605  26.0306072  61.3738871  51.8733263  27.4308658
  25.5798835  25.9751511  16.9810843  25.2148360  25.2282429  17.4555254
  25.9795016  26.5183091  17.6604331  73.1848343  74.0130287  37.2855831
  72.3462924  74.0653044  37.7442194  73.2908782  73.0829793  37.0856000
  39.4009998  63.8800913  66.1245767  40.3121688  64.1733414  66.1246414
  39.4076659  63.0774647  66.6460917  31.3045996  58.3733225  10.2460885
  32.1656913  57.9577875  10.2916980  30.9259051  58.2356119  11.1143398
  35.3602518   1.8244072  68.8889996  34.4801296   1.8240829  68.5126842
  35.7157673   2.6847072  68.6660003  80.2169704  74.4311285  23.0732751
  79.7904587  74.8969555  23.7925291  79.9673033  74.9205828  22.2894812
   7.3963266   0.2777090   8.6342305   8.0547290   0.4837980   9.2977518
   6.5727954   0.2322855   9.1199982  14.7688796  65.4832703  42.1270395
  15.4108646  64.8016816  41.9282318  14.8294189  65.6001049  43.0751515
  66.0841942  61.4923906  15.9823155  67.0261765  61.4278507  16.1396050
  65.8171320  60.6009102  15.7583249  61.8391180  14.4627929  15.2875423
  61.5770912  14.3940008  16.2056065  61.8513966  15.4036462  15.1118255
  50.4682779  24.1228771  12.5837743  50.4945755  24.5223570  13.4532320
  51.2045145  24.5176053  12.1164632  24.0136077  56.0363644  66.4977348
  24.9115684  56.1261612  66.1786298  24.0082576  56.5042072  67.3327950
  51.0169840  21.1433744  19.0400946  50.1085138  21.1394453  19.3415904
  50.9784365  20.7720542  18.1586933  82.4665928  22.7117753  14.9435472
  83.3434772  22.5392175  15.2863693  82.6108742  23.2982898  14.2009735
  73.2463789  77.5693941  13.5713708  73.3035183  78.1942940  12.8485525
  73.2682514  76.7110777  13.1482339  33.2634414   5.5282446  69.0498393
  32.3320926   5.5683895  69.2671160  33.4604562   6.3889118  68.6801501
  59.8952389  72.0546913  11.7988801  59.9796009  71.6441345  10.9383225
  59.5691395  71.3563347  12.3664951  25.9077705   4.3362137  65.6542534
  25.1028169   4.1505953  66.1378107  26.2789358   3.4740015  65.4670352
  24.9185580  40.9481430  12.7433097  25.0053233  41.7367268  12.2077394
  24.4475764  41.2394762  13.5240388   2.1556491  42.7281904  14.4027722
   2.1127433  43.4859562  14.9860275   2.4294108  42.0059586  14.9681604
  30.1355613  34.8205229  60.7723922  29.4639600  35.4949518  60.6707341
  30.4677023  34.6777435  59.8860926  56.0200882  28.5828376  17.2446370
  55.6812668  27.6915264  17.3282743  56.7622280  28.6145854  17.8483355
  33.7226157  11.6877737   6.7974955  34.6352058  11.6003599   6.5222323
  33.2148509  11.4085760   6.0356224  84.9901867  71.7511654  11.9050968
  85.4257679  72.5709391  11.6717041  84.1706657  71.7662001  11.4107335
  30.2723235  41.4275074  14.7007775  30.1168364  42.3241472  14.9975812
  29.4752616  40.9544611  14.9398470  69.6288300  25.5549669   5.9968430
  69.6089888  24.6944499   5.5780971  69.2847300  25.4011607   6.8767130
  60.2586079  34.9666142   5.5334127  59.9849510  34.7459531   4.6431017
  60.4625511  35.9011126   5.4966217  72.3705864  38.6576295  41.8284035
  72.8642607  39.3180966  42.3145103  72.9496384  37.8958392  41.8037462
  64.8593283  42.1666765  13.1690454  64.7805691  42.8112268  12.4657798
  65.7364035  42.3072863  13.5256886   6.2593406  30.4301429  53.3497190
   5.3717136  30.4129744  52.9918718   6.2710959  31.1954594  53.9245129
  68.6552224  23.0956835   2.3696851  68.1692992  23.8447994   2.7145671
  68.3880279  22.3616451   2.9228782   3.0693862  72.3606586  36.4565563
   3.0097336  71.5823126  37.0104957   2.1680477  72.5285673  36.1815524
  28.1905866  56.8047333  41.5468502  27.2443414  56.9483185  41.5316582
  28.5351586  57.4092674  40.8895493  22.6786040  75.2634505  11.2086009
  22.6830446  74.3099097  11.1250972  21.9893276  75.4447178  11.8475627
   8.6916018  75.9031820  66.6252041   8.3740395  75.5300713  67.4475002
   9.1834623  76.6807604  66.8891668  83.8843481  68.9670038  39.8608232
  84.2408846  69.7714329  39.4839883  82.9416530  69.0273857  39.7061896
  20.2865982  62.6283741  24.0641379  21.1172009  62.9008961  23.6741853
  20.4549527  62.6222754  25.0063944  63.5568081   1.7182436  39.6043348
  62.8107344   2.3061647  39.4861627  63.1668888   0.8892145  39.8816347
  20.5134463  54.6057415  21.2397814  19.7998393  53.9843321  21.3841653
  20.9744573  54.6400166  22.0779490  11.6379702  57.9302502  65.8772659
  12.1407902  57.8721237  66.6896820  12.2799408  57.7677298  65.1861143
  67.4665008  16.7149729  15.3118896  67.6967523  16.1021561  16.0102271
  68.3084140  17.0188373  14.9726581  63.9200884  70.3780413  62.6721621
  64.2281729  71.2837124  62.6394176  64.6782309  69.8574114  62.4068451
  50.2466570  16.0073747  33.5589242  49.3093764  15.8981218  33.7195539
  50.6036793  15.1208295  33.6118770  40.3042650  63.7800884  63.0093765
  39.4592285  64.0084982  62.6221085  40.1128244  63.0359507  63.5802031
  53.1129397  21.0792726   5.3153180  53.8440401  20.7404989   4.7986411
  52.3335660  20.8362335   4.8155784  85.1266831  61.7315578  47.1564817
  84.7268905  61.8540907  48.0175161  85.7943563  62.4153519  47.1029186
  25.0722170  78.6104727  47.9362679  25.8518696  79.0704679  47.6251793
  24.5555735  78.4532595  47.1459579  36.7496150   7.0164003  47.8243637
  36.4062773   6.3179388  48.3815908  37.6379584   7.1660795  48.1479025
  51.6584639  46.2430233   8.3630943  51.0254250  45.5459446   8.1911134
  52.3138372  45.8368057   8.9302873  56.1848365  14.5174112  43.5462046
  55.5321847  15.2144041  43.6132050  56.7105304  14.6043005  44.3413973
  67.1570557  79.1767168  60.3166533  67.9315072  78.9182758  59.8169851
  67.1979994  78.6470413  61.1128950  84.7093719  73.5097122  57.5940847
  85.1183733  72.8579283  58.1634045  84.2511418  74.0980673  58.1941652
  35.0431495  58.7381772  13.4489440  35.5242192  59.5376841  13.2354259
  34.9962233  58.7349896  14.4049930  49.1643528  39.0795749   7.2610330
  48.9764450  39.8136896   6.6762208  48.3038781  38.7238115   7.4829482
   1.7657214  69.5547581  46.1531878   2.2404251  69.0301132  46.7978907
   1.9547234  69.1328192  45.3150511  27.6848277  77.4017767  11.1201095
  28.6145984  77.5105194  10.9202766  27.5230457  78.0068807  11.8439197
  80.3979588  63.1305027  59.9782801  80.1996464  63.8256931  59.3508911
  80.2851504  62.3201609  59.4814444  35.2835202  79.1635942  33.3334422
  35.0028753  80.0475502  33.0966020  34.9060106  79.0167475  34.2007113
  23.7804651  52.5909758  63.7164879  23.3838773  53.4577560  63.8039398
  23.1504440  51.9970465  64.1245937  74.6281773  68.5605860  58.4679699
  74.9113089  67.8662539  57.8730154  75.2385396  69.2796230  58.3046341
  71.0263596  61.8229431   0.8902168  70.3429888  61.7525905   1.5567636
  71.8065653  61.4578670   1.3076305  49.9680244  13.0611410  28.2851982
  49.7558295  13.7442197  28.9212871  50.5935990  13.4741487  27.6899529
  34.8599553  33.1326127  27.8715873  34.7453523  33.4139013  28.7793183
  34.3802762  33.7819195  27.3572540  53.7624251   1.8297567  34.9465394
  54.6757280   1.5715875  35.0708699  53.2834517   1.0021772  34.9025702
  73.1711346  78.6078215  68.5474682  73.1294352  78.0885315  69.3504858
  74.1062564  78.6765289  68.3549595  37.0811448  45.7250446  22.3744010
  36.8917630  46.6272968  22.6319122  37.3809800  45.3039497  23.1800174
  75.8435589  63.3426332  15.8326232  75.3204346  63.5513735  16.6065741
  76.6803050  63.0383444  16.1840403   5.3969026  54.6533823  39.8529077
   5.3513610  54.6995592  40.8079052   6.2823856  54.3390656  39.6702671
  15.7537806  64.2105007  27.8482652  15.0596881  64.5560169  27.2869396
  15.6154191  63.2633591  27.8447771  83.8021599  11.5025320  59.9940157
  84.6248614  11.4919080  60.4831839  83.1319939  11.6719904  60.6561279
   9.2999572  59.7953844  31.7992711   9.6565098  59.9480391  30.9241724
   8.5650694  60.4048347  31.8681431  67.2070155  45.3103107  14.3365096
  67.1597669  45.4072040  15.2876186  66.3401196  45.5714268  14.0258025
  44.8468876  62.3552465  44.1143131  45.5251551  61.8546772  44.5677567
  44.6213770  61.8190622  43.3541250  41.8594503  72.1687174  40.6743097
  41.7044878  73.0468893  41.0222054  41.9322443  72.2952604  39.7283077
  38.0279129  24.3788519  37.1093440  37.5988816  25.2087392  36.9009137
  37.6360731  23.7482729  36.5051341  81.0922764  16.3912290   3.1106567
  82.0214794  16.4674991   2.8938674  81.0706589  15.8103842   3.8711738
  41.0537338  76.1559486  57.6787901  40.4178333  75.8277130  58.3144951
  40.7797670  77.0573473  57.5095177  41.6345296  24.2121357  11.9007968
  41.8334863  24.8524612  11.2176895  42.0159052  24.5840257  12.6960849
  32.0205400  70.3226990   0.6214713  31.2026165  70.2151245   1.1069202
  32.3053596  69.4289249   0.4310226  59.8285423   5.4096836  20.7459640
  60.5068884   4.9176353  20.2833938  59.0482050   5.3129762  20.2001094
  52.7017819   4.6344270  49.4792080  53.3670222   4.7366132  48.7985849
  52.5945388   3.6875047  49.5690536  10.6396091  70.5218697  59.4350147
   9.7492337  70.2583027  59.2026424  11.1218238  69.6982431  59.5081139
  14.3161047  58.8261557  42.9954433  14.4335711  59.7700500  43.1026697
  15.0628555  58.5507393  42.4637127  62.4911748  24.1294946  50.9152126
  63.4269153  24.3289652  50.9440613  62.0903503  24.9144830  50.5418777
  14.8299610  21.6963377  59.7389889  15.1843869  21.0369005  59.1425371
  15.5314170  22.3417081  59.8266649  54.5409614  45.1429749  66.1022186
  54.7566062  44.4988441  65.4278135  53.8120371  44.7512007  66.5832758
  73.7818562   5.2332582  46.0991192  73.7923752   5.3625097  47.0474911
  73.6577259   4.2907610  45.9872055   3.4195486  62.0587921  26.0022902
   2.6447147  61.9056702  26.5430474   3.5750717  63.0009842  26.0679650
  73.7688110  49.5823139  29.6688365  73.6688421  48.8878006  29.0177726
  74.3488214  50.2196068  29.2520809  72.7666066  48.6877292  22.5684261
  72.3660193  49.3166870  21.9682884  73.1417034  48.0172867  21.9974326
  32.1854319   5.4982557  45.4179144  31.5728437   5.5319490  44.6831846
  32.1701847   6.3828649  45.7832336  14.5070367  36.7789831  42.1292353
  14.8265891  36.4245119  42.9589748  14.2217736  36.0107507  41.6345930
  20.4674292  79.5392418  45.7248545  20.9963012  79.3878937  44.9415159
  20.4800463  78.7015820  46.1878872  22.2355223  50.1681376  41.0970926
  21.5077186  49.5757055  41.2856579  22.1262050  50.3955221  40.1737404
  66.1802572  49.0107965  49.8822975  65.7955104  49.4427919  50.6449127
  66.0321838  49.6220446  49.1607141  64.0255409  58.9671898  51.6225672
  63.8543278  58.0682564  51.3417959  64.4451123  58.8751411  52.4779749
  57.6404220  35.8330536  18.8190317  57.9761583  36.3836932  19.5263588
  58.2954174  35.1418066  18.7221360   7.4767071  47.5887775  64.9122381
   7.9295611  48.3005619  65.3644705   6.6437006  47.5021791  65.3757381
  19.2367876  37.4695134  12.2295070  19.2839503  38.3461738  11.8480980
  18.6845970  36.9744229  11.6243589  50.7994849  64.5983887  62.8622103
  50.4808456  64.1918993  62.0563126  51.3743168  65.3032303  62.5638914
  37.1639072  61.8860106   3.8227701  37.0668416  62.6826457   3.3010578
  37.0749425  61.1731295   3.1902217  20.1482916  70.9930134  46.0273266
  20.1507783  70.1100636  46.3969612  19.2962599  71.3532448  46.2733126
  64.0931016  10.1948762  32.0066094  64.7802287  10.3219914  31.3524461
  64.2816311  10.8466876  32.6817632   7.3321617  47.2671890  47.0718145
   6.7943895  47.3377752  47.8605175   7.6954293  46.3823414  47.1080208
  64.6427470  23.0122972   9.4214547  64.4425637  23.9442825   9.3345028
  64.1845733  22.7421403  10.2172720  24.8081827  37.9419231  47.4247169
  25.1116395  37.1188211  47.0417738  25.3326678  38.0443525  48.2188559
  48.4168297  70.5007029  13.5071599  49.3066770  70.7533693  13.2610667
  48.5309750  69.9354935  14.2711902  36.9291435   7.9386181  12.4167823
  36.6545007   8.8440412  12.5617408  37.5742219   7.7710861  13.1038284
  16.1609936  53.4281206  28.3994961  15.3135669  53.2946205  27.9749060
  16.0314608  54.1955853  28.9566779  62.9926306  24.0935707   6.8570054
  62.4608880  23.3739281   7.1969992  63.2347494  23.8158607   5.9735543
   1.7428795  26.3216919  25.9096622   2.6227895  26.2356323  25.5428027
   1.4927451  25.4280323  26.1442756  45.8471570  39.8814625   5.7612943
  45.7211039  40.1245827   4.8441076  45.3800366  40.5560154   6.2542581
  36.5812217   4.1934194  39.8496127  37.1345573   3.9365854  39.1119862
  37.0518856   4.9182405  40.2611256  76.1418062  28.0663061  18.8572097
  75.2764702  27.6833439  19.0013146  76.7307693  27.5362015  19.3941867
  35.6047271  21.6315740   2.2449684  35.7613800  21.5956014   3.1885766
  34.6567009  21.7355913   2.1633577  80.8968297  65.3374577  24.5053887
  81.0217044  66.2853909  24.4600391  80.6639057  65.0835657  23.6123514
  48.9055718   5.7912536  41.1599494  48.9052666   4.9535271  40.6968594
  49.7113294   5.7790752  41.6765142  85.1887341  28.0419064  61.4070368
  85.3684441  27.8730273  62.3319244  84.4702095  28.6742854  61.4142370
  74.2009014  26.9448781  23.6075854  74.8350984  26.8076658  24.3112898
  74.0794152  26.0771966  23.2220960  55.0119096  22.5906587  42.2912455
  55.5251294  22.5146246  41.4868498  55.5973202  23.0297899  42.9082489
  77.9374504  46.3738251  19.8673534  77.5835550  47.2515440  19.7238219
  78.6804444  46.3140011  19.2668438  75.9198344  47.8883505  33.9526081
  75.1411611  48.0020237  34.4975662  75.8426964  48.5654688  33.2804537
  19.2199337  64.8037863  41.3565254  19.2979848  65.5745077  40.7942724
  18.7685704  65.1222992  42.1382236   3.1520322  30.9830999  44.3101978
   3.5547391  31.2954688  45.1204348   2.5396365  30.3041220  44.5933819
  85.3800009   2.4901766   0.9558915  84.4956396   2.1267456   0.9105300
  85.2839921   3.3926195   0.6515693  15.7377553  51.2533092  54.6312523
  15.4477894  50.7456684  55.3891754  16.5731883  50.8573866  54.3832064
  26.8593240  71.1445522  51.2142992  26.1704016  71.6973686  51.5830946
  26.5332675  70.9015894  50.3477621  12.3980629  51.4902830  39.9895430
  13.0716991  52.0507622  40.3746557  12.8859901  50.7740545  39.5831275
   6.8833065  72.2930288  44.0439749   7.7653098  72.0624018  43.7522364
   6.9676816  73.1855917  44.3793058  48.8575474   3.5329145  22.7571773
  48.6867396   3.4629053  21.8179416  49.7731070   3.8062424  22.8143882
  63.1311589  23.0720162  21.4526224  62.4200612  23.7125778  21.4685869
  63.8949090  23.5540581  21.7697263  10.9324718  50.5912113  14.7149193
   9.9952304  50.7855463  14.7082710  10.9797776  49.6440887  14.8451066
  30.4235499   6.0167017  69.7702646  29.7451885   5.3455724  69.8454571
  30.1933890   6.5021982  68.9780807  13.8606942  73.6506176  46.6807413
  13.6549318  73.0848312  45.9365797  14.7363722  73.9872551  46.4907503
  72.0987159  48.4283733  40.2050018  71.9224721  48.9823389  40.9654570
  72.6925653  48.9476633  39.6628666   2.7204901  34.8120332   4.7451651
   3.0051631  35.5390024   4.1913530   1.7644769  34.8543715   4.7232947
  19.7902703  26.0635138   8.3637279  18.9269912  25.6503010   8.3483225
  20.3877592  25.3815055   8.0569649  17.9608524  50.0296640  54.1887188
  18.8394892  50.4037619  54.2541218  17.9833901  49.2636347  54.7622347
  74.6651381  34.5179248  15.9415770  74.4681937  34.5793128  16.8762827
  73.8202018  34.6444893  15.5099583   4.2897981  42.2719097  29.0377927
   4.1759765  41.3506746  28.8041258   5.2308589  42.3672771  29.1845655
  73.9437662   2.4380579  46.0300589  74.2256009   1.8105402  46.6956615
  73.5894143   1.8963232  45.3249359  62.0480424  64.5873260  23.1026745
  61.6746241  64.8681259  22.2672462  62.7180249  63.9472723  22.8624964
   6.6079855  57.4295950  11.9690073   7.3143160  57.9814625  12.3048186
   6.2888014  56.9554663  12.7368331  79.2277771  74.7392368  11.3934863
  80.0383931  74.8055601  11.8981981  79.5169985  74.6729517  10.4834366
  20.7481813  44.5834494   9.4357830  21.6857195  44.7310543   9.3114120
  20.4192829  45.4123640   9.7835797   8.8353860  47.0454407  26.1157823
   8.9059395  46.0934353  26.1861253   8.6817461  47.3411751  27.0130920
  49.3997656   6.2937536  24.1813707  49.0416633   6.5572538  23.3336902
  50.1345931   5.7204618  23.9631939  71.8026060  64.2254257  58.7208462
  72.6825768  63.8949490  58.5401058  71.3182718  63.4601068  59.0305853
  29.5881414  26.6304994  33.9952755  30.2509952  25.9680033  34.1900969
  29.9163795  27.0751452  33.2137513  19.7248960  38.7520552  38.8202810
  18.9780974  39.3276548  38.9852262  19.3489325  37.8720331  38.7991333
  67.7518521  11.5868992   5.7768392  66.9555877  12.1156639   5.8278179
  68.1545005  11.8397611   4.9460744  68.9564024   3.2220544  62.7170467
  68.7939249   2.5370397  62.0685148  69.1683709   3.9978685  62.1980000
  10.2429461  66.9030762  41.0274506  11.1180604  67.2895670  40.9953403
  10.3980744  65.9585333  41.0260916  61.0407696  19.2501110  23.3830547
  61.8329714  19.7288698  23.1392478  60.4510666  19.9216265  23.7259101
   0.3508158  75.8040667  35.7643557   1.0681277  76.4101458  35.9497237
  -0.0619662  76.1556005  34.9755168  70.2438074  62.0967674  67.4271584
  69.5042783  61.4908457  67.3803234  70.7662767  61.7804861  68.1641960
  80.4719532  32.3711896  34.9388957  80.8469111  31.8203306  35.6260562
  80.3323936  31.7747998  34.2033195   0.7937025  29.9335146  23.0661702
   0.1261760  30.4361415  23.5330820   0.2977815  29.2963314  22.5520778
   3.2125401  68.9274263  23.1859136   3.2991844  68.0416393  22.8336287
   3.7147582  69.4752789  22.5826979  81.0135767  67.3881102  52.9251909
  81.9654936  67.2889376  52.9410172  80.8210012  67.9688597  53.6613131
   0.9347828  53.0292177  57.7806902   0.9331146  52.1863365  57.3270655
   0.0766328  53.0761003  58.2021332  52.6437635  73.7065200  62.3532438
  53.1605501  73.1399069  61.7804337  52.0118485  73.1177066  62.7658129
  76.4298356   1.9846548  50.4609203  76.4408177   1.1494140  49.9934959
  75.5004007   2.1853824  50.5708790  14.6304870  63.0714798  64.7629499
  13.8167357  63.5661888  64.6664906  14.4028318  62.3472643  65.3459740
  25.6408381  16.2242615  36.6719294  25.4761195  15.3586912  37.0459461
  25.0251198  16.2909293  35.9420824  75.1057392  59.8872328  48.2086086
  75.9760994  60.1369715  47.8982258  74.7628242  60.6791162  48.6228132
  29.5267407  70.1870159   1.7440843  29.4836811  70.0218658   2.6859474
  28.9031451  69.5684175   1.3636922   6.3846803  32.0709682  63.5354280
   6.5201241  31.3803411  62.8866434   6.4811200  31.6292596  64.3791246
  78.9287220   7.7301492  55.8832502  79.6258103   7.6652136  56.5359974
  78.6179959   8.6327734  55.9536648  10.3510165  73.4137726  60.1614141
  10.3623438  72.5788355  59.6934605  11.1731768  73.4248495  60.6514740
  24.3078852  47.8710699  32.5519419  24.1777802  48.7739706  32.2619915
  25.0482392  47.9180861  33.1568360   8.9190131  47.0281935  69.0761709
   8.2497811  46.6177797  68.5285234   8.7532282  47.9673052  68.9936113
  81.5534494  10.9809059  10.4874610  81.4332984  10.9262461   9.5394039
  80.8481787  10.4445452  10.8495902  10.7159531  76.4824820  29.5776367
  10.3402913  76.3240576  28.7116051  10.0713062  77.0338154  30.0211358
  60.3760082  19.0985012  61.6827536  59.8731214  18.9260352  60.8867693
  60.0006086  18.5079801  62.3358917   9.5946819  71.0748243  67.6996946
   9.4967079  70.9339094  68.6413813   8.7622929  70.7851219  67.3262835
  17.4231549  58.3854395  68.7385938  17.7554925  58.4126276  67.8413511
  17.7725717  59.1772181  69.1475271  75.4807532  39.6104527  35.2142167
  74.9413174  39.5064688  35.9980702  75.2662635  40.4852200  34.8901701
  21.2105346  45.7009411  27.6878262  22.1422124  45.9137678  27.6338434
  20.7900429  46.3106918  27.0815086   6.9001085  59.3457317  50.9328270
   6.7903847  60.2714634  51.1501217   6.0648113  59.0910912  50.5408239
  64.0684634  74.1956568  48.7532330  63.5681254  74.6252632  48.0594540
  63.5282737  74.2982006  49.5367575  67.7260369  69.7017765  43.4417915
  68.4937483  69.1711760  43.6546707  67.6172942  70.2795696  44.1971445
  12.9369271  21.2189507  26.9675040  11.9811797  21.2529898  26.9272566
  13.1831038  21.9935918  27.4730325   3.0136123  51.1955452  23.0127025
   3.7190479  50.8811712  23.5781765   2.6062000  51.9048357  23.5098505
  83.3559941  26.8659306  37.6531363  83.7676395  26.7195511  36.8014598
  82.5742090  27.3817825  37.4557996  38.5518693  72.2950582   2.8016471
  38.0197619  72.9372768   3.2713842  39.1741823  72.8210620   2.2993755
   6.1912489  40.8531904  14.3825805   5.6000853  41.2346792  13.7335622
   5.7967043  40.0082493  14.5985496  45.9387564   0.4296674  39.4444609
  45.3469538  -0.2269659  39.8116612  45.6845855   1.2472429  39.8724771
  28.8402557  45.2116919  30.8340335  28.3331180  44.6189308  31.3887215
  29.3676114  45.7222176  31.4484358  20.5187726  56.2719536  37.0016885
  21.1092973  56.9881630  37.2352529  19.7009027  56.7055893  36.7582202
  78.1106055  39.0547132  36.3010788  77.2887611  39.3018985  35.8771634
  78.6060637  38.6029696  35.6179380  15.0080895  60.2234364  39.9851632
  14.2587328  60.8119202  39.8935914  15.0129545  59.7139597  39.1748309
   0.6795997  50.7221317  31.0350204   1.5501073  50.3722906  31.2249160
   0.8326820  51.4024448  30.3793001  47.0943789  14.5727581   4.1703176
  46.6277478  14.4819540   5.0011253  47.3347960  15.4984230   4.1305684
  24.1263223  45.4506254  45.2371216  24.5416021  44.5883608  45.2204514
  24.8513103  46.0632801  45.3607178  34.4813298   4.3558492  22.7304983
  34.2408418   3.6019411  23.2690334  33.6559563   4.8174181  22.5823760
  22.5869322  55.4224396  23.0131102  22.7946806  55.1223135  23.8979793
  22.2357512  56.3044262  23.1356168  75.8385760  51.6304064  38.7698770
  76.3240850  50.8056784  38.7515426  76.4207459  52.2410583  39.2220068
  15.9641968   1.2281313  67.2836256  15.0801336   1.1497774  66.9251204
  16.0926532   0.4214658  67.7826500  80.1785517  60.2315569  63.1149292
  80.1098967  61.1862755  63.1091595  81.0793453  60.0578499  63.3881092
  28.4215188  38.6882448   8.2781762  28.8405347  37.9248452   8.6755180
  28.6232376  39.4095278   8.8742411  83.5892378  21.2723231  60.0760698
  82.9871777  20.5298924  60.1265907  83.9912382  21.1962414  59.2107153
  19.9239886  65.5501556  25.8423042  19.8798335  65.4024839  24.8975945
  19.9880230  64.6725941  26.2191629  38.2460134   5.1865759  23.5521197
  38.3267294   5.3600588  24.4900012  39.1445028   5.2214613  23.2238960
  16.7354846  45.7062292  22.4102283  16.9229841  45.2339411  21.5990472
  16.4238906  46.5639830  22.1214247  59.9243509   0.8297434  47.1411753
  59.0475141   0.6542577  47.4826288  59.9554788   1.7809190  47.0385265
  51.5793718  79.7822249  35.5796409  51.9310970  79.2348180  36.2816858
  52.1969531  79.6708784  34.8568487  47.4513159  28.7711662  13.6340808
  47.5710837  28.2652468  14.4377803  48.0620132  29.5033640  13.7187290
  15.9295368  41.3751125  60.6222820  15.2074850  42.0010519  60.6777477
  15.5023623  40.5262518  60.5074310  20.3139663  68.4723568  42.8291130
  20.8793855  69.1708088  43.1588078  19.8098063  68.1917334  43.5928583
  27.4059534  60.5150080  45.0929022  27.2444010  60.2193689  44.1969490
  28.0978489  61.1709309  45.0075912   4.1208705  54.1938829  32.6186895
   4.0964696  54.6862173  33.4392047   3.2236946  54.2354441  32.2876620
  40.4671786   5.8761495  15.2542686  39.9579308   5.0738758  15.1391506
  41.2380669   5.7520384  14.7005939  31.9170141  24.3037295  35.3809929
  31.9502974  23.3684230  35.1801777  32.8001690  24.6208453  35.1920366
  19.0902162  42.8473330   2.4862465  19.7235870  43.4117746   2.0429860
  19.6047533  42.0966101   2.7827203   5.1066542  59.6761131  48.2200193
   4.9815789  60.1511812  47.3985004   4.9425530  60.3282642  48.9011955
  70.4360980  46.1514187  68.7071753  69.5278651  46.4261389  68.5811949
  70.4883117  45.9140921  69.6330166  25.8872151  40.1898575  46.2886143
  25.3628922  40.6439447  45.6289768  25.8343983  39.2663670  46.0424280
   4.3067637  70.5866861  49.0821266   4.0069932  70.9074259  49.9327087
   3.9711082  71.2256193  48.4533691  26.4578766   3.9743795  39.2119980
  26.2066728   4.6234789  39.8691177  25.6881072   3.4122839  39.1240788
  48.2355747  20.7207865   5.8559799  47.3784880  20.6009764   6.2649774
  48.6644784  21.3893694   6.3900852  84.2264498  24.1700768  53.1493855
  85.0679831  23.7685561  52.9329729  84.3907100  24.6467996  53.9630127
  14.5640802  71.1203384  60.2328110  15.3593218  71.0270500  60.7573271
  14.6087003  70.4031038  59.6005011  31.7863274  74.5204973  50.4631853
  31.2114620  73.9430523  49.9608707  31.9997501  75.2311087  49.8584461
  24.4982791  60.7344389  17.0687222  25.4180288  60.7761431  16.8069017
  24.2462063  59.8241043  16.9138575  15.9683788  48.3793879  60.4966068
  15.9694541  48.9163017  59.7041750  16.8484604  48.0047655  60.5332851
  79.0887386  49.3787861  19.7634530  80.0144732  49.6088791  19.8428488
  78.6651748  49.8358059  20.4900622  73.9256293  53.1441164  17.0023918
  74.1659659  53.6392403  17.7855432  73.3636469  52.4405050  17.3269486
  10.8211935  57.1207047  35.3786445  10.8970320  56.1919689  35.1597261
  11.7025495  57.3750877  35.6520176  12.9244208  72.8546381  61.4530754
  13.6136901  72.3224545  61.0556793  13.0930746  72.8014040  62.3937941
   4.6889216  45.0520563  30.4992318   5.1606435  44.8782492  31.3137865
   4.6119279  44.1952229  30.0795412  50.2305399  17.6306333  43.7703848
  49.9787914  17.1736898  44.5729208  50.1910793  16.9587316  43.0897760
  68.3772323  27.9153484   5.0811052  68.8036022  27.1477455   5.4621934
  69.0030239  28.2402223   4.4337463  81.1861092  29.3974805  62.5703430
  81.0496971  28.6580753  61.9779730  82.0499498  29.7363544  62.3354530
  63.7623940  17.1298069   3.2031059  64.4219259  17.4795097   3.8022374
  63.3792070  16.3898701   3.6741638  54.4054948   9.2025747  58.8319254
  54.4137966   9.1353502  57.8771257  54.1220843  10.1000585  59.0063906
  10.3785626  36.7836326   8.5503148  10.3803650  36.0405392   7.9469585
   9.6220604  37.3062986   8.2843160  22.6758366   1.1062898   1.3717097
  22.7049171   1.1592950   2.3269984  22.6874172   2.0181265   1.0807709
  66.2159306  74.0325546  38.1339788  66.2912220  74.6446943  37.4019647
  65.8548313  73.2363605  37.7442193  84.7900655  47.1347427  26.8191147
  84.6859298  47.7392769  27.5539112  85.5414329  47.4751568  26.3335252
   1.7796704  60.8477402  15.0498307   1.9243236  61.4158630  15.8064973
   2.1800770  61.3170385  14.3179381   2.4910514  47.6526403  49.9061441
   1.6787072  47.4943686  49.4252300   2.2414882  48.2564354  50.6057072
  76.5907353  63.6508274  52.9031706  75.9635901  62.9292917  52.9512262
  77.3512918  63.3402205  53.3944035  12.9966033  63.3385754  20.5792451
  13.6668468  63.4834766  21.2470841  13.0027056  64.1400433  20.0559402
   9.9550772  32.5151277  41.6025400  10.2254903  32.1465683  40.7615423
   9.3531209  33.2226038  41.3715458  73.0502493  16.1617227  65.0170428
  72.7449686  15.6038757  65.7324726  72.7584214  17.0410200  65.2576867
   1.5205124  43.3405685  19.4538546   2.1592143  42.7477264  19.8498750
   1.1123120  42.8235769  18.7593579  11.3901341  38.0403781  36.9839454
  11.1564934  37.6084995  36.1622882  12.2734916  37.7262425  37.1768975
  82.7395108  57.5985241  30.2294278  82.2990462  57.2933722  29.4362664
  82.6043010  58.5461283  30.2289891  54.5637113  59.9234676  38.6257529
  54.6706802  59.9897146  37.6768565  55.2476126  59.3133211  38.9018583
  19.0408981  50.2607059  67.3858976  18.6707687  49.4038820  67.5982571
  19.9859250  50.1443529  67.4839783   6.1169481  69.2258596  17.8317213
   5.6725830  69.8984766  18.3478248   6.2203538  68.4901857  18.4353113
  80.0250793  36.1594009  66.7667150  79.7907829  35.3858876  66.2538671
  79.4150108  36.1515737  67.5042725  15.3754759  31.7790341  40.0907612
  16.1687601  31.2484717  40.0170374  15.2871978  31.9488358  41.0286331
  29.4165683  69.6165276  31.1939383  29.1402054  69.7340298  30.2850652
  29.0975189  70.3985834  31.6443038  34.8186183  54.8846054  38.2547688
  35.7158756  55.2161217  38.2193470  34.4425344  55.1203156  37.4066925
  84.8208586  65.3591204  55.6777668  85.7055624  65.7232189  55.7088184
  84.8762822  64.6493435  55.0379467  75.0978464  47.2187853  68.9244890
  75.2037817  46.2759733  68.7975359  75.7674027  47.6125050  68.3651018
  83.6437981  39.2790246  22.1310616  83.8851087  40.1839304  21.9332027
  84.4755865  38.8054132  22.1381640  13.3686090  41.1590385  55.6371593
  13.6311257  41.6261244  54.8439693  13.4516871  41.8080091  56.3358498
  65.4631805  21.3707972  44.1644907  66.0543108  20.6569982  44.4038439
  65.4167461  21.9167161  44.9493742  83.9995287   1.2413639   7.2166824
  84.1821573   1.9869655   7.7884864  84.6714328   0.5974859   7.4407243
  80.8524007  69.0162897  39.5847344  80.0641567  68.7471247  39.1130877
  80.8671168  69.9697971  39.5020604  26.2049985  75.1964951  39.0753984
  26.2476587  74.6774244  39.8785019  26.5225101  74.6065378  38.3917546
  62.7614294   0.9704866  58.2851410  63.2339465   0.3267374  57.7573586
  63.4210884   1.3193025  58.8846493  19.8671428  13.4799141   3.7144517
  20.2593700  14.3476099   3.6170387  18.9465419  13.6060375   3.4846305
  32.0517540  68.5372639  35.6258202  31.7279887  68.3136654  36.4984083
  32.1626282  69.4877672  35.6477904  70.8263987  70.6289005  28.4421182
  70.8930630  70.7333374  27.4929714  71.1877114  69.7592068  28.6133456
  69.1335470  26.9403553  34.7775030  69.6312600  26.6244864  35.5316544
  68.5584646  27.6162887  35.1361465  64.6949655  37.0832634  59.2239714
  65.3363508  37.7866054  59.1231441  65.2209312  36.2852812  59.2770672
  10.0859724  28.8130178  25.1074147   9.2051386  28.5004034  25.3139019
  10.5509983  28.0341997  24.8017478   7.3734123  42.7713442  56.4978027
   6.4241225  42.8939772  56.5043545   7.5302631  42.0815802  57.1426725
   6.8032628  60.0499153  28.7520123   7.7312124  60.2819538  28.7880802
   6.5279830  60.0203371  29.6682954  55.1343203  43.2772684   8.6333603
  54.3632841  42.7183819   8.5364878  55.8719730  42.6674271   8.6471802
  12.5132918  53.5468912  14.5285630  12.6879740  52.9424334  13.8072109
  12.2236133  52.9848528  15.2471948   1.3363621  72.1970224  53.6330795
   1.7017969  72.3975086  54.4947624   1.9908974  72.5206423  53.0141354
   3.3824741   2.3497476  37.2161627   2.8164874   2.8770246  36.6523695
   3.5959684   1.5800752  36.6886520  84.2249592  49.5752430  58.8241196
  83.7806731  49.8098087  59.6388721  85.0123802  49.1097641  59.1061258
  17.2374642  63.8975668  25.1203203  16.9134295  63.7459040  26.0081434
  16.6417754  63.4004259  24.5597529  35.9777331  49.2410135  25.7954407
  35.7111645  48.8968277  26.6479111  36.2263751  50.1485920  25.9706926
  11.6381848  39.9315643  31.0840106  11.8088758  39.1301227  30.5892539
  11.1553049  39.6378732  31.8565416  46.6364632   0.4540390  14.3992233
  47.2198043   1.0719627  14.8398113  46.9813297  -0.4081446  14.6314811
  20.8412814  75.2652884  29.3025374  20.1252389  75.1007414  28.6889935
  20.8572054  76.2171412  29.4023371  68.0730802  70.9795475  37.2956538
  67.4261147  70.9686089  36.5902829  67.7607125  71.6558743  37.8966904
  48.6114346  72.9481534  25.7406139  48.9743840  73.4910921  26.4404201
  48.5029589  72.0846728  26.1392021   8.4154105  50.0524807  65.9762907
   9.3444097  50.2625322  65.8810472   7.9839540  50.9035683  66.0519743
  31.6054469  22.5081944  39.5921111  31.7952377  21.8139005  38.9611077
  31.2787801  23.2332659  39.0593886   8.0955136  70.4911280  52.2267771
   8.0937022  71.3797760  51.8710613   7.1789628  70.2173424  52.1919918
  11.3252306  54.8067045  51.6691875  12.0504272  54.8707533  52.2906542
  11.7235482  54.4588614  50.8713293  18.9299541  74.8340873  27.2371101
  18.9187335  74.9866513  26.2922191  18.0363964  74.5621185  27.4464416
  83.7059420  43.3529282  50.3409386  83.7695059  44.3079853  50.3330612
  84.6136448  43.0528593  50.3885365  83.2023801  63.7877703  25.4349327
  82.9386346  62.9002523  25.1920581  82.4589771  64.3358183  25.1834846
  14.0687680  53.2111883  35.4106045  14.1202509  53.4316826  36.3406396
  14.9747586  53.0376101  35.1550984  29.4228387  78.2501364  17.5652552
  28.8156939  78.4514666  18.2773459  29.8455882  77.4345922  17.8343260
  32.4538183  40.2554131  18.8915992  32.4368215  39.9966669  19.8130083
  32.8167748  41.1411095  18.8981962   9.1646624  32.4275398  29.6501303
   9.3894428  32.6597834  30.5511117   8.2997888  32.8136992  29.5119047
  26.5199041  61.2124348  36.0022402  25.9243798  60.8524895  35.3449559
  25.9600163  61.7462301  36.5660000  82.2163004  28.7900019  50.2544641
  82.2128585  29.2916131  49.4392300  83.0970535  28.4183550  50.3032923
  20.9893918  71.3864946  40.5456257  20.9469604  72.3340702  40.4170370
  21.1651826  71.2792826  41.4804173  76.8121177  61.2726974  40.6195545
  76.6824973  60.3245544  40.5982447  76.8311751  61.4909506  41.5513468
  13.8643897  52.1449041  19.5544446  14.2455935  52.9706955  19.2561388
  12.9690099  52.3714304  19.8058653  29.1112232  72.5806236  61.1834908
  28.4834361  73.2884884  61.3285685  29.8571563  73.0051565  60.7597113
  67.5565834  27.7814194  64.7063944  68.0402346  27.8659340  63.8847072
  66.7060531  27.4261900  64.4482411  63.3376914  72.1165705  68.0640936
  64.2036086  72.0460463  67.6622915  63.3990365  71.5878773  68.8596773
  39.6659922   2.5479879  51.4785194  38.7247549   2.5842371  51.3082504
  40.0284850   3.2779398  50.9765244  36.8000867  75.2937752  67.6038978
  35.9328463  75.3656393  68.0025979  36.6389616  75.3746372  66.6638277
  46.4016472   5.0577249  22.9983926  47.2474133   4.6099081  22.9792666
  45.7938932   4.4068708  23.3494568  16.0842526  49.7099876  49.0333462
  16.5204716  48.9424658  48.6634064  15.2439761  49.3784904  49.3500137
  54.1658269  16.0977068  38.2018590  53.6462294  16.6695299  37.6368189
  54.0676295  15.2269354  37.8166866  26.6181358  12.6991262  69.4604635
  26.6683747  13.5430803  69.0116358  25.7344078  12.6752557  69.8274565
  70.0628124  39.2369121   8.5962772  69.2577324  39.1612285   9.1084766
  69.7806702  39.1242784   7.6885652  50.8206355   1.5041628  29.7259498
  51.3453661   1.2447824  30.4833245  50.5275618   2.3921575  29.9304032
  66.3544273  80.1534462  14.1648865  66.0750246  80.4597569  15.0276351
  65.5429649  80.0795650  13.6625886  31.8610191  67.1986675  47.9083061
  31.1985016  66.5263271  48.0672407  31.5221786  67.9777765  48.3492279
  51.3871895   5.7014455  42.8729105  50.9880315   6.4268484  43.3532143
  52.3201500   5.9142103  42.8495789  59.4462186  64.7300434  46.3706732
  60.0187379  65.1886511  45.7557487  58.5917145  65.1465559  46.2585545
  52.6807117  66.2289381  43.9408684  51.9698286  65.6923628  43.5902023
  52.3979568  66.4510775  44.8279619  84.3121982  51.6862774  26.7173672
  84.3830500  52.0664692  25.8417726  83.7537925  52.2965574  27.1990037
  34.2354751  59.0117168  10.1214433  33.8732815  59.8975754  10.1039040
  34.3918467  58.8352203  11.0491431   3.1092340  76.6460848  52.3883677
   2.6927775  77.3043299  52.9447031   4.0252534  76.9193411  52.3386669
  61.5510212  25.0136461  43.1183624  60.6293904  24.7553529  43.1078100
  61.5489255  25.9211626  42.8139973  36.7179799  30.5952597  48.6535501
  36.4250994  29.7828317  48.2407379  37.4113703  30.9195113  48.0788326
  62.5258290  10.7060327  51.2298489  62.6983725  11.3054552  50.5037928
  61.5932094  10.5033197  51.1566210   9.2395865   2.1565523  54.1908503
   8.3202731   2.3337164  53.9915895   9.6146594   3.0174341  54.3764067
  35.8718203  52.8751268  29.4606185  35.1181351  52.5728979  29.9674249
  36.5571563  53.0189409  30.1132011   3.4763521  52.0799160  20.5869150
   3.3571303  51.8112183  21.4978576   2.8160664  51.5842295  20.1026130
  43.9689635  31.0357561  45.1124620  43.2138227  30.6349077  44.6819782
  43.9277088  30.7170953  46.0141182  80.4686207  70.0871658  22.5407934
  81.0120568  70.8492947  22.7409673  81.0947815  69.3775082  22.3974729
  77.2270317  36.6801925  60.5545414  77.1997805  35.9345766  59.9549181
  77.6155419  36.3290973  61.3558043  35.4942131  33.7178564  24.6703148
  36.0020423  33.2475615  25.3314996  35.8291650  33.3923650  23.8347936
  43.0188762   4.8289766  14.4189560  43.1557392   3.9846315  13.9893270
  43.7386881   5.3766145  14.1056061  24.7678657  30.3355112  58.8242197
  24.5601078  31.2094869  58.4937048  25.0404035  29.8447694  58.0488968
  39.0517449  73.9826012  49.5075655  38.2327533  74.3573093  49.8317242
  38.7769723  73.2876015  48.9094782  21.1024094  77.1291208  16.3284922
  21.2675714  77.5489378  17.1727109  21.9219494  77.2329569  15.8449578
   9.5687157  56.4812899  66.1266899  10.4159844  56.8729496  65.9146214
   8.9876783  57.2288990  66.2670803  19.8263788  58.8009405  32.8947949
  18.9403343  58.5151815  33.1172776  19.7705352  59.0603495  31.9751096
  38.4894919  60.9907150  25.3123093  37.7512169  61.3018942  24.7885299
  38.2813287  61.2639475  26.2057543  57.9853236  31.2445345  13.1926441
  58.0997144  30.9651556  12.2842968  58.7065183  31.8543520  13.3482981
  42.5842213  33.1297674  43.8193321  43.2668291  32.6912775  44.3272686
  42.5682114  34.0236940  44.1612101  26.0966090   9.5607175  51.6607428
  26.2801350  10.4931059  51.5458632  25.8642592   9.4744768  52.5853014
  83.4287535   6.4779272  29.5632505  83.7533032   5.6793108  29.9793196
  82.4886214   6.4766969  29.7432208  30.4784395  17.6165380  57.6929998
  29.7535930  18.1351080  58.0421638  31.1534046  18.2610788  57.4803400
  26.4073515  67.2650576  49.6848202  25.7842588  67.9862690  49.5962715
  26.0419679  66.5650702  49.1437578  75.4115534  65.6747627  49.1521311
  75.3670186  66.5268230  48.7182570  74.7869772  65.7408714  49.8744678
  80.6058821  51.5711498  54.4856787  79.6603799  51.5598297  54.6344376
  80.9709227  51.0896444  55.2280664  35.9723370  29.9356641  32.0465302
  35.5081951  30.7680120  32.1359611  36.5786027  29.9187364  32.7870607
  39.9593196   9.7182030  11.0408115  40.7613216  10.1068920  11.3900184
  39.3097494   9.8478597  11.7318153   4.5803574  77.4728680  56.6350412
   4.3651173  77.1176672  55.7726383   4.5857802  76.7103291  57.2135973
   3.3951813  74.4837618  46.1450481   3.7340713  74.3732595  45.2566910
   2.9067591  75.3064013  46.1144686   9.6178603  45.3704882  58.6327457
   9.2380786  45.3397131  57.7546501  10.1973557  46.1321640  58.6165047
  13.0769825  51.4541483  59.2438364  12.3883021  51.6646719  59.8744202
  12.9093981  52.0364428  58.5028362   3.7662742  63.2257080  22.4298263
   4.4394892  63.0726433  21.7668152   3.5813111  62.3576212  22.7882147
  45.6594478  36.0228147  44.8221254  46.3883828  35.7202425  44.2805243
  45.9216868  36.8972768  45.1098394   9.6558887  61.0270834  17.1113873
  10.2039135  61.1997890  16.3458323   9.7200519  61.8246698  17.6367176
  69.5371097  55.6257677  43.9861727  69.3065709  56.5034151  44.2908335
  70.4364580  55.4962778  44.2872334  17.3978257  76.2514973  45.7473373
  18.2097757  76.6292286  46.0854053  17.5720465  76.1016989  44.8181248
  70.0404917  32.4581613   8.6798513  69.7495114  33.2337179   9.1595107
  69.2863833  31.8688860   8.6972231  69.6392828  63.4852600  56.8766546
  70.5041307  63.8698959  57.0192194  69.7304684  62.9846954  56.0658836
  29.4560289  30.2446890  18.9489794  28.8883519  29.6716142  18.4336555
  29.0315676  30.2950525  19.8054421  74.9736867  47.4683994  11.1342716
  74.8156915  47.2007507  12.0396041  75.0264213  48.4233803  11.1725711
  61.0599266  23.3576479  31.5653324  61.8129717  23.8534250  31.8868351
  60.3193795  23.9560403  31.6640449  50.3708124  54.2216492  30.5256963
  50.4121208  55.1697302  30.4005218  51.1887074  53.8947248  30.1509929
  56.9464671  23.4397020  19.3922627  56.0687910  23.7518110  19.6124983
  57.5187646  23.8628568  20.0322938  32.1542192  73.7552404  31.9988704
  31.3920712  74.0236235  32.5120282  32.8912473  74.2059803  32.4110055
   3.3860421  49.8033857  30.4445815   3.2484686  49.6822739  29.5050955
   3.0475277  49.0008974  30.8416319  78.8387858  27.7493086  25.1190209
  79.1167008  28.5585775  24.6899748  79.5451676  27.5490179  25.7331371
   1.9948307  62.6269388  32.8207326   2.1609627  62.8121042  31.8964243
   2.6254433  63.1720304  33.2913065  13.6912143  70.4802942  38.5808659
  13.2919681  70.4100513  37.7137446  13.9246762  69.5808840  38.8106227
  30.5803048  37.2630777  21.4946961  31.4824720  37.4643316  21.7433381
  30.5911224  37.2579183  20.5375719  70.5557047   7.7050581  43.6264229
  70.5374037   6.8483915  43.1997776  70.7641398   7.5128927  44.5406771
  15.2985048  48.9342070   6.9878256  14.9366808  48.1731272   7.4417800
  15.0597465  48.8017321   6.0703957  74.1061388   7.0572652  42.9949617
  73.9246975   7.9910459  43.1015348  73.4710204   6.6233148  43.5646534
  42.8172838  10.7619562  46.3830519  42.5367855  11.3017454  45.6440067
  42.1075689  10.1306905  46.5015650  31.8638201  17.0824136  36.8812084
  32.4887459  17.7491083  36.5962172  31.0091107  17.5061407  36.8026876
  53.8930851  48.1816149  57.3152256  53.8056952  47.8110313  58.1934404
  53.7210566  49.1160393  57.4313593  66.0969912   0.4994192  14.2621708
  65.8236038  -0.1250277  13.5901904  65.3867184   0.4871263  14.9037290
   0.3265904  73.0611324   6.6265887   1.1709875  73.1238747   7.0730066
  -0.1204175  72.3345041   7.0606661  77.7111565  21.9228353  36.0576797
  76.7589890  21.9762697  36.1398911  77.8712450  21.9368448  35.1140642
   5.5505943  51.3117218  64.0386772   6.1823487  50.5938292  63.9968920
   5.6826162  51.6968298  64.9049854  69.6974850  66.2748003   5.9957945
  69.4134760  66.7572498   6.7722052  69.6669245  66.9193649   5.2888077
  27.1686125  65.7954264  22.6815176  26.9300151  66.7206478  22.6243591
  26.3421273  65.3452969  22.8562689  35.2640581  64.2626429  49.7579813
  34.3772149  64.4999075  50.0289917  35.8091688  64.4655466  50.5181885
   6.1127114  65.7069874  55.3494358   6.1830920  66.5101290  54.8334503
   5.6502235  65.9727001  56.1442518  45.1980257  72.9915810  23.8244462
  44.4165897  73.4676361  23.5434508  45.9066963  73.3632421  23.2992029
  41.6483545  74.8376179  20.0954819  42.2829628  75.4606819  19.7415233
  40.8109522  75.2995062  20.0548768  71.7945546  60.9533358  34.2662287
  72.3038012  60.7947683  35.0610590  70.8860642  60.9845018  34.5660734
   7.8414404  42.0629311  60.7710695   7.0598215  41.7593670  60.3093815
   7.9861069  41.4076138  61.4536095  18.0095589  51.4177799  28.9409518
  17.3859882  52.1103525  28.7224698  17.8624952  51.2478638  29.8713970
  29.6067142  53.8195086  26.3092256  28.9999151  54.1771984  26.9573641
  30.3228021  54.4538069  26.2758613  73.7138385  44.7836494   5.8336425
  73.1856269  44.3995428   6.5334183  74.4656247  44.1968870   5.7514191
  37.7476691  10.3011980  37.4691319  38.0918388   9.4409456  37.2288322
  37.0550089  10.1136293  38.1025934  67.2659885   5.0865068  54.4881916
  67.6030790   4.2850198  54.0879297  66.7270242   5.4866495  53.8058186
  59.7874194  69.0542030  12.5175273  59.0556222  68.8014984  11.9546390
  59.3771464  69.5033169  13.2565844  52.3649894   2.7347078  52.6555157
  52.5171362   2.3250475  51.8038988  51.7345201   2.1594038  53.0888319
  36.1732452  28.5082140  43.8401842  36.1612283  29.1229238  43.1065464
  35.3454434  28.6623563  44.2953920  20.2096987  25.7170630  30.9336090
  20.6901169  25.8182549  31.7553091  19.3702579  26.1488175  31.0922241
   7.5680244  80.5159950  34.7436333   7.9442918  80.6670475  33.8765478
   7.5834268  79.5647383  34.8490047  61.2807738  18.3262529  42.9053164
  62.1453987  18.1575002  42.5309086  60.9640037  19.0991106  42.4377823
  30.7693815  50.9433222  41.1074495  31.1642671  50.1025391  40.8764029
  30.9186196  51.0272980  42.0492077   4.8798995  13.2524194   5.3928411
   4.4010644  14.0295591   5.6809187   5.1540856  13.4576788   4.4990176
  84.7072111   1.6956129  28.6602116  84.2642723   2.4512853  29.0462160
  84.0720211   0.9831609  28.7321472  70.7868844  72.8862953  38.1312156
  71.0506552  71.9777155  38.2766247  69.8445505  72.8919315  38.2991648
  15.5846322  19.2231774  41.2455463  15.1464248  19.9942648  41.6055918
  16.5154159  19.3810737  41.4034843   7.0952064  49.0730906  16.9339466
   6.2334275  48.8106966  16.6103446   6.9281006  49.4101620  17.8141117
  25.6820703  67.1484613  61.5684843  25.2334690  67.3701048  62.3844910
  26.3413858  66.5037298  61.8251085  44.8656750  55.1019192  34.4915462
  45.2385330  54.9279737  33.6272812  44.0358639  54.6248102  34.4948435
  74.0503727   1.3447942  29.9477625  74.1010224   1.5901460  29.0239286
  74.5272576   2.0368662  30.4058647  40.8464848   0.4976740  17.2399879
  41.2007855   0.6155100  18.1213617  39.9601113   0.8557787  17.2883046
  79.9184209  60.6184435  26.6090512  80.2297705  61.1753845  27.3225713
  80.7128176  60.3646231  26.1392188  26.1438194   1.4839162  59.8402262
  26.2645443   2.4291315  59.9308920  26.7592958   1.2286749  59.1530037
  29.6119547  57.2626591  65.4221106  30.4868531  57.2237396  65.0357580
  29.3765831  58.1898832  65.3891039  23.9516878  77.9135132  67.7621031
  24.0791321  78.8466167  67.5909090  24.8358798  77.5711155  67.8932428
  76.8503273  62.9303026  49.8472500  77.6336771  63.2328558  49.3878365
  76.7864823  63.5008574  50.6131601  80.9024178   5.6365194  37.6712704
  80.1699816   6.2162580  37.8802562  80.4926669   4.7937956  37.4759293
  25.7376518  21.3670244  32.4269080  25.2117916  21.5592279  33.2032847
  25.1345842  21.4872827  31.6933680  38.7329817  62.6217556  39.8279381
  38.3334470  62.9719734  39.0317273  38.1457353  62.8973770  40.5317879
  62.0989735  16.0145183  55.7749308  61.2984262  16.0233541  55.2502609
  61.8190039  16.3021131  56.6439176   3.2460761  71.7102385  20.7885361
   3.9075664  71.1118507  21.1358070   3.2479426  72.4488020  21.3974285
  39.8079311  14.7609605  40.7930565  39.9455165  15.6745805  41.0432577
  40.3414391  14.2605962  41.4104986   3.4005753  19.2699522  13.6773872
   2.8700224  18.6762661  13.1460857   3.2257000  19.0044159  14.5802402
  49.1573321   3.3188047  62.3172331  48.3807420   3.8131323  62.0549870
  49.6981965   3.9538088  62.7867699  48.9359223  18.4250345  29.3010163
  49.3054758  18.2044401  30.1560020  49.4747626  17.9411592  28.6751199
  81.4812788  43.6859894  69.1274166  81.8038571  42.7908421  69.2317533
  81.0865533  43.8984394  69.9731636  75.6052100  11.4212598  34.7837400
  75.1111781  12.2016992  34.5325756  75.2725731  11.1965933  35.6527090
  47.9588496  13.0009546  63.1851339  47.4000226  13.6683168  62.7869320
  48.7954198  13.0849352  62.7276087  58.9116274  71.2456493   6.1181831
  59.8281680  71.1546592   5.8575963  58.6137473  70.3477124   6.2638091
  27.4417067  64.1393518  50.9684086  26.7090559  64.6712637  51.2790918
  27.2205877  63.9344120  50.0599289  13.9831531  51.8265390  62.5203419
  13.3378100  51.1574602  62.2920942  14.7658300  51.3316202  62.7626371
   6.6728055  49.9500084  49.2817974   7.2619641  50.6011915  49.6626949
   5.7949847  50.2809238  49.4719458  12.6220202  43.7276077  22.2776747
  12.1392882  43.4603262  21.4955235  13.5028362  43.3763695  22.1471930
  83.7513959  65.2172041  52.7606678  84.1588338  64.3675232  52.9287958
  84.1069973  65.4901981  51.9149399  76.8766247  16.2752809  27.1255636
  77.5883042  15.6819906  26.8852520  77.2086703  17.1469869  26.9108391
   9.0892678  76.9536781  38.2206583   9.9173260  76.4985275  38.0677176
   9.2820781  77.8718805  38.0310297  20.1275229  20.0543165  25.2218533
  19.9120724  19.3083823  24.6620369  20.6998324  19.6897089  25.8969474
  38.1865764  68.2171202  37.1749282  37.6457739  67.5146914  36.8138838
  39.0656257  67.8414965  37.2240090  13.8846350  67.1528625  53.0156898
  14.7168124  67.4101305  52.6187944  13.8043404  67.7127600  53.7878942
  62.9872018  78.8253784  65.3923702  62.9147774  78.3053350  64.5920324
  62.9494959  78.1821251  66.1002064  67.7480693  75.9305712  65.1145483
  68.0454130  76.5875860  65.7439539  68.4451265  75.2746340  65.1057137
  11.1436117  64.3866539  38.7621522  11.5074408  65.1844692  38.3782887
  10.2600551  64.3273878  38.3987689  33.0883765  65.3983831  32.4354529
  33.2863212  65.6494665  33.3376765  32.4044037  66.0093641  32.1613765
  50.4602716  49.5388931  14.1282939  51.2901203  49.1629261  14.4219493
  50.6069867  50.4846615  14.1438388  70.0883005  20.1712030   7.1518277
  71.0394094  20.2089256   7.2528219  69.9455295  20.2235454   6.2067842
  64.9496728  71.7108440  47.9993391  64.9750525  72.6675320  48.0175734
  64.1394478  71.5015554  47.5346184  66.9180333   7.7645292  48.9450312
  66.4789711   6.9153776  48.8960791  67.7977620   7.5991907  48.6059523
  47.4355446  23.5975732  12.9250336  48.1021654  22.9108514  12.9410672
  47.9324411  24.4119444  12.8467309  83.2214962  13.1161585  63.5824919
  83.5818087  13.6433687  62.8694344  82.4996983  12.6320734  63.1813669
  83.7151091  62.7885675  49.4118929  82.9716823  62.9738951  49.9856567
  84.2538051  63.5786104  49.4551277   7.4969935  73.4221458  58.3821583
   7.9476994  73.2273960  57.5604725   8.1594062  73.2796717  59.0582848
   8.2114387  66.0796881  19.4796634   8.2143718  65.4816580  20.2270460
   7.2915083  66.3197470  19.3686080  39.5161843  18.4609652  30.8954883
  39.2999530  17.8509808  31.6007519  40.4702854  18.5322213  30.9245706
  84.4703527  54.5848894  47.0934868  85.2873284  55.0374413  47.3031950
  84.4166458  53.8774776  47.7360773  76.3221812  56.1347246  66.8930292
  76.4494663  55.9145594  67.8158283  75.4127467  56.4285994  66.8401432
  41.3825274  69.1118002   8.4387779  40.7821703  69.3301725   9.1515970
  41.7322874  69.9557972   8.1531709  53.1693660  16.5025320  49.7373724
  52.4927055  16.8425359  49.1519117  53.7480675  17.2488203  49.8935175
  60.8631431  16.8467512  58.2512999  60.7683813  16.1397733  58.8895988
  60.2125131  17.4970808  58.5158396   5.9326530  54.7776461  42.5499201
   6.8488508  54.9070597  42.3048401   5.7100594  55.5542517  43.0633116
  49.9030930  62.3447752  35.9529161  50.4128701  62.9537296  35.4185653
  49.9012476  62.7362919  36.8263817  54.4849110  70.0363445  63.8109112
  54.2539310  70.6005812  63.0729961  54.5435762  70.6314898  64.5583010
  15.4549278  43.7104460  41.4236332  14.8304046  42.9905649  41.5129495
  15.2546419  44.0969034  40.5711270  33.9851737  40.2509403  68.7318420
  33.3132339  40.8447361  69.0667057  33.7487316  40.1146936  67.8143644
  80.1724547  56.0684013  61.5022850  80.9287122  55.6481600  61.0927677
  79.6813202  55.3469801  61.8954420  50.3757416  33.4761419  62.0579767
  50.0479041  33.1850137  61.2070942  49.6342551  33.9308920  62.4575090
  80.8725630   2.2022047  53.8244247  81.6604124   1.8035593  54.1940260
  81.1205183   2.4386968  52.9306555  15.1526260  37.8449893  10.7876790
  15.0040352  38.1399441  11.6860962  15.8418727  38.4212089  10.4573143
  18.4283900  64.3490076  48.5063839  17.5475717  64.0786171  48.7657738
  18.7617803  64.8346281  49.2608738  72.5325392  29.8174471   9.1658544
  72.0452450  30.1035780   9.9384498  71.8895922  29.3421167   8.6396312
  23.9800692  80.2131081  31.9301105  24.8075843  79.7328520  31.9018602
  23.9147401  80.5248165  32.8327775  20.0283837  56.9810295  64.5938969
  20.3011894  57.7823591  64.1470432  19.4752049  56.5282726  63.9573193
  12.1708226  58.7103415  37.9257751  12.9238260  58.2070637  37.6160502
  12.0943916  58.4814692  38.8520622  31.2843919  62.3215532  34.0265322
  30.4197574  61.9123411  33.9921141  31.4903545  62.5233841  33.1138015
  16.5651941  53.2866812  60.5324888  17.4597752  53.3617353  60.8646393
  16.0286212  53.1627655  61.3154125  19.8051095  72.0630884  25.3650308
  19.5777237  72.9928780  25.3691721  18.9736366  71.6125154  25.5129075
  41.0527272  67.8933187  67.3694575  41.7636866  67.4683901  66.8896616
  40.5102332  67.1700998  67.6839312  62.6109010  42.0989323  53.5844803
  63.4604627  42.3191833  53.9665413  61.9713575  42.4574900  54.1998243
  59.2813097   5.5118360  26.0599875  58.8141214   4.7090997  26.2914681
  59.6497165   5.3335085  25.1947069  14.9091017  65.8661366  50.6899118
  14.3264961  65.9242821  51.4471579  14.3700802  66.1479378  49.9508047
  70.8440495  74.1696358  24.9062514  70.9381294  75.1206875  24.8525524
  70.1985025  73.9544249  24.2330623  66.7862970  64.2543125  23.6771202
  66.8019360  63.4329176  23.1858969  67.7068621  64.4404316  23.8619184
  70.3527771  14.4112005  19.6571589  70.7436358  14.3131532  20.5254030
  70.0908123  13.5241022  19.4108593  19.5302284  76.1232471  53.9240360
  18.6251390  75.8857059  54.1255808  19.9117327  75.3249216  53.5588455
   9.7641766  42.9741144  20.3940511   9.9408424  43.7104654  19.8085499
   9.4827300  43.3816099  21.2131763  31.6542935  71.6650677  53.7971163
  30.8742070  71.8066454  53.2607794  31.7035747  70.7149172  53.9020777
  11.3714933  67.5122786  51.1173964  11.9824934  67.0187235  51.6644907
  11.4006257  68.4022236  51.4686632  49.8150370  29.6734136   3.2602834
  48.8817213  29.4659752   3.3063697  50.1746372  29.3436331   4.0837907
  75.1488203  79.8270035  36.7247152  75.5988359  80.1478672  37.5062275
  75.8504057  79.4999504  36.1616445  73.8988882  70.6275654  29.5337725
  73.9807087  70.1589155  28.7031674  73.3686632  71.3963318  29.3237972
   9.4497210  64.3638515  52.5012589  10.3481746  64.3304396  52.8297377
   9.5372432  64.2618465  51.5535450  36.4812230  66.0517697   2.6648616
  35.7411634  65.7878164   2.1181678  37.1058505  66.4391140   2.0516443
  44.6817398  75.0348234  42.6461077  45.2641869  74.6546555  43.3037233
  45.2351189  75.6472397  42.1613932  61.6172015  30.3330412  29.6874475
  60.9978949  29.6665849  29.9849796  62.3332464  30.2947321  30.3215170
  59.5539819  16.3565054  41.8521690  59.0356242  16.9016733  42.4440479
  60.4299485  16.7415800  41.8772888  78.0640494  32.5570573  24.0052700
  78.0289780  32.5336637  23.0489993  77.7241789  31.7049112  24.2783284
  48.1235920   9.7208109  32.5196695  48.8074027   9.0560045  32.6013780
  48.1177269  10.1639070  33.3681130  15.6085944  75.5558157  27.6658177
  16.2026620  74.8157597  27.5407839  15.4672575  75.5923223  28.6118197
   2.9988961  15.5642309  51.8073463   3.5317998  16.3447179  51.6554165
   2.1116452  15.9007444  51.9329548  26.1739063  77.7329159  38.2649803
  25.2765489  77.4109030  38.1795835  26.6087508  77.0858192  38.8203239
  60.1841127  25.3421297  58.8162756  59.2679464  25.2522268  58.5540056
  60.2870070  24.7265424  59.5420122  56.4659869  54.1197290  50.4922533
  56.6534697  54.8407163  49.8912048  55.6495844  53.7416448  50.1654959
  53.1548643  63.7162924  38.2710457  53.6811638  64.4998169  38.4301972
  53.3115149  63.5054302  37.3505950  23.1452918  77.2847700  38.1015038
  23.2080889  76.5513182  37.4896693  22.5276637  77.8885841  37.6889849
  76.5335751  58.6339617  59.8236704  76.5380812  59.5909500  59.8040533
  77.3723412  58.3985758  60.2202749  78.6944287  33.5254182  28.0418444
  79.1667216  32.7323713  28.2953405  79.1869967  33.8697042  27.2968125
  29.2737722  72.4566841   7.7952176  29.9803877  71.9942808   8.2458931
  29.7220778  73.0699587   7.2128516  59.6439825   1.0841455  51.0539055
  59.7965943   0.8275976  51.9633675  60.0031434   1.9691839  50.9912109
  83.2880818  19.2284670  28.5596085  82.5576435  18.6924734  28.8684964
  83.6239611  19.6533003  29.3488646   5.8912961  31.1338705  15.1437473
   6.0417263  32.0722908  15.0298786   6.1368910  30.7481617  14.3028259
  29.2108727  70.0844288  38.2307267  29.8191547  69.3466997  38.1862426
  29.6581674  70.7310867  38.7766147  41.2136221  70.0342798  47.0601845
  41.9150734  69.4295502  46.8183088  41.5190077  70.4438639  47.8696394
  66.2251429  15.0190204   3.6555719  65.8369503  15.1732916   2.7943277
  66.1482815  15.8595890   4.1069793  50.9436369  72.0494986  63.8801432
  51.1023903  72.5833178  64.6586466  51.1450386  71.1557531  64.1574192
  82.8261553   9.1236772  46.5757322  82.0688139   8.6551466  46.2248135
  83.2166325   9.5522680  45.8141088  37.1257925  63.3879423  20.8866143
  37.9503989  63.2720661  20.4145670  36.6292191  62.5910807  20.7004499
  19.8962379  62.4266338  51.8904972  19.5031488  62.4459267  52.7630424
  19.5132577  61.6555023  51.4722633  23.7843633  48.9867592  46.3344526
  24.2326784  49.8266411  46.2352514  23.9925957  48.5078859  45.5322361
  38.7491918  76.7535686  46.9787359  38.5874867  77.6477242  47.2796774
  38.0355883  76.2405062  47.3579025  68.0945908   5.9389009  38.2602143
  67.9177462   5.5874433  39.1328216  68.0566203   5.1764764  37.6827168
  56.9566965  75.8460665  30.3012204  56.9672585  76.2405777  29.4291639
  57.7574921  76.1644602  30.7178521   4.3552029  57.2390461  39.3177962
   5.2313298  57.5944424  39.4672251   4.3514603  56.4054060  39.7881746
   2.0527940   4.4594850  52.9819250   1.4847140   4.1221800  53.6745548
   1.6878133   4.0966215  52.1748638   0.3455644  27.4754610  39.2863584
  -0.1330418  28.0718317  39.8621225  -0.0477595  27.6080885  38.4238410
  79.2313431  31.4887756  17.9150104  78.7012694  32.2512621  17.6829337
  78.5925768  30.8143085  18.1458949  47.5176334  75.3571463  61.4594793
  48.4320021  75.4616547  61.7226124  47.0389366  75.2749300  62.2842979
   9.6612411   8.4322061  38.6165118  10.1253848   9.2646780  38.5282207
   8.7538104   8.6390199  38.3928347   0.8741098   1.7561998  35.0144243
   1.5626102   1.1863889  35.3572464   0.4831700   2.1541586  35.7922602
  43.8686596  25.0746336  59.4999456  44.5114123  25.7478037  59.2764664
  43.0545472  25.3780164  59.0981817  24.0560813  63.7106691  35.8706927
  24.1492171  64.6613477  35.9320807  23.7835665  63.4396074  36.7473316
  25.9717030  55.3065286  25.7674479  26.2045164  55.6633101  24.9102807
  25.9005303  54.3629942  25.6228495   6.5201885  47.6938152  22.5167155
   5.7856703  47.9337597  21.9517875   6.9000280  48.5307407  22.7841377
  43.8036442  35.9633279  21.5364957  44.3248558  36.5253210  20.9631443
  44.2980862  35.9324002  22.3555207  65.6582893  70.2264009  15.1177633
  66.4266152  70.7668320  14.9338019  65.4599763  70.3975133  16.0384285
  35.9326458  24.0669560  45.3930569  35.8046484  23.1836629  45.0471640
  36.3814640  24.5367336  44.6901321  22.2773528  14.5636356  37.4804091
  22.6572490  14.1378033  38.2489014  22.4589705  15.4947150  37.6082277
   1.3109195   6.6279590  46.7301035   0.8852126   7.4621087  46.9280910
   1.8786179   6.4640969  47.4831629  66.9518286   8.5956448  38.3608794
  67.6411802   9.2510080  38.2535195  67.4023920   7.7564180  38.2664156
   8.1342590  38.5306883   2.1500231   8.3863038  38.5598135   3.0729842
   8.8809961  38.1239057   1.7105415  24.9727798  32.7701735  23.8516665
  24.8906159  32.5346518  24.7757936  25.8337975  32.4393702  23.5958290
  57.8180622   1.5828365  32.7128505  57.5853556   0.7057327  33.0174350
  56.9845486   2.0518488  32.6739311  49.0941795  54.9059588  64.8695926
  49.9689086  54.5283240  64.9616212  48.6307486  54.2989606  64.2925156
  73.8029821  77.3478464   4.7480667  72.9165871  76.9866077   4.7415817
  74.3325014  76.6913051   4.2955250  69.0498931  66.4112935  26.3404822
  69.3609090  66.9582520  25.6191373  68.2587452  66.8515954  26.6510510
  37.1423855  48.7765860  68.4401272  36.9597336  48.8422650  69.3774405
  36.9968506  49.6613789  68.1051748  38.9842939  58.3429003  25.2072930
  38.9183569  59.2632866  25.4618025  38.0886984  58.0114937  25.2729344
  41.6201122  79.1949777  38.8585067  41.4127273  80.0765372  39.1684675
  41.6469402  79.2764305  37.9051566  58.3408883  69.9276159  33.1375265
  59.0542386  70.4815189  32.8204226  58.0909653  69.4009469  32.3783231
   9.3579364  70.2435017   3.1853932   9.0130085  71.0580683   3.5510936
  10.2595913  70.2008724   3.5038787   7.8913678  75.2006433  36.1387706
   8.7181629  74.9936823  35.7030988   8.1314148  75.3384445  37.0550776
  62.6139856  67.7770791  28.4536743  62.2882689  68.2424293  27.6832271
  62.2171028  66.9080720  28.3941507  42.1443518  54.4778317  60.3597356
  41.2157019  54.4557434  60.1287509  42.1806117  54.1080016  61.2418593
  75.0552434  45.0168848   2.6242852  75.3314030  45.1487684   1.7173266
  75.8470339  45.1688099   3.1402487  34.0863379  40.5553683  55.6279123
  34.6453675  39.8087327  55.4128469  34.5439043  41.3111271  55.2595461
  18.5408652  36.0546875   8.2813603  18.7515843  36.2733364   7.3736036
  17.6070285  35.8450127   8.2666415  10.6448126   6.6736853   7.2444886
   9.7635907   6.6380537   7.6165229  10.5196869   7.0334148   6.3663256
  27.5693065   1.6124153  11.4189923  28.4880859   1.7812094  11.6277540
  27.1876937   1.3114840  12.2436392  80.0119442   7.6212245  30.0591874
  79.4473755   7.3229373  30.7722926  80.6036818   8.2516360  30.4698706
  84.5892558  24.0294480  17.2359061  84.9360979  23.5604286  16.4769888
  85.2453776  23.8964558  17.9200470  69.1810054  43.7955952   1.7214958
  69.9934942  43.3046579   1.5987267  68.7055439  43.6814880   0.8986064
  25.5936813  32.9521322  46.4276886  24.9369049  32.3408532  46.0942030
  25.8028793  32.6250863  47.3026228  77.4222046  35.3603172  57.9035711
  77.4490637  36.1694217  57.3928261  76.4899975  35.2016115  58.0520058
  68.1294984  14.4677067  35.0120735  68.6394590  15.0563729  35.5685282
  67.3319465  14.2959261  35.5127048  27.5905800  24.2022347  48.8445711
  27.3850727  23.6589980  49.6054220  27.3334265  25.0866318  49.1052389
  11.8719935  25.7684135  31.6340423  11.2733138  26.0721636  32.3163557
  12.1528041  26.5677524  31.1885810  79.9552751  21.4639115  18.9863694
  80.8910513  21.2963748  18.8746250  79.7878790  21.2807345  19.9108446
  35.9554482  42.6089907  55.5068111  36.8628526  42.5144291  55.2171421
  36.0170126  42.7168465  56.4559174   7.4379349  29.8539329  17.7902353
   7.0267117  30.5792260  17.3200488   8.2075423  30.2432990  18.2053614
  58.7695673  25.6809660  44.0786124  58.9727948  26.6163441  44.0785766
  58.6459139  25.4627701  45.0023699  37.4774265  75.1936626  26.1181545
  37.6894736  75.3446245  25.1970243  36.9742393  74.3793917  26.1177588
  82.5162798  31.8088269  22.7237153  81.6102502  31.6510892  22.4582720
  83.0074799  31.8231726  21.9022846  14.9764836   7.2545981   7.7167469
  15.4258585   6.7401558   7.0461917  15.1308763   8.1647784   7.4638307
  79.5608431  25.0711846  18.4894633  80.0287837  24.4059134  18.9941180
  80.2289975  25.7214999  18.2729185  20.8828664  21.7875624  35.0189948
  21.4622402  22.3847413  35.4922128  21.1311936  21.8906975  34.1003394
  12.5879455  30.0071359   5.6111741  11.7313755  29.6895480   5.8969307
  12.7562165  30.7712770   6.1625397  31.2399049  15.8393331  40.4670716
  30.9328384  16.1750885  41.3092161  30.4545612  15.8087107  39.9206901
   9.5484501  78.0551100   6.0938185  10.4493141  77.8615093   5.8346009
   9.6172643  78.3390474   7.0053428  83.0546889  57.3717308  38.6606574
  83.4405114  56.4991236  38.7376308  83.0857152  57.7265549  39.5491219
  62.8496976  59.2384014  40.9683323  63.4504814  59.8409353  40.5298758
  63.3734466  58.8425837  41.6649294   2.7386817  24.1469431   8.2841861
   1.8277574  24.3519306   8.4949672   3.1650418  25.0006270   8.2088739
  67.9760760  18.3047378  10.2016091  67.9540080  19.2616534  10.2091479
  67.1511596  18.0429101  10.6104994  55.6517655  13.2431066  47.9461908
  56.5548331  13.0504251  48.1983280  55.5659252  12.8781426  47.0654726
  13.7687874  36.9098544  38.2977080  13.1173944  36.9107580  38.9990759
  14.4547963  36.3191795  38.6087203  26.6987538  48.5031557  28.2503438
  25.7551384  48.6626291  28.2702017  27.0894003  49.3503761  28.4644556
  10.7058060  46.1899757  46.6614580  11.1127961  45.3314257  46.7775488
  10.2631521  46.3596153  47.4930286  76.1883027  62.2457896   4.0254635
  75.6381161  62.6369570   4.7040749  76.2783546  62.9325340   3.3647788
  43.0625435  52.9302555  68.2842212  43.5428949  52.5718540  67.5378681
  43.4230765  52.4721450  69.0434199   7.8352946  12.3406434  39.0231800
   7.0881492  12.5100696  38.4493327   8.0659038  13.1999791  39.3761587
   9.0594399   6.4490765  18.1770563   9.4081569   6.2436146  17.3096395
   9.4855368   5.8218455  18.7612271   5.7915431  47.5921011   7.3925233
   5.1875728  47.7382898   6.6644573   5.7099968  46.6585445   7.5876075
  43.2619141  60.1672868  13.4552287  43.8803862  59.5376484  13.0847167
  42.4915539  59.6442143  13.6769771  73.7076169   1.4791919  17.9152369
  74.1043574   1.1811653  17.0966959  73.4498113   2.3843652  17.7407956
  29.8066450  71.4302427  65.4012579  29.1818014  71.8040258  64.7798986
  29.3233900  71.3800317  66.2259854  15.6209885  40.9268321  19.0008926
  16.3377022  40.4298449  18.6064815  15.6093155  40.6453257  19.9156856
   2.3127926  65.9860347  40.9919214   2.1893395  65.1086245  40.6297874
   2.1144856  65.8907411  41.9234943   4.4339249  32.3058295  27.9307747
   3.7111932  31.7885804  28.2862234   4.9426308  31.6821790  27.4125957
  46.4371629  77.6537193  32.9291677  46.5313036  77.9303792  33.8406658
  46.3386650  78.4705129  32.4399066  35.2102327  22.1979165  23.9462256
  34.7074127  21.8984294  23.1887865  34.7578692  21.8180299  24.6994090
  28.4114790  15.7145631  27.9527521  29.3001485  15.3735149  27.8518438
  28.4519482  16.5995133  27.5901818  66.2612468  21.6881204  23.8467693
  65.8342594  22.3581457  24.3806052  66.5547615  21.0305572  24.4773960
  10.0969696   6.4791226  51.5447855  10.3588486   5.6369084  51.9167042
   9.2585254   6.3022542  51.1182165  36.8841832   4.5092287  21.4078355
  37.5870382   4.8286047  21.9737220  36.1247491   4.4380369  21.9861293
  12.2793317  58.7682343   7.9046106  11.5831232  58.6553240   7.2574812
  11.9994795  58.2399273   8.6521417  27.2561026  23.5392666  59.1708374
  27.9078174  23.2037377  58.5552740  27.7121949  23.5652637  60.0119877
  51.8095408  14.1894668   0.5081510  52.6896391  14.3254989   0.8590841
  51.3843308  13.6142629   1.1442088  21.1554265  39.1166306  29.1811585
  21.3197994  39.0180445  28.2433438  21.3755846  38.2629395  29.5539498
   0.2391920  39.1830802  35.0579262  -0.1877282  39.5602298  34.2886853
   0.5567136  39.9397564  35.5507278  19.2976105   4.4575253  58.9471197
  18.9404202   5.0846374  58.3183289  20.2049780   4.7350907  59.0731096
  62.2811395  42.9727697  47.7420187  62.1748263  43.6198473  47.0447206
  61.3913065  42.8088713  48.0543756  79.0554607  21.2271857   8.9185655
  79.7764790  20.6984520   9.2603320  78.6970949  20.7071590   8.1992763
   2.4558942  31.8516994  32.2945285   2.8823566  31.5719509  33.1045294
   3.0360454  31.5419102  31.5990520   5.7397318   7.6059258  36.5968204
   5.1704645   6.9188982  36.9434619   6.5939724   7.1844065  36.5028763
  31.3948341  69.1126829  57.4098445  30.8497133  68.4923536  57.8938556
  30.9918334  69.9650985  57.5747896  73.0391915  68.5661552  46.5904045
  72.8563077  68.8283000  45.6881475  73.1962640  67.6233445  46.5387344
  13.9115437  32.9274225  67.1227097  13.8674375  32.0254111  66.8054367
  13.0047186  33.1529647  67.3301501   0.7319514  38.7179255   8.8718551
   1.1111978  39.2190409   8.1498528  -0.1975992  38.6498070   8.6538470
   0.1751005  41.9289112  12.7476335   0.7476488  42.2249842  13.4552777
   0.0928962  42.6892757  12.1720338   4.6095568  58.6131907  21.8058228
   3.7660637  59.0396070  21.6544390   5.0961137  59.2315245  22.3509455
   0.8020236  12.4170339  36.2249064   0.6777379  11.5101552  36.5048289
   1.7439458  12.4938154  36.0728574  13.5412347  15.2161086  27.1950269
  13.8999116  14.5311725  27.7593374  13.2771719  15.9101605  27.7990079
   8.4897250  67.7794075  29.4976735   8.4421599  67.4484396  28.6007738
   9.1902512  68.4313297  29.4755697  54.9564103   1.5135141  49.0295435
  55.5745975   0.8485552  48.7263823  54.3868222   1.6719671  48.2767511
  11.0367926  68.0686909  57.7164925  10.6131907  68.1131083  56.8592752
  11.8273397  67.5502831  57.5664223   8.1018215  13.1960928  23.7699485
   7.3033178  13.5720527  23.3994389   8.7919712  13.4470403  23.1559849
  20.6986213  32.7261519   5.8024037  19.8285508  32.5166321   6.1419755
  20.5434299  32.9995370   4.8982969  62.3772181   8.6271997  60.1195878
  61.4442451   8.8405462  60.1362080  62.5360162   8.3164783  59.2282582
  26.8381834  57.6402760  11.4669490  26.5309143  58.5398674  11.3549221
  27.4477053  57.6853561  12.2036195   4.9464118  73.7063503  41.6064835
   4.9149948  72.7496862  41.6006660   4.4145310  73.9680338  40.8549118
  38.4985495   6.7350709   7.6329774  38.0665612   5.9274167   7.3549247
  37.9149723   7.1025383   8.2967824  45.3049326  19.2566264  20.8582425
  45.2227211  19.9879146  20.2461243  46.0837841  19.4631660  21.3749266
  72.4957978  15.4690160  32.5323439  73.1311976  14.9925317  33.0666304
  71.9879280  14.7844972  32.0967603  20.2350092  59.1520691  20.8707070
  20.7015347  58.8271379  21.6407728  20.7755351  58.8778877  20.1298356
  25.2160001  46.2464714  11.1469305  25.1746368  47.1441984  11.4764893
  26.1370444  46.0012054  11.2349832  73.9168733  35.2437449  21.6544151
  74.8568982  35.1296306  21.7942905  73.8559002  35.9019661  20.9621310
  21.6174150  47.8127289   2.1096385  22.4979949  48.1865883   2.0774424
  21.7221522  46.9946384   2.5954285   9.7333235  39.2280912  41.2864876
  10.6246102  39.2209339  41.6354704   9.1727936  39.1649437  42.0598269
  70.3376085  62.7899170  45.4844046  69.4638962  62.8304815  45.0955439
  70.7823545  63.5714054  45.1562214  21.9609094  19.2042327  31.1989594
  22.8281784  18.9484608  31.5130544  21.7472076  18.5541034  30.5297089
  17.7067888   3.5581043  22.9978848  17.1951568   4.0527073  22.3577023
  17.6838195   4.0955773  23.7896085   1.6625044  -0.0777948  42.4551201
   1.7671569   0.3620355  41.6114235   2.5072682   0.0355599  42.8907299
  84.7927986  21.6845417  64.5918322  84.2208028  22.0465708  65.2685785
  85.4519923  22.3633289  64.4471025  55.5892754  14.9263144  35.2714515
  55.9252930  14.0346932  35.1801395  56.0707140  15.2887106  36.0151720
  83.9904758  47.4876642  44.0275335  83.5070080  48.1653452  44.5000124
  84.8821515  47.5462961  44.3706179  78.5902518  26.5285707  59.3585682
  78.5541761  25.5895686  59.1763496  77.9307759  26.9104600  58.7793589
  15.6999958  49.2361116  36.8271279  16.5729582  49.5304155  37.0870376
  15.7304716  48.2839918  36.9208050  80.3115499  20.4127979  44.5645618
  79.5939732  19.9052644  44.9436712  80.6159601  19.8834908  43.8274050
  81.2053079  79.7904659  12.7107024  82.0255084  80.1390433  13.0599821
  81.4250274  79.5040801  11.8241704   4.4444478  37.8579497  11.8663120
   3.6720765  38.4214449  11.8199539   4.6377370  37.7929735  12.8015387
   2.0103666  29.1148615  64.9894810   1.8102102  30.0313234  64.7990370
   2.3515706  28.7679338  64.1651917  58.9701730  31.4349747  53.2699013
  59.6660453  31.6597009  52.6522541  59.2951733  30.6578279  53.7244844
  53.0170256  30.4431057  16.1035800  53.8472372  30.3972983  15.6293583
  53.2676345  30.6351471  17.0072091  59.2123920   9.2321950  41.7389917
  59.8841530   9.8972827  41.5885687  59.5525748   8.4469163  41.3102198
   5.0719935  27.8841639  18.1022310   4.4593003  28.5213423  18.4694397
   5.8975643  28.3624601  18.0254388  63.8506466  46.6054869  43.4361887
  64.5201641  46.4076281  44.0910387  63.7003762  47.5467205  43.5241175
   8.0759150  49.0889645  60.1497269   8.3499992  49.4471407  60.9940100
   8.8884181  49.0023565  59.6511555  74.8064263  58.5914002  43.3864880
  74.0318866  58.0785976  43.1555033  74.7906608  58.6315642  44.3427134
  74.0605789  20.6396341  36.2421322  73.2735258  20.2758789  36.6476703
  74.1176146  20.2004337  35.3935552  22.8820848  27.8254747  41.8014669
  23.7795615  27.6248193  42.0669889  22.8255939  28.7797666  41.8501282
  29.4746757  64.3533421  22.2351837  29.7764587  64.0291929  23.0837607
  28.6490560  64.7975159  22.4283028  14.1777050  56.3804007  21.0082245
  13.8073683  56.5893126  20.1506495  14.1608286  55.4242563  21.0499239
  64.0666395  23.4954977  35.9609103  63.3848268  22.8255486  35.9106159
  64.1971689  23.6344433  36.8989348   5.7717258  38.9368749  43.0983877
   5.2951837  38.1368899  42.8766632   5.2469343  39.6414089  42.7183151
   2.7985250   3.6224165  15.2097559   2.5717174   4.5270528  15.4252207
   2.5519835   3.1219282  15.9875453  80.5986252  44.0038633  42.9214859
  80.9442973  44.1501427  43.8020229  81.2206903  43.3988905  42.5174189
  17.1089363  55.5035639  26.4112544  17.2260094  55.0718403  25.5650043
  16.3551342  55.0624275  26.8029356   1.3618182  40.8776379  28.5398674
   1.2955296  41.0943604  29.4698501   1.1693074  41.6992950  28.0881453
  55.9601074  58.8963079  36.1846256  55.6737024  59.0731478  35.2885604
  56.4158922  58.0564260  36.1290479  36.7634940   7.5965673  20.0962925
  36.0516524   7.1239877  19.6648049  36.9439077   8.3378065  19.5181537
  83.3895224  37.1710229  33.6139822  83.4066013  36.2178898  33.7004352
  84.1672111  37.3785019  33.0959225  10.4709291  66.3022280  30.7260561
  11.2742794  66.3032722  30.2056146   9.8717940  66.8712759  30.2428865
  10.7242024  22.1396160  22.5335741  10.8597243  22.4539542  23.4274745
  10.1111650  21.4103794  22.6264787  70.0252968  35.3721809  33.2944036
  70.1133961  36.2087774  33.7511039  69.0889174  35.2970934  33.1105876
  22.5019050  39.7806263  12.1936071  22.8355408  39.3095922  11.4300334
  23.2849455  40.0127792  12.6927865  20.6742859  24.3371367  39.4018674
  21.5327311  24.0694427  39.7299600  20.6715441  25.2904415  39.4880819
  71.3644832  40.3813553  60.7736683  71.0122818  40.1722574  59.9085283
  72.0343620  39.7150350  60.9270048  84.0011973  70.6076799   3.7871957
  84.4858141  70.1439832   4.4701040  84.2249460  71.5290765   3.9183345
  73.9040405   4.8329845   5.8454740  74.5586401   4.7792882   6.5417856
  74.4118720   5.0016731   5.0518227  40.0482591  79.0880614  54.2361177
  39.8470529  79.2263418  53.3105767  41.0001524  78.9908868  54.2623699
  72.9691440   8.0618769   0.0839680  73.4001070   7.5055474   0.7328130
  73.1902772   8.9546156   0.3492014  25.3756237  16.6118646   8.8492846
  25.1235843  16.1102378   8.0739915  26.0137892  16.0563695   9.2969459
   6.0256394  78.2361346  51.3692642   5.8293518  78.1213337  50.4394675
   6.8215998  77.7237159  51.5110684   9.2873842  59.2164755   1.0656614
  10.1882648  59.4717407   1.2643664   9.1044718  59.6231842   0.2186887
  25.9543606  39.6734153  63.5327060  25.5385547  39.2591204  64.2888123
  25.2967551  40.2861820  63.2036108  76.4749461  34.6004033  27.2646976
  76.5890682  35.4453111  27.6998329  77.2366887  34.0873027  27.5343418
  65.1834732  22.8079176  13.7029290  64.8153502  22.7525973  12.8210807
  64.6263605  22.2363806  14.2313254  25.4338598  28.5547495  32.4357009
  25.6032896  27.7419710  32.9120564  25.4611397  28.3017015  31.5129566
  10.9486806  26.9216537  65.8071280  11.4436841  26.1998200  66.1946344
  10.4272139  26.5113139  65.1172590  52.6783999  68.4294635  60.4613382
  52.5433024  67.7827245  59.7687269  52.0594820  69.1308147  60.2581686
   3.4091440  32.5741744   7.6211184   3.7057653  33.1216049   8.3481449
   4.1999817  32.4083567   7.1079797  28.7135014  70.3717953  57.4253250
  29.3229032  71.0601216  57.6919091  27.9002903  70.8357888  57.2262562
  75.4399639  46.2894773  48.1883860  74.5532304  46.5560818  48.4309912
  75.8063275  47.0534134  47.7429581  17.6360997  80.4790741  59.2685569
  17.8195842  80.1127106  58.4034897  18.1690212  79.9565679  59.8678995
  77.0917952  41.0496187  43.0095625  76.7986619  41.8409872  42.5578547
  76.6503066  41.0808325  43.8582945   0.9281913   8.9847487  33.7231398
   0.8729044   9.1065311  34.6709514   0.7383740   8.0561250  33.5895014
   6.1887610  61.1229038  39.0109420   7.0392942  61.4176226  39.3364668
   6.4001340  60.5437279  38.2787466  63.9844877  62.7226257  23.5965466
  63.8251477  61.7896748  23.7395477  64.6253115  62.7500105  22.8860354
  73.0767781   7.4590850  51.8477583  73.2467479   6.6824758  52.3808813
  72.4491316   7.9686975  52.3601913   3.1867012  11.6539145   2.3313831
   2.6001519  11.1324811   1.7833886   2.9809558  12.5613034   2.1065581
  45.5062896   2.3760307  45.3627300  44.6209556   2.0398709  45.2233934
  45.7582766   2.0381616  46.2221336  76.0771501  20.1852179  67.7491379
  76.6794676  20.8943462  67.9740477  75.2935511  20.3624463  68.2695198
  65.4624814  34.8091316  41.4385557  64.6423012  35.1021314  41.0414553
  65.6335062  33.9582539  41.0348368  35.2855921   9.0802836  38.6613417
  35.4094219   9.0454602  39.6098590  34.9281883   8.2217014  38.4347749
  73.3289713   3.8487244  56.6482115  73.5262328   3.1912157  57.3152971
  74.0012783   3.7202370  55.9790897  20.6976938  12.4916553  23.2103944
  21.3165903  12.0746899  22.6109457  19.9332297  12.6862609  22.6682186
  53.5583431  32.6438880  20.1600027  53.5155231  33.5259199  19.7906542
  54.0269500  32.1309853  19.5015395  29.3782067  27.0906043  19.9985540
  30.1064754  27.3518705  19.4349957  29.7856474  26.8998194  20.8434367
  19.8996317  43.7577963  24.1835904  20.0632381  42.8149223  24.1623068
  20.5830574  44.1320848  23.6276507   4.7683954   6.6001606  18.3139002
   4.3519682   7.3350960  18.7641120   4.3048280   5.8275729  18.6370802
   4.3218482  40.8785582  41.8314028   4.4474858  40.9109449  40.8830357
   4.0400696  41.7627478  42.0660114   0.1933317  26.1735249   8.1435341
   0.7144924  26.2480021   7.3441112  -0.6891517  26.4335203   7.8792292
   6.2774509  64.6886635  16.5906763   6.6689903  65.5619431  16.6081464
   6.4039689  64.3874073  15.6909692   5.5713290  10.0611508  12.9102099
   5.6392992   9.3173486  12.3115695   6.0371995   9.7785586  13.6971915
   8.6222214  16.6035640   0.4095915   9.1933119  16.5112281  -0.3530101
   7.7957481  16.9280744   0.0520071  20.2457261  75.7874823  19.4094968
  20.2498794  76.7439508  19.3722641  19.9688089  75.5149364  18.5347009
  75.2401882  44.9111557  39.2533731  74.5227748  45.0923586  39.8605919
  74.8702914  45.0831795  38.3874536   9.1946882  64.7058439  25.8890676
  10.0964975  64.9910402  26.0361624   8.6698878  65.2669668  26.4599967
  18.0113137  29.3892026  27.2862291  17.7157843  29.1700840  26.4025545
  17.6853979  28.6736369  27.8321004  71.8997890  55.2813435  45.3008318
  72.8038937  55.0076056  45.1462555  71.9778341  56.1004257  45.7899570
  19.3789434  25.8716059  26.8292570  18.5663402  25.3708148  26.9007826
  19.8703086  25.4329014  26.1347556  16.5191090  39.7379637   9.4696921
  16.9505012  39.3381381   8.7145269  16.5207040  40.6757116   9.2777008
  13.9708984  25.7640433  17.1759856  14.7599590  26.3015342  17.2446644
  13.4367108  26.2060380  16.5160477  14.4163048  41.6988182  38.9876866
  15.2192187  41.3205004  39.3460631  13.7116528  41.1943245  39.3941140
  21.7282915  54.6579027   6.3653237  21.7235088  54.9105787   7.2885591
  22.6236463  54.8307848   6.0743237  82.0320737  35.8144760  16.5852761
  82.6594943  35.4524899  17.2110081  81.5738550  35.0500441  16.2361193
  27.2215322  39.9543787  54.9519766  27.4890569  39.5672818  55.7855344
  27.9362469  39.7454236  54.3505181  77.1891417  76.2551552  65.1296452
  77.1419229  75.7181770  64.3386603  77.0945468  77.1541411  64.8148356
  69.2982954  14.8784208   8.5992390  69.1050202  14.3771255   9.3914390
  70.2424651  14.7789490   8.4772485  69.2426997   5.2702266  28.4670019
  68.9223868   5.5711824  29.3173289  68.5338217   4.7269624  28.1226349
  71.0658056  56.3694286   2.5050086  71.5910429  57.0181751   2.9735067
  70.3033966  56.2280130   3.0662265  21.3067889  28.7856126  18.8448036
  21.3135815  28.9979482  19.7781301  21.6173744  27.8811836  18.8026679
  24.0991282  50.3627253  31.6436958  24.8816180  50.9137154  31.6624451
  23.7616825  50.4561758  30.7528377  63.4718806   7.8036302  20.6576443
  62.6126415   7.3871922  20.5904198  63.9244205   7.3100209  21.3415933
  70.1828927  13.6885011  44.9082565  70.3004044  14.3485987  45.5914068
  71.0176271  13.2208419  44.8809576   5.8389735  19.2760098  16.2566411
   5.5948174  19.9548709  15.6275415   5.3717178  19.5126939  17.0578182
  72.4424440  61.8522549  40.6538391  73.1622237  61.7980003  41.2824917
  71.7254001  62.2535801  41.1447716  65.2223283  29.9781680  48.9867687
  65.2721697  30.8907938  49.2711306  64.5201665  29.6003079  49.5163155
  80.9195459  36.6395664   3.3716527  80.7078338  35.9949040   4.0467983
  81.4115623  36.1462379   2.7153140  69.6347421  50.1337147  43.5094118
  69.4366509  50.4226017  42.6186085  69.7068936  49.1816235  43.4419727
  83.1938548  20.4794717  38.0912089  82.6236716  20.4709864  37.3224092
  82.6302046  20.1948333  38.8105917  65.7129508   6.4639550  63.2680845
  65.3582805   6.8506378  62.4675131  64.9429208   6.2751675  63.8044071
   6.0731518  44.1836882  24.8789191   6.0622394  44.5844507  24.0097237
   5.8411068  43.2681465  24.7234583   8.4980667  57.0559931  32.3403287
   7.7177662  57.0419884  32.8945565   8.8573223  57.9358149  32.4547029
  46.5869170  57.9545355  44.2870998  46.7552024  58.3574200  43.4352779
  47.3267800  57.3624802  44.4223833  16.0044742  23.1987405  35.1058197
  15.6443691  22.3154783  35.0257969  16.6591263  23.2544684  34.4097161
  64.9640566  27.3017979  39.3913102  64.7466832  28.0938792  38.8997960
  64.7218734  27.5063539  40.2944946   9.7132028  20.3027626  60.7908303
   8.8558639  20.1121851  60.4101945   9.5351041  20.4524847  61.7193223
  16.6945899  46.4311123  34.6533251  17.2350168  45.6681347  34.8583579
  16.5297914  46.8428183  35.5015993  15.3283620  59.0508318  61.0461426
  15.9036469  59.7941113  60.8649778  15.1831961  59.0851974  61.9916439
  26.0358906  38.3168888  14.5782733  25.5237579  38.8855147  15.1532674
  25.8854890  38.6664057  13.6999512  23.4024644  10.7203627  38.8005233
  24.1133404  11.2797570  38.4875274  23.3933973   9.9815547  38.1919909
  41.5125847  43.5887289   0.5390202  41.8952274  44.4659948   0.5536960
  40.9267902  43.5702419   1.2958148   1.6755690  66.7588949   8.8502860
   1.6261616  66.9009876   9.7955900   2.1385761  67.5272799   8.5164583
  37.1201062  13.8339627  39.9557066  38.0433631  14.0860093  39.9730778
  36.8416929  13.8811636  40.8703041  66.0292548  62.1791315  21.3496923
  66.7686552  61.5979576  21.1714935  65.6634861  62.3728943  20.4866147
  32.4712682   7.9974490  20.2129126  31.6411734   8.3010781  19.8455107
  33.0593920   8.7479073  20.1283288  14.4520366  42.0098495  36.2250996
  13.9251995  41.2106848  36.2282443  14.8274291  42.0527124  37.1045732
  62.5959552  50.1342054  55.1141966  62.4220551  50.9642168  55.5581177
  61.7602010  49.8981806  54.7116531  33.5196066  42.6457167  19.3432128
  33.3648944  43.5265779  19.0020597  34.4581413  42.5028801  19.2208040
   4.9703908  44.3438387  33.2630587   5.1431251  44.9039602  34.0197992
   5.5462921  43.5893917  33.3870721  23.3922029  73.8937664  48.7073421
  22.9017258  73.4248924  49.3824863  23.1497169  73.4590912  47.8897333
  58.1485538  35.6655451  54.1824806  59.0872548  35.8384081  54.1104377
  58.0557782  34.7433801  53.9432312  21.6113520  36.6903520  30.2563095
  21.9819689  36.2484479  31.0202432  21.0209131  36.0441995  29.8688793
   6.6628814  67.1825600  11.1217451   5.7716751  67.4320316  10.8773136
   7.2150904  67.5720119  10.4437912  25.3281045  27.9542994  56.9410944
  24.8551559  27.4427795  56.2846661  26.1288190  27.4552178  57.1023512
  52.4163294  30.1556706  50.0625324  52.4493408  30.4485655  50.9732199
  51.5339661  30.3833365  49.7695541  67.3941374  68.6068201  47.3223543
  67.6911068  67.9275751  46.7168236  67.3797512  69.4066477  46.7967129
  36.8492126  61.2625313  42.0432711  36.4677191  61.2237072  42.9203033
  36.5529156  62.1014118  41.6901159  16.1719108  45.1707411  30.5265427
  15.5297482  45.8726692  30.6321526  16.9447768  45.6054258  30.1660442
   8.2484812  56.0848045  37.3629284   8.4754342  56.9240665  36.9624758
   7.6573670  55.6712914  36.7337847  32.7024341  35.2339578  10.5999327
  33.2459450  35.1549578  11.3838887  31.8263745  34.9787927  10.8891439
  85.0645814  57.7120924  55.3591156  84.7577711  57.3545074  54.5259094
  84.6217799  57.1844578  56.0237694  11.1473548  62.6606131  34.5162463
  11.0781872  61.9288492  35.1294112  11.8700206  63.1892157  34.8547149
  15.8601761  56.2280560  39.9986291  16.7965794  56.0553694  40.0963974
  15.7784390  56.6202545  39.1293001  11.2889421  48.4524345  28.0789351
  11.7626154  48.2341433  27.2763062  10.3656209  48.4190798  27.8287435
  14.1747010  51.5674591  47.3041868  13.2832313  51.3777590  47.0117378
  14.0954089  51.6902733  48.2501602  14.8640001  58.9438152  46.5891075
  14.9174857  58.0192804  46.8312073  14.4228351  58.9438200  45.7396364
  27.5366521  21.6149282  26.3469505  28.1723976  21.4743543  27.0485902
  27.6126266  22.5459242  26.1378884  35.6149197  29.5568967  12.6948202
  35.1886034  29.2525172  13.4959698  36.3636637  30.0683808  13.0014122
  69.5421439  23.4127021  28.1331921  70.1917583  23.0136251  27.5544238
  69.9979192  23.5179448  28.9683104  31.0237193  68.0435419  22.7608538
  31.4411139  67.4379349  22.1482754  30.1840878  68.2557917  22.3531723
  56.3767406   1.3365789  57.6588655  55.5362181   1.2872644  58.1141925
  56.4602155   2.2568460  57.4091209  70.4296142  26.7969179  48.3533335
  70.2186745  27.6720047  48.6788511  69.9998218  26.7489791  47.4993944
  14.7579408  22.7888536  17.0788026  14.4201875  23.6372042  17.3659527
  13.9808500  22.3023295  16.8037426  24.2009473  53.4797668  17.3973894
  23.4996819  53.9912176  17.8009689  24.1070867  53.6433268  16.4589489
  58.9151287  64.8823977  36.1882710  59.7662210  64.5439959  36.4663935
  58.4935904  65.1663256  36.9993949  32.7069235  40.9292316  33.2209134
  32.3098516  40.0697470  33.0800033  32.5311780  41.4097929  32.4119616
  27.1035838  37.4010158  19.9491668  27.1617627  37.2907639  20.8982134
  27.3269486  38.3198643  19.8006499  85.4935840  42.4626303  56.8362713
  84.7115257  41.9262743  56.9664240  85.2222904  43.1336451  56.2098789
   2.7281058  52.2707987  43.0893660   2.4694328  52.7963543  42.3323298
   2.7587193  52.8945541  43.8147783  14.6098876  22.4740362   7.0811158
  14.2738569  22.8473449   7.8959507  13.9609098  22.7170253   6.4208013
   5.7331222  53.1816101  26.2039137   5.1234108  53.0233574  26.9246340
   5.5421638  54.0757608  25.9206033  75.6300426  36.9076300  14.5725250
  75.8092254  36.0922241  15.0407553  76.4725918  37.3613501  14.5506012
  13.6694682  52.2820091  27.8957295  12.9131317  51.9368315  27.4213457
  13.2907939  52.8122520  28.5969305  13.6244476  43.2132339  26.4896846
  13.1808102  43.7684727  25.8484888  13.6587203  43.7455559  27.2844768
  28.9800692  29.3698335  14.3555164  28.8567042  29.1759253  15.2847159
  28.3525562  30.0687885  14.1713357  16.1123514  44.0451813  38.6802626
  16.6167068  44.0585136  39.4936991  15.4862356  43.3308506  38.7983394
  32.5500488  42.1545506  13.1704557  31.6829777  42.1230221  13.5747147
  32.5164413  42.9153824  12.5905955  43.3760738  59.0181541  36.7554808
  43.2580471  59.9679184  36.7399120  42.4875784  58.6655378  36.7057848
  15.0885606  41.7282295  65.6438494  14.6322441  41.8537855  66.4758635
  14.9119949  40.8172560  65.4089355  75.2018327  60.2543306  18.9994085
  74.8506504  59.4612265  19.4042432  74.9131471  60.9640789  19.5731258
  19.4973624  42.5219917  39.5235634  19.3982315  43.2808781  38.9486766
  18.8888001  41.8729544  39.1705275   5.7343751  31.1101389  25.5430317
   6.6660398  31.3273191  25.5104065   5.4225636  31.2580085  24.6502066
  17.0237231  31.3371420  43.5422516  17.8516293  30.9111547  43.3201313
  16.3570702  30.8081579  43.1040907  31.8746591  42.9431725  26.5085697
  31.2881041  43.4870148  27.0343232  32.7533174  43.1918716  26.7955232
  78.2373469  14.8756971  46.9454145  78.8008850  15.5647554  46.5934801
  77.6422517  15.3330888  47.5394630  48.2544600  19.7162618  43.0867767
  47.4449824  19.4534006  43.5248137  48.8492190  18.9781084  43.2195139
  84.9459977   5.3863188  65.6005335  84.7959442   5.7081266  64.7116274
  85.3261657   6.1323591  66.0643584  54.3745195  18.1823530  27.8337240
  54.5869504  18.2401647  28.7652612  53.9054738  18.9949407  27.6441479
  76.1416693  10.1406761  68.0283067  76.9829841  10.5955549  67.9894555
  76.0280139   9.9259611  68.9541635  26.5459061  73.5681486  47.6888561
  25.9598279  74.3040657  47.5123119  26.6551566  73.5717487  48.6397934
  80.1891708  35.4863739   9.7500139  79.7475618  34.8336864  10.2933490
  79.4822437  36.0403490   9.4189596   1.5647437  44.8374701  28.0073428
   1.2658365  44.8709917  28.9160585   2.3512936  45.3828001  27.9936576
  19.4453061  59.3421459  16.8209267  18.5614836  58.9748383  16.8077374
  19.3545473  60.1996136  16.4053023  23.9518976  65.1428032  10.0021005
  24.4219398  65.7698870  10.5516970  23.3906984  65.6843090   9.4470698
   5.2576774  57.6812553  24.7783470   5.5553681  57.8005886  25.6802201
   5.8886814  58.1711626  24.2510366  17.6986718  41.8904400  12.6634264
  17.1055675  42.6174450  12.4738991  18.3553493  41.9295502  11.9681013
  84.8536064  47.2490215  21.0743022  85.6746290  47.0659924  20.6175137
  84.3643891  47.8097296  20.4722214  15.3451526  75.9914064  57.7880049
  16.0161114  75.3127432  57.8618813  14.6877015  75.7502699  58.4405708
  29.1640282  46.5151501  35.2364421  28.2819629  46.3747644  35.5806589
  29.0269732  46.7771006  34.3260407   2.0978181  58.0357552  41.1333179
   2.7471244  57.9297638  40.4380465   1.8520729  57.1414042  41.3699007
  17.2209132  34.4906616  13.0084014  16.2990642  34.7483563  13.0130088
  17.2922111  33.8435078  13.7100697  33.9148100  73.1586462  66.8418009
  34.7333582  72.6849490  66.6940746  33.5234376  73.2376391  65.9718472
  13.0077243  70.3963137  45.8807325  13.7612891  70.8870125  45.5527258
  12.2685051  70.7203531  45.3661585  26.5436959  47.4011707  25.5177784
  26.0687137  47.8482533  26.2183070  26.0367441  47.5878954  24.7276115
  69.2928404  17.7537155  64.8985291  69.8959070  18.0110264  64.2011547
  68.9539915  16.9028318  64.6203041  40.6408024  25.0996161  45.2656078
  39.7632360  24.8307610  45.5373192  41.2302065  24.5447755  45.7764769
  16.9251966  48.3915234  43.6875534  17.5393724  47.6582623  43.7242222
  16.7188942  48.5771894  44.6036339  17.7418256  59.7742796  20.3173351
  18.5928035  59.5683718  20.7042050  17.3114228  60.3298759  20.9671783
   8.1085366  58.0097008  46.2258244   7.8061908  58.7538528  46.7464542
   8.9648682  57.7919817  46.5939617  47.0145877  59.8404664  60.4889817
  47.7530249  59.5867079  61.0426498  46.6129967  60.5778962  60.9484959
   6.7486149  61.7067719  52.0804405   6.7692280  62.2082615  52.8954935
   6.5463847  62.3547649  51.4055729  78.7816972  52.1215391  14.9838054
  78.7930048  51.5104103  15.7204342  78.6795586  51.5645695  14.2120636
  83.6288825  38.5135078  25.3330636  84.0778674  38.8741350  24.5684791
  83.6769326  39.2088723  25.9891081  38.0170488  71.7388916  47.7782965
  38.7858057  71.5781736  47.2311115  37.6384854  70.8712673  47.9202604
  13.0377626  17.2945058  19.8659670  13.3476102  16.5985227  19.2864561
  12.1477091  17.0320845  20.1008558   7.8543049  38.7621307  59.7884560
   8.2342124  39.0218616  60.6277657   7.7636635  37.8112602  59.8505831
  42.5460529  65.7993984  23.6490870  41.8127775  65.3790665  24.0983725
  43.2277632  65.1279545  23.6232471  32.6324964  27.7054977  47.0331335
  32.6505518  27.9911804  46.1197376  31.8133879  28.0601311  47.3788595
  82.4637064  68.8815594  31.7293715  82.8952582  68.2592154  31.1439800
  82.1687052  69.5870018  31.1535621  19.9559355  72.4857426  30.9691620
  19.1700852  72.9850435  31.1913610  20.1923227  72.7887630  30.0925016
  69.4415516  49.3705559  52.5774288  70.1292759  49.4332361  53.2402515
  69.7081357  49.9882507  51.8965340  24.5000911  35.1352334  29.7648263
  23.9948511  35.2978206  30.5613995  24.9134684  34.2846727  29.9128175
  13.3489966  42.3020744  18.1387401  13.4302175  41.9782495  17.2416472
  14.1949189  42.1062136  18.5415876  79.2882104  19.0534063  54.4318438
  78.7979479  19.8148771  54.1219366  79.5478339  18.5943790  53.6330212
  17.8343475  27.3710871  25.1693964  18.0219007  26.7104125  25.8361506
  17.1884561  26.9570708  24.5969915  14.7638524  40.7930231  29.0034175
  15.0426531  41.0655546  29.8776197  13.8550007  41.0865164  28.9395213
  13.2243001  40.0595188  44.4695234  12.4305999  39.9666214  44.9964380
  13.9042377  39.6214414  44.9813843  34.1828948  72.6669359  48.7981415
  34.5864230  71.8004656  48.8493395  33.7920648  72.8005362  49.6616411
  30.7449293  30.4232144  31.8808055  30.7729816  31.3208127  32.2121048
  30.1633883  29.9626899  32.4857497  20.4856777  49.7596979  34.9123144
  20.2148581  49.2327881  34.1604829  21.2354994  49.2894030  35.2767587
  19.9615335  29.8318744  48.6317348  19.5525229  30.6539106  48.3611822
  19.4636679  29.5588923  49.4023466  21.7255473  21.1395645  28.2756281
  22.1036649  21.4919519  27.4699712  22.4726105  20.7785487  28.7529063
  82.2042885  51.1031675  17.5053799  83.0437242  51.5625048  17.5297010
  82.1354535  50.7773685  16.6079688  13.3411181  10.8564961  37.8544950
  12.5785351  10.8533394  38.4330201  12.9725099  10.9077835  36.9726062
  82.0971149  53.7190628  31.5025544  82.6499730  53.0420732  31.8927717
  81.6547531  53.2783031  30.7771039  15.2460575  39.1617870  24.9059033
  15.8328521  39.1081715  25.6602454  15.7792032  38.8697815  24.1664982
  20.9893012  25.7187080  33.7829828  20.9920859  26.3130474  34.5333052
  21.8469143  25.2944589  33.8103056  64.2114359  53.9597940   8.2950550
  64.6501786  53.6775970   7.4924964  64.0868670  54.9020147   8.1813121
  27.0128083  38.0825758  22.5627422  27.7323365  38.6032176  22.9197288
  26.5662241  37.7312446  23.3330417   5.6600934  66.1846924  36.0561919
   5.2259326  65.4079151  36.4088321   5.9887171  65.9078550  35.2008557
  20.2027678  54.0686178  16.8685377  19.6744537  54.8667908  16.8626237
  21.0077143  54.3175507  17.3227680  14.6912944  36.6050839  15.8396256
  15.5138063  36.5284944  16.3231945  14.7920787  36.0067225  15.0993288
  18.5707688  57.9677916  39.5797777  18.9796007  57.1171093  39.7392464
  18.6131859  58.0796480  38.6300826  44.2132687  13.9838018  33.0675650
  43.8394605  13.1133928  33.2050133  45.0798165  13.9388551  33.4716797
   2.3734798  36.2512207  21.2532949   2.0851912  35.6396890  20.5756879
   3.1385276  36.6846180  20.8750081  85.1705268  35.4539132  36.3814521
  85.3496388  34.5161891  36.3120031  84.2283084  35.5065608  36.5417147
  31.0559273  50.0721121  29.5033550  30.6312680  50.7682705  30.0046134
  31.3540626  50.5018759  28.7016988  79.5742029  19.2847872  60.9055376
  79.0272373  19.0759802  61.6628122  79.0990603  19.9807167  60.4514980
  71.1584693  40.8178520  47.7324486  70.6113976  40.1180935  47.3756886
  70.7752210  41.0086203  48.5885811   4.7984535  43.7738705  56.5514755
   4.9064699  43.5319376  55.6316757   4.1008177  43.2008266  56.8695307
  62.8921062  52.3797274  19.1948175  63.0540258  51.4452457  19.3242621
  63.4249955  52.6120615  18.4343684  15.4812813  22.4564838  27.9157734
  15.5711031  22.2249579  28.8401961  14.8357213  21.8371224  27.5753713
  27.5054052  71.9203168  63.9357216  27.2220176  71.2353760  63.3300996
  26.7773893  72.0128709  64.5502610  36.6951919  55.5277967  30.6517386
  36.8587756  55.7780981  31.5610361  37.5658393  55.4750013  30.2575111
  82.2682944  69.5220232  26.0171986  82.7583356  70.3437042  26.0478282
  81.3994473  69.7488260  26.3487077  16.7019236  63.0940533  41.2003231
  17.6224160  63.2758570  41.3897228  16.7256808  62.4128580  40.5282784
  64.7544956  77.8707361  47.4805641  65.6772184  77.8975725  47.7337360
  64.6720552  78.5430145  46.8041945  44.7108745   7.9622354  30.6029582
  43.7756180   8.0410566  30.4150319  45.1421057   8.3185377  29.8262191
  13.7513793  25.1979327  25.7835698  14.2665708  24.6837211  25.1619625
  13.6084652  26.0348725  25.3415990  45.1921511  34.8683023  26.0495687
  45.1632595  33.9819241  25.6893873  46.1256933  35.0658107  26.1251497
  63.8754827  57.6973963  28.8145661  64.6373111  58.2650137  28.6976886
  63.9635831  57.3586988  29.7054958  15.3189027  52.5512552   2.7025554
  15.6735158  52.3730803   1.8315011  14.3891764  52.3349380   2.6315030
  14.7411716   8.9606923  41.1340952  15.2940452   8.9073884  41.9136620
  15.3107250   9.3343544  40.4616261  24.6760035  13.3795345  61.8982029
  25.1814008  13.8006890  61.2029076  23.8376546  13.8414907  61.8983698
  81.5082839  31.0941029  29.1908002  80.7327008  30.8991504  28.6647820
  82.2059941  31.2262201  28.5489464   9.3140334  12.6611984  46.8178940
   8.5518515  12.1371865  46.5714741   9.6733475  12.9676199  45.9852886
  84.9324395  49.8245955  47.5419855  84.6550485  50.7169533  47.7493095
  85.2060791  49.8656368  46.6256523  35.2777886  59.5448303  22.9773879
  34.6793723  59.7047472  22.2476244  35.2657676  60.3594208  23.4799099
  64.0220195  80.4456806  50.6775331  63.8774902  79.6513081  50.1634216
  64.5331675  80.1529789  51.4320421  16.2476790  66.9056606  11.2400270
  15.9236014  66.9537020  12.1394145  16.2152994  67.8090239  10.9252000
  19.7509873  34.2092371  27.9108500  18.9879251  34.7224998  28.1764221
  19.5271409  33.3085513  28.1451392  41.2559271  37.0859981  20.1244807
  42.0617914  36.5694714  20.1209378  41.5534973  37.9944444  20.0753856
   1.7785639  38.3159018   0.8949640   1.0912599  37.7565503   1.2568624
   1.5891106  38.3519554  -0.0426071  39.5651793  65.7950258  29.0792012
  39.7084141  65.1124191  29.7347665  39.6149087  66.6143036  29.5716906
  75.4146153  35.2209115  38.6522055  75.9511983  35.5053401  37.9123330
  74.7463149  34.6582174  38.2610774  16.3979840  38.0442691  22.6480436
  15.6131744  37.6556325  22.2616935  17.1120656  37.7587008  22.0781589
  83.7915312  53.1171131  29.1373563  84.6879390  53.3267641  29.3995214
  83.5686766  53.7860107  28.4899449  10.1348174  58.0418777  53.9432383
   9.3397284  57.7928162  53.4720325  10.8382010  57.9252052  53.3045912
  15.9510035  19.9240824  69.2799934  16.1523194  20.2744480  68.4122690
  15.6364818  19.0356775  69.1125153  61.4318162  65.4002428  57.3591471
  62.3375684  65.2699709  57.6399946  60.9577590  65.6028271  58.1656599
  20.8801460   4.3532389  39.8822117  20.1008439   4.9090391  39.8796964
  20.7356787   3.7414569  40.6040764   6.6592157  42.4255419  16.5361786
   7.4860919  42.8672504  16.3427937   6.4376086  41.9666195  15.7259226
   1.3539401  26.2949014  10.6778908   2.2925785  26.4632702  10.5951786
   0.9873097  26.5632892   9.8354059  31.9399929  45.3107023  54.8699951
  31.7054129  46.1542511  54.4831753  32.8957486  45.3275394  54.9197865
  35.3179598  69.9365187  35.9195805  35.8766532  69.7409534  35.1673508
  35.1460385  70.8757591  35.8524776  38.7382388  22.0877862  33.7257433
  38.0543637  22.3208475  34.3536210  38.2636523  21.7204452  32.9800487
  12.0312548  79.7428417  10.5310869  12.8139365  80.0317001  11.0003471
  11.3169301  79.8706198  11.1553025   7.2098190  45.7108879  67.4511766
   6.4916152  45.7673120  66.8209124   7.2574222  44.7820568  67.6775312
   5.8485758  73.6197615   4.2531949   6.3662815  73.1967258   4.9382180
   5.7935959  74.5356989   4.5257035  25.6395455  64.8294717  65.8155299
  25.5040013  64.7188574  66.7566059  26.5873908  64.9220067  65.7193101
  74.4898862  59.4727087  22.9948902  75.2621233  59.5519066  23.5548973
  73.9460176  60.2247524  23.2291245   8.2444847  52.3680735   4.2496774
   8.9992261  51.9648266   4.6786168   8.6093718  52.7951002   3.4746054
  77.9905969  37.1565628   8.8453603  77.3839551  37.5071788   9.4974995
  77.4311656  36.6907215   8.2238615  15.7287800  36.2567759  44.6120930
  16.4530408  35.8949804  45.1227570  15.0020945  35.6530786  44.7660732
  12.8159869  60.0758743  49.4160604  12.7981567  60.0493240  48.4593964
  13.5148191  59.4687605  49.6595287  53.1508814  20.3575029  26.9158006
  52.4604284  20.6877031  26.3409328  53.3338200  21.0836687  27.5119972
  56.1783457  61.0117388  53.3899593  55.7934475  61.8346262  53.6915159
  55.7569647  60.8450127  52.5468254  20.5101991  52.3294210  28.2776594
  20.4118347  52.3611069  27.3260546  19.6713126  51.9942379  28.5941315
  32.3971343  36.3530231  49.9858856  32.4202371  35.4964542  50.4124880
  32.1399689  36.1642718  49.0834093  16.4563024  40.8148050  43.4829760
  16.1627042  41.7199087  43.3789539  15.8383143  40.4326582  44.1061020
  19.8067873   2.4733057  24.1132092  19.3833618   2.0276632  24.8469329
  19.1286438   3.0483045  23.7586331  28.8388872  61.3727236  12.4283934
  29.7201777  61.0732985  12.6517820  28.3853388  61.4308596  13.2693136
   4.4077608  34.1504049  24.8462987   4.8238683  34.9880338  25.0499272
   4.8947984  33.5089946  25.3636193  62.3159534  61.4523602  30.7084846
  62.9900271  61.3011217  31.3710427  62.1856767  60.5967045  30.2996874
   8.0253094  51.6643143  44.0738249   7.0800102  51.8123817  44.1005993
   8.2216042  51.2200022  44.8986197  84.0927278  39.1627812  17.3439002
  84.4937456  38.3226895  17.5667512  83.1685479  38.9571571  17.2030377
   4.3805517  76.4880926  38.4179592   5.1138462  77.0896689  38.2890487
   3.8983596  76.8536920  39.1596174  26.2554598   3.9294484  35.6052065
  26.6244984   3.1891483  35.1235437  26.8995142   4.1156963  36.2883878
  29.1693401  25.7804513   9.9549598  29.2911935  26.4454293  10.6325948
  28.4628677  26.1230588   9.4074667  10.7275999  57.0651531  46.3551378
  11.6221523  56.9051409  46.6558123  10.8315539  57.4201918  45.4723167
  28.7265801  68.1804657  16.4580739  29.5152211  67.8419971  16.8820000
  28.0496836  68.1254864  17.1326244  22.2271507   3.6921777  24.9036670
  21.5629112   3.0236139  24.7362256  21.9250040   4.1369619  25.6955719
  27.4133182  10.1686966  18.7234664  26.7083812  10.1236141  19.3694246
  26.9684243  10.3508389  17.8957450   2.6517451   9.3064612   8.2645661
   3.3617154   8.9160329   8.7742126   2.5806764  10.2006209   8.5987204
  23.9204550  67.0899010  44.7548008  23.2244968  67.1138811  45.4115391
  23.5211396  66.6605091  43.9982271  31.0563350  68.3107662  50.6871414
  30.5529833  68.9749670  50.2162790  31.8200612  68.7812233  51.0212421
  23.0062938  51.5861702  10.0833607  22.2696495  51.1509895   9.6541721
  23.7561274  51.4015198   9.5177752  46.1685238  26.0526842   7.9708480
  47.0500056  26.4236492   8.0109214  46.3090096  25.1084989   7.9001092
  38.5206771  23.8551474  46.0034180  38.5601783  23.0591536  46.5335751
  37.6020265  24.1216207  46.0395145  57.7810084   7.0951452  23.8895082
  57.9444848   8.0048837  24.1382718  58.4195744   6.5906038  24.3933964
  18.4154105  52.2785664  44.5651770  17.5553918  52.6485157  44.7645235
  18.3529150  52.0070219  43.6494303  71.9339835  23.7361707  43.8815832
  71.0464655  24.0946092  43.8737392  71.9523178  23.1586637  44.6447229
  13.9474857  37.0337129  21.7303228  13.8162756  37.9415202  21.4566374
  13.0895495  36.6238642  21.6198564  20.4802752  12.3437870  62.7911282
  20.8061886  12.3073125  63.6903954  20.2198029  11.4440298  62.5940943
  -0.0018110  18.5658967  21.0338378  -0.3027357  18.3962178  20.1411533
   0.9474029  18.6590862  20.9529638  22.3940611  44.3861008  64.8911619
  22.9850554  44.5324659  64.1525555  21.5410495  44.2262840  64.4873524
   2.1014492  75.2873039  60.0510168   1.7584783  75.5516195  59.1973591
   2.4228671  74.3960762  59.9144983  32.2702432  43.6930752  33.7746525
  32.5958467  43.5726690  32.8826237  32.3296881  42.8236866  34.1707087
  22.7711892  51.4892721  33.7550330  21.9113493  51.0686827  33.7516403
  23.3073282  50.9429455  33.1803060  83.5766551  50.5913353  50.2231932
  82.7227545  50.3073311  49.8969650  83.5170843  50.4868889  51.1728144
  23.9655638  41.2928772  62.6487207  23.0618429  41.0412598  62.4584246
  24.1651535  41.9733810  62.0058250  49.6513166  50.8237940  65.1798633
  50.2737560  50.8661050  64.4539077  49.8741474  50.0143039  65.6395433
  81.0315162  45.1127815  33.4010911  81.8312448  45.2750444  32.9007554
  81.0533339  44.1746473  33.5899329  15.7918513  39.5001578  36.9811106
  15.7073522  39.7052455  36.0499644  15.2193427  38.7444353  37.1128249
  40.9587717  11.5416622  48.4918642  40.8443689  11.8821549  49.3791103
  40.6740189  12.2564435  47.9224443   7.6431537  36.7623830  25.1284313
   6.8895298  36.9593620  25.6847429   8.2426572  36.2812519  25.6988168
  33.6719918  73.9058638  36.2240553  34.0595746  73.2361746  35.6605625
  34.4218588  74.3814898  36.5814233  42.0842075  71.8314123  19.7542024
  41.7496490  72.7268028  19.7034061  41.5248585  71.4031363  20.4022312
  38.0274509  10.4206934  31.3283229  38.3185350  11.3320245  31.2970376
  38.8260709   9.9197282  31.4940810  45.1252413  64.5798588  41.5254164
  45.8536339  65.0607729  41.1324930  44.4271088  65.2292919  41.6095781
  63.9673311  74.5516777  43.9454508  64.7448832  74.4003296  44.4827938
  64.2837745  74.4918919  43.0440521  49.7089633  77.9444295  50.1686240
  49.0176757  77.2923857  50.0537789  50.5080374  77.4982649  49.8881758
  14.3152761  59.9806118  17.9490221  14.7073185  60.4352236  17.2034597
  13.6253047  59.4401789  17.5641799  15.4796791  77.9850101  46.8152189
  16.0706210  77.5548029  46.1972046  15.9736693  78.0197239  47.6343679
  22.0126247  78.5275459  22.4229908  21.3264942  77.9199982  22.1466923
  21.8609405  78.6500168  23.3601284  41.0285519   4.7286596  53.3854914
  41.6320371   4.2993154  52.7791071  41.4019262   4.5644369  54.2514324
  15.2071767  12.5563612  33.6873913  14.9444823  13.4767904  33.6821151
  16.1050897  12.5654497  34.0189123   6.8508829   5.3188177  64.1570700
   7.6658333   5.7145925  63.8481093   6.2059797   5.5440470  63.4865457
   6.8646783  53.0201912  46.4231396   6.4333373  53.0982113  45.5722046
   7.7263510  53.4158802  46.2920570  57.9987764  61.1862326  32.3919964
  57.6532125  60.3403234  32.6770473  58.4265327  61.5445852  33.1697130
  48.4966265  32.0160761  22.1401405  49.3437420  31.9712343  21.6967297
  48.6307632  32.6441278  22.8499269  75.8930492  48.0965090  22.9406691
  76.6508335  47.8128576  23.4520745  75.4205036  47.2876596  22.7439499
  53.1450804  80.5910641  65.3160558  53.6505612  79.9802858  65.8524022
  52.2433241  80.4867512  65.6196809   4.6919098  56.1750269  20.6803536
   4.5813102  57.0901346  20.9383893   4.5140091  56.1681938  19.7398555
   4.5119527  48.4486961  36.7988372   5.0475240  49.2404175  36.8496037
   3.9002573  48.5259676  37.5310183   3.5855377  53.2958412  55.0523710
   4.0695721  53.6120749  55.8152199   3.8191020  52.3698425  54.9875021
  57.7557002   4.8232546  19.0924084  57.9405605   4.5320215  18.1995249
  57.0095335   5.4158582  19.0013969  79.0756238  76.6351318  21.8691421
  78.8092375  76.1677694  21.0774112  78.2754201  77.0610857  22.1765041
  53.7188150  52.7485605  59.8998333  53.9047046  51.8721910  60.2369464
  53.2650892  53.1900831  60.6177617  16.1881161  51.9570017  34.2603040
  15.9268808  51.0361481  34.2632747  17.1332717  51.9373560  34.1102147
  30.4182867   2.0478429  62.4013662  30.7633070   1.4327135  61.7542124
  29.9789289   2.7209367  61.8816042  50.1278602   6.6884889  52.1096087
  50.8095085   6.7869272  52.7743626  49.5572864   7.4463071  52.2375822
  44.6471834  71.8626022  11.6586316  43.8415384  71.4969397  12.0239520
  45.3488493  71.4277267  12.1431696   9.6415202  32.8182882  10.1728153
  10.5304758  32.4650472  10.1380300   9.7544495  33.7227100  10.4652118
  50.2537584  80.2587128  27.4286366  49.5199203  79.7505474  27.7743030
  50.3860760  79.9172211  26.5442681   6.5164870  66.0458469  44.4428682
   6.4760226  66.1899662  45.3882933   6.9086379  66.8467712  44.0950680
  48.1059933  55.0167084  45.7026529  47.1878767  55.1057243  45.9583378
  48.1605291  54.1480637  45.3042603   7.3716789  50.3692436  23.1351566
   8.0669010  50.9586287  22.8427124   6.6376382  50.9481478  23.3407903
  83.0275440  68.7818480  62.5289726  82.5483036  68.6101198  63.3395720
  83.8155556  69.2466211  62.8104925   5.7598990  51.3526249  36.8634582
   6.6805667  51.3088465  36.6052246   5.7808727  51.3899946  37.8197002
  27.9291081  64.6088076  38.1620002  28.7359190  64.9991703  37.8259921
  27.3677826  64.5187950  37.3919082   3.1656787  68.2387781  48.1753922
   3.4051695  67.7098608  48.9363909   3.6327276  69.0647697  48.3012342
  76.9120985  77.0453548   4.0565154  77.2107077  77.3829222   4.9009767
  77.6362187  77.2254610   3.4569785  29.0044379  48.6196613  36.8653846
  28.4148812  49.3189669  36.5832138  28.9445829  47.9618311  36.1726284
  50.1039743  73.6273718  33.4451556  49.4185352  73.6054611  34.1129279
  49.8640823  74.3614864  32.8796792  51.1264216   0.2551927  37.2449589
  50.6139385  -0.5505810  37.3106956  51.2452113   0.5381384  38.1516361
  45.1537848  58.5961580  39.1557455  45.6638861  58.7437248  38.3593464
  44.2419577  58.6502314  38.8696027  37.6785946  60.2215052  37.6358747
  37.8410268  61.0884380  37.2640252  38.4854150  60.0066662  38.1039762
  21.0311127  51.0463810   2.8969571  20.5733371  50.5145359   2.2459468
  20.9796429  51.9392633   2.5558668  49.3480206  58.0348301  37.8811908
  48.3918858  58.0523062  37.8395629  49.5999718  57.3169851  37.3002863
  53.7939702   0.7545271   0.2427197  54.6402894   1.0423269   0.5849901
  53.3865630   0.2880277   0.9725338  82.9824930  31.4355206  10.2450812
  83.0141579  31.9094944   9.4140708  83.3690934  32.0387912  10.8797753
  84.0300770  41.9110533  46.6373897  83.5979600  42.7267500  46.3841153
  84.4715924  41.6165396  45.8407975  68.6239516  16.1528387  30.3255892
  67.7746211  16.1664571  29.8843575  68.5851656  16.8837728  30.9424043
  37.8187108  30.7020640  23.9991045  37.6820898  31.0511446  24.8798490
  38.0076742  31.4721322  23.4628963  21.4805244   3.7227716  56.2265444
  21.3049947   4.4326105  55.6088448  20.8470779   3.0430116  55.9965467
  26.3230205  47.0221138  45.5576181  27.0284963  46.8604994  44.9311876
  26.7645502  47.0852470  46.4045525  13.3594561  64.5149755  11.7675567
  13.2276714  65.0971985  11.0193038  12.4746120  64.2798519  12.0468378
  41.3355016  16.0161390  69.2500496  40.9260761  16.8790331  69.1866636
  41.3619636  15.6967535  68.3480930  58.3360850   9.9603071  46.5564156
  58.0923830  10.8083143  46.1853075  59.1946184   9.7710123  46.1778402
  54.0259027  62.4146128  36.1942148  53.3302689  61.8096018  36.4516664
  54.4523525  61.9871664  35.4514742  80.6839644   3.1456270  34.5124698
  80.3874623   2.3367014  34.0953827  80.0517832   3.2986726  35.2147198
  24.9168706  55.4569769   3.6896977  25.8570004  55.4918528   3.5131368
  24.5095968  55.4779482   2.8237185  43.3221531  51.0817766   9.4699597
  44.0819788  51.0135365  10.0480902  42.7957916  50.3087521   9.6739447
  49.4525003  65.9632826  34.6529698  49.1201735  66.6023064  35.2833962
  50.4047298  66.0273838  34.7262955  55.4443532  73.9400816  63.5589314
  54.7490913  74.3395519  63.0361843  56.2334663  74.4259787  63.3192778
  42.4449778  76.4971590  17.4927509  43.1644440  75.9805489  17.8556871
  42.2869349  76.1145210  16.6297090  42.1309614  39.4940972  19.2675602
  42.2818184  39.6401095  18.3336687  42.5022030  40.2665806  19.6937966
  21.6960979  69.0047407  33.6356711  22.3562098  69.6796608  33.4776521
  21.0511112  69.1330481  32.9401398  41.8451548  62.0914125  42.6439524
  41.5136671  61.2244320  42.8778219  42.4957752  61.9232130  41.9623137
  30.8979011  30.2370524  12.5574374  30.5628490  30.0034189  13.4231091
  31.1161351  31.1663771  12.6278806  46.5384339   6.6209402  43.1958294
  45.9968435   5.8323564  43.2279873  47.1158205   6.4844980  42.4446726
  78.6871761  16.4160645  17.3746753  78.7391192  16.7892134  18.2546139
  77.8112394  16.0328937  17.3283291  54.0074693  10.3637685  38.9029908
  54.7668659  10.7452764  38.4625387  53.2923113  10.4603662  38.2741427
  24.2922759  53.8003206  37.1068549  24.7461963  53.1984138  37.6966834
  24.4425082  53.4386253  36.2334490  37.8111471  32.9047724  60.9438635
  37.6988281  33.8415094  61.1055470  38.5430158  32.6507469  61.5060634
  78.4690535  35.0424385  34.7563934  78.7291878  34.7841620  35.6406188
  78.7074012  35.9676003  34.6972275  56.8072701  67.1142578  31.8799281
  57.2493982  66.2829256  32.0521021  57.1554756  67.4003220  31.0354424
  31.3068485  78.2795811  40.9984589  31.4847708  78.1770992  41.9333792
  31.9218683  78.9540005  40.7101250  19.3226624  49.1730404  16.2833071
  20.0280261  49.7116613  15.9247291  18.9868653  49.6795034  17.0228791
  47.6432752  17.7188482  32.9253697  46.8714773  18.0897417  32.4975872
  48.3766900  18.2267751  32.5784564  26.5709329  59.8466635  42.4442768
  25.6781745  60.0816154  42.6972866  26.8904662  60.6074429  41.9591522
  45.0041437  21.2216282  18.7872219  44.4388390  21.3481832  18.0252206
  45.8770847  21.4679456  18.4813881  17.8007460  50.2415895  57.7180433
  17.7159286  49.4662237  57.1632099  16.9142818  50.4031134  58.0410337
  61.3403320  72.2721291   7.5682867  62.2741127  72.4549437   7.6725298
  61.2340975  72.0934725   6.6339272  81.0019669  79.6209383  15.9208572
  80.0814933  79.5723104  16.1789179  80.9781030  79.8185587  14.9845839
  21.7782235  46.0878801  14.6223497  21.0120034  45.5283833  14.4954479
  22.2670674  45.6676865  15.3299522  27.4642015  51.9996548  59.6877813
  27.9675937  51.3650846  60.1978254  26.5846324  51.9654560  60.0638390
  16.0871077  48.6728573  51.8125677  16.0114288  48.1076336  52.5813532
  15.1842082  48.8083315  51.5250778  16.2461996  48.8016939  33.1726050
  16.3176739  48.1145811  33.8351750  15.4794931  48.5562563  32.6547670
  47.1864843  60.9093571  26.1188412  46.5416193  60.2418280  25.8847785
  48.0058002  60.4252291  26.2217140   1.1647071  18.8469978  65.3498772
   2.0108927  19.2808052  65.2402929   0.5833877  19.5345207  65.6748519
  10.6526713   1.9805135  51.6691875  10.2605348   1.9731989  52.5423431
   9.9131541   2.1108999  51.0755968  23.9014506  59.6172428  23.0540299
  24.1479707  59.2692280  22.1970916  22.9915714  59.3439054  23.1708217
  77.7395983  69.6406217  45.3718115  77.4182362  70.4919096  45.6689311
  78.6860318  69.6806188  45.5092669  17.7866138   6.8448444  68.9890052
  18.2220520   6.1736914  68.4634764  18.4560312   7.5157686  69.1230724
  23.5960436  78.1320333  29.6349573  23.6532426  78.1960535  28.6816144
  23.4273386  79.0283298  29.9255037  48.8667870  50.5838871  44.5808268
  48.1140995  51.1651134  44.6897602  49.6092033  51.1746311  44.4540596
  21.7014623  51.0719299  24.0810537  20.8739352  51.5238953  24.2458558
  22.0606518  51.5047550  23.3065343  56.0013734  10.6730451  37.1263123
  55.7299959  10.1378908  36.3805294  56.7348038  10.1932420  37.5111413
  34.6918583  41.2009764  15.1707077  34.5077968  40.2647400  15.0944805
  33.9428377  41.6270351  14.7539699  57.4197674  55.8829212  13.7650692
  56.6112089  56.3187504  14.0343571  58.0288553  56.5987730  13.5839760
   7.7378333  31.0827637   5.9410012   7.5342447  31.4872265   6.7843235
   8.5402459  30.5860376   6.1010921   8.1776155  16.0725399  61.2499220
   7.5228752  15.4032179  61.4488072   7.6950182  16.7438026  60.7674963
  24.8362541  49.9612284  40.0865841  23.9905429  50.0725985  40.5208635
  25.3957558  49.5594978  40.7512665  25.8121705  69.8636293  36.9876218
  25.7049417  70.5528212  36.3320732  25.3154802  70.1738834  37.7447701
  74.0020806  56.0734892  30.3291917  74.6495098  56.7706966  30.2244377
  73.2280761  56.3938141  29.8660064  56.7664528  65.2389908  46.1543083
  56.3015366  65.6855965  45.4467583  56.6776562  65.8245516  46.9062853
   4.2392573  45.3996086   4.6453062   4.3307829  46.2778378   5.0148576
   3.4506264  45.4481077   4.1049907  32.8400230  49.6481323  26.8918705
  31.9601703  50.0199604  26.8299413  33.1115961  49.5227289  25.9826112
  49.8561621  59.9461460  26.0309911  49.8880243  60.0913048  25.0853992
  50.1604271  60.7706451  26.4102697   8.5175389  75.4089403  27.4507904
   7.8064466  75.2201271  28.0631042   8.1774145  75.1383781  26.5979481
  42.0331128  21.0463711  67.7714639  42.8283687  21.4135500  67.3854910
  42.1410067  21.1784025  68.7133547  46.2951612  67.7514267  45.6838274
  45.4801130  67.2978115  45.4689789  46.6280460  68.0581808  44.8404264
  77.1558256  27.4526783  63.3533717  77.5295086  27.8810116  62.5832260
  77.5571127  26.5837045  63.3624668   6.2512080  59.3679088   4.4638347
   7.0255581  58.8072342   4.4163703   6.5967170  60.2587837   4.4071960
  34.8604298  70.6066322  11.3807869  35.3196669  70.2896881  10.6030488
  34.7048020  69.8203897  11.9040823  36.9682574  74.6341658  47.3431253
  36.2879419  74.6218872  48.0163670  37.2539997  73.7231731  47.2747183
  65.7402992  65.7688570  36.1673903  66.1507607  64.9043274  36.1858130
  65.7185078  66.0432339  37.0841646  26.3426590  75.0470400  10.8972204
  26.6618633  75.9443903  10.9926534  26.0394120  74.9958277   9.9907714
  48.7390817  26.0094209  58.3896340  48.0878938  25.9679886  57.6892973
  49.4618190  26.5130707  58.0151773  71.9816550  72.0635515  66.7911468
  72.5662526  71.3173276  66.6583652  72.4889573  72.6727515  67.3275692
  41.6016995  30.4150953  23.4737873  41.4175450  30.8237257  22.6280117
  41.5234970  29.4756117  23.3079696  47.5878048  74.7709084  11.7988062
  47.3427057  75.6433392  11.4905429  48.5285139  74.7133017  11.6315281
  50.0922775  75.9989071  31.7909455  50.8379841  76.4929247  32.1316743
  50.4796696  75.3698730  31.1822772  72.4298198  23.2833572  67.6418125
  72.3659522  23.9675089  68.3082137  73.2572217  23.4611412  67.1945647
  31.6047700   3.0709543  10.1469100  30.8168234   3.5828199   9.9642265
  32.0863034   3.0690756   9.3196535  31.4913206  19.8001852  22.2036123
  31.8842008  18.9960184  22.5430155  31.1904295  20.2672472  22.9830670
  31.8553376  55.2032328  25.6222534  32.3833656  55.8479023  26.0932350
  31.3494062  55.7200813  24.9952483  36.5403407  17.1885194  32.2532701
  36.6423284  17.2751417  31.3054681  36.5553151  16.2444296  32.4104834
  17.0717096  65.0679016  58.2343149  16.8823552  64.1801453  57.9305553
  16.2299120  65.3983688  58.5480070  65.4287195  48.9842463   1.5930620
  66.2652922  49.4466305   1.6438198  64.7727537  49.6799898   1.5497397
  27.7125621  39.6311235  48.1889200  27.0974112  39.7712970  47.4690771
  27.9358363  40.5124807  48.4882307  34.3282986  56.0361338  34.9557495
  35.0398636  56.2397194  34.3487406  33.8434434  56.8570995  35.0404143
  38.9696193  79.2580318  27.3070931  38.9371943  79.6899605  28.1606841
  38.2551098  78.6216211  27.3334002  81.2689434  23.2920732  41.3281202
  81.5826212  24.0218534  40.7940245  81.9838225  22.6558580  41.3079166
  37.4120355  70.9475136  24.4968748  36.6118932  70.4530048  24.6742678
  38.0927253  70.4851437  24.9858618  73.8904005  62.0892143  46.0810471
  73.1373471  61.5246439  46.2554121  74.2234820  62.3189306  46.9485283
  11.8785930  62.5589180  48.4367466  12.6230705  62.2701120  48.9645529
  11.7002201  61.8229580  47.8512764  21.9649434  61.1034918  42.7019691
  21.4131165  60.8167410  43.4296322  22.1105814  62.0354652  42.8646183
  10.4643167   7.9232832  54.2045189   9.9562276   8.0067106  53.3976007
  10.0909532   7.1597381  54.6447862  69.2707999  38.9875217  55.8032251
  68.8516397  39.8096748  56.0573877  68.5766215  38.4874674  55.3739286
  18.7466943  43.7685919  52.5428104  19.5911205  44.1307592  52.2744656
  18.4268153  43.3070374  51.7676497   5.2486806   9.2761221  47.1716213
   5.8571963   8.6702146  47.5944853   4.6658807   8.7133875  46.6618061
  31.5881658  69.6576834  40.5861664  31.6454577  70.3784752  39.9589443
  32.4818826  69.5524645  40.9124041  29.5117998  39.8835874  18.2387900
  30.4092336  39.5809078  18.3774567  29.1173434  39.8709941  19.1108429
  29.3613362  43.0193520  34.6757293  30.0378966  43.6961603  34.6550703
  28.9062357  43.1608868  35.5058408  25.8860803  68.1183815  43.2396269
  25.1724505  67.6989555  43.7203026  25.4477549  68.6425018  42.5692558
  52.2033691  69.3392372  24.0585947  51.3147306  69.4875431  24.3819451
  52.7677393  69.7577953  24.7086191  37.4808717  31.0091782  34.2271948
  38.3984733  31.1365056  33.9863110  37.1357703  31.8957162  34.3329549
  27.1957469  58.6892986  18.9002216  26.8476439  57.7992964  18.9545476
  27.6544356  58.7162352  18.0605125  28.9766908  59.6707487  40.0898314
  28.7098861  60.5088520  40.4675007  28.4752917  59.6037674  39.2772150
  56.1615324  77.9236698  32.5038099  56.0699892  78.8486767  32.7323127
  56.0501432  77.8995705  31.5534210  64.6930231  12.9592987  56.0271836
  64.5515443  12.8068777  55.0928474  65.4942269  13.4815975  56.0660327
  30.7800317  34.4448209  23.8223290  31.1956453  34.3289804  22.9678845
  30.2112317  35.2065539  23.7107038  19.5773423  38.2916307   2.9906306
  18.8604224  38.8623571   2.7139902  19.1542137  37.4579477   3.1959692
  75.5615984  12.8490820  31.0716176  75.0374924  12.9708852  31.8632674
  75.1608168  12.0991506  30.6320643   0.6062036  36.8262887  13.1025994
  -0.0486261  37.5228071  13.1504679   0.2786832  36.2358475  12.4241138
  34.2057443  59.0426588  18.4840536  34.5608711  58.6211252  17.7014768
  33.5320067  58.4387875  18.7965465   8.7449174   7.7003946  26.1545801
   8.8168006   7.7977171  25.2050567   9.6323924   7.8534784  26.4789057
  83.7413584  26.7388811  47.0072412  83.1584679  27.2658147  46.4606047
  83.1540905  26.2653722  47.5964212  21.0056782  70.2910280  35.9952831
  20.0827694  70.0918531  35.8377981  21.4738202  69.8154736  35.3090453
  67.0684825  20.0467767  31.6905618  66.4615570  19.3319120  31.4986253
  66.5043961  20.7820978  31.9300222  21.8504654  16.9048204  42.4601936
  21.4575385  17.6596536  42.0219469  22.7141665  17.2111692  42.7366018
  23.9367437  72.4999380  44.2412138  24.6134067  72.0658159  44.7607327
  24.3382955  73.3239126  43.9654350  62.1749020  65.5509615  61.5979290
  62.1883965  66.3077593  62.1838522  62.8351307  64.9582100  61.9570541
  41.4063501  78.2394314  28.9355016  42.1544838  78.0966187  28.3557272
  41.7970133  78.4748220  29.7770524  18.6859727  42.4077368  60.9019041
  18.7343895  43.1554222  60.3062105  17.7993894  42.0660686  60.7858658
  73.1494986  10.8362283   0.6264076  73.7917124  11.3374986   1.1289190
  73.1559502  11.2404050  -0.2412504  13.1452549  50.1304531  37.3154235
  12.6745915  49.3281555  37.0895362  14.0698385  49.8876047  37.2664189
  15.3717482  50.0530386  24.1869307  14.6646392  49.7419310  24.7521234
  14.9283409  50.5537701  23.5021782  62.9686117  40.3885317  46.9412518
  63.2488298  39.9278831  47.7321434  62.9181337  41.3074446  47.2044754
  46.4247131  50.7035875  35.4085326  46.6157818  51.5928268  35.1102519
  45.5137444  50.5562210  35.1542711  61.6328955  53.5057354  48.9802694
  60.7351732  53.4227419  49.3018913  61.9957256  52.6229048  49.0523815
  28.0288768  49.9988747   3.8872385  28.5776353  49.2296124   3.7344682
  27.2479367  49.6538591   4.3200532  19.2155588  64.5375776  38.6908579
  19.2186618  64.2369747  39.5996261  18.6428773  63.9198685  38.2362103
   8.9113837  24.8251534  15.3110397   8.2344085  25.2284145  14.7676098
   9.7351027  25.0762606  14.8931122  42.1261692  74.4392490  30.1442862
  41.4121389  74.9191284  30.5639386  42.8980827  74.6510458  30.6691837
  36.0174941  36.8433942  36.0066223  35.5271458  36.0243120  35.9365988
  35.6923293  37.2492494  36.8102241  35.6670952  72.0510387  19.1527450
  36.1547232  71.5638971  19.8169327  36.3118601  72.6467514  18.7711227
  76.9842118  25.6926727  14.7366726  77.3857439  25.6983995  13.8677812
  77.0486432  26.5994906  15.0362778   1.8163829  32.4507894  39.0893483
   2.1808963  32.0110407  38.3212447   1.9558625  31.8334474  39.8074508
   4.7271670  23.8049122  67.6193827   4.1392983  24.5404669  67.4473468
   4.2133154  23.0296512  67.3932039  29.7319198  57.9677486  50.1553202
  29.3661880  58.7083673  50.6390095  30.6629181  58.1733513  50.0704670
  27.7472138  73.3241129  29.1485882  28.6532378  73.2802105  28.8429379
  27.7061772  74.1315413  29.6610403  31.7166400  29.9367642   7.6821595
  31.1346149  30.3031969   8.3478987  32.4600935  29.5925975   8.1771910
  18.7109637  59.4622564  27.8342867  18.1799579  58.7004185  28.0663800
  18.4006584  59.7145319  26.9646335  19.2648888  62.2375727   3.8590071
  18.8682199  61.5912914   3.2748759  19.9027061  61.7391157   4.3698519
  34.7943854  76.4390326  37.3958015  35.3484941  75.9561110  36.7826319
  35.2692723  76.4043331  38.2261705  31.2282014  71.9456244  38.9417911
  30.5472279  72.3322678  39.4922590  31.9874287  72.5155497  39.0642262
  27.0631242  60.2901411  26.4203334  26.4312482  60.3953266  27.1316004
  27.8801751  60.0529051  26.8589449  25.8370938   3.3761205  24.2899179
  26.7394124   3.0782880  24.1743898  25.5738737   3.6847295  23.4229064
  49.5274364   1.4815416  35.0921154  50.1751720   1.3262357  35.7795358
  48.6843835   1.3255682  35.5177498  19.5442367  63.1297636  54.4043016
  19.1455138  62.2739363  54.5618153  18.9017487  63.7577581  54.7345495
  83.6526675  30.1636549  61.4033420  84.3069072  30.7890983  61.7148317
  83.3689613  30.5143305  60.5590845  17.6594687  53.9106083  31.9507027
  17.5149798  54.6314573  32.5636673  17.7823806  53.1426811  32.5087452
  28.6411381  55.0405455  23.9491296  28.9498687  54.6621847  24.7723913
  29.4305849  55.3885984  23.5345626   9.1979092  66.1227846  48.4310913
   8.8805956  67.0211935  48.5227442  10.1108086  66.2177467  48.1593800
  20.0938153  51.2681913   6.7347175  19.9586153  52.1404552   7.1049893
  19.2103100  50.9354258   6.5768546  11.6486871  57.0275927  19.5021856
  11.2372208  57.4223518  20.2710104  11.7068255  57.7423143  18.8681269
  16.5545177  16.8342447  24.5258570  16.4302766  17.4373507  23.7930131
  15.9854770  16.0915148  24.3239212  51.4692603  14.8507204  39.7898412
  51.4494072  14.6220388  38.8605714  52.2983633  14.4925966  40.1069689
  15.8263361  75.9549809   4.0513057  16.5182531  75.4528379   4.4818085
  15.8988380  75.7186508   3.1265771  22.0341039  64.0231895  31.0314655
  22.2658348  63.7239599  31.9106674  21.3684058  63.4025860  30.7349420
  44.7182001  11.8182226  62.0408303  44.7505773  12.6777502  61.6208345
  45.6348146  11.5518471  62.1122116  12.1775818  67.2456551  13.2890320
  11.4161277  67.0747280  12.7347732  12.9102194  66.8475819  12.8189123
  15.8107042  43.8447094  44.6685028  14.9478972  43.9959955  44.2826176
  16.3270080  44.6071720  44.4071341  72.8347502  28.8425630   4.6632528
  72.0147321  28.8459963   5.1570033  72.5680933  28.9851755   3.7550735
  13.6376655  77.3681307  30.0033689  14.1670370  76.5824461  30.1401043
  12.7346408  77.0708990  30.1148748  75.1963872  35.1489449  24.7656727
  75.8361042  34.9982548  24.0697670  75.7204247  35.4285669  25.5162907
  20.6493092  44.7633028  60.3745413  20.1457691  44.6833420  61.1846542
  21.2905693  45.4498863  60.5578947  67.3231363  72.0657444  52.5819492
  67.1256399  71.6187525  51.7588902  67.3534918  72.9937315  52.3492384
  61.9674140  78.0716085  52.2104931  62.7022868  78.4707928  51.7448330
  61.4055854  77.7237368  51.5179873  64.5997774   8.4377660  50.9791279
  65.1754557   8.8888063  50.3615570  63.9181506   9.0782156  51.1827135
  24.3415416  45.1455541  63.1340689  24.8175872  45.9675833  63.0162877
  24.5280756  44.6448465  62.3398841   7.4099988  68.4356213  31.8356752
   7.7895063  67.9501772  31.1031771   8.1296599  68.5285664  32.4599195
  44.4246864  51.2462521  24.1698027  45.0045538  51.3985491  24.9159861
  44.8374748  51.7169189  23.4457111  43.0260611  66.5934086  41.4282846
  43.0238962  66.6981459  40.4768324  43.6856031  67.2150517  41.7361784
  63.5525571   8.1661501  40.4241943  62.6548683   7.8740015  40.5824184
  63.9690005   7.4292173  39.9772620   8.0210072  72.7166939  32.5158143
   7.8375232  72.0954990  31.8110609   7.1573818  72.9950142  32.8206444
  13.0355537  55.0749588  43.7947845  13.9390099  55.2823639  43.5560799
  13.0097425  54.1186380  43.8266182  20.8203554  33.2669520  42.4645662
  21.7755532  33.3280754  42.4549341  20.5227089  34.1753674  42.5137663
  66.2359516  18.8515657   0.9348344  65.7649545  18.0267185   0.8164262
  66.6178993  19.0346378   0.0764465  58.6749588  15.1540174  16.8017209
  58.6513220  14.5571413  16.0537875  57.7855359  15.1309862  17.1547425
  14.0680087  76.5062857  25.7331038  13.6381292  75.7525682  25.3289461
  14.7455883  76.1247206  26.2912488  47.8943014  74.8926449   5.7938385
  47.2237492  75.4483128   5.3965694  48.6485863  74.9729013   5.2100176
  39.7792554  69.4040680  10.8030951  39.3217087  70.2334356  10.9410584
  39.1325498  68.7340260  11.0245526  70.7300615  75.9432173  31.6492844
  70.3985357  75.0893211  31.9270968  71.1965561  76.2795401  32.4144673
  61.0169827   3.5798158  13.5021651  61.8009721   3.4652319  12.9650784
  61.3141261   3.4172811  14.3974423  77.5235115  16.7363729  30.9411430
  77.3040806  17.6613798  30.8296156  76.8971859  16.2729063  30.3851318
  73.7365627  53.3214998  49.5863533  73.2397747  53.7748528  50.2674580
  74.5037794  52.9736423  50.0408888  25.7059921  55.1405378  63.4392906
  25.3004326  54.2917867  63.6164010  26.5918649  54.9263235  63.1467736
  52.6873398  61.1268520   0.3232304  52.6539469  61.3791370  -0.5995206
  53.3985376  60.4880095   0.3712859  58.2977139  14.5505418  30.7115841
  58.4229766  15.4682912  30.4701734  57.7784048  14.5829477  31.5150142
   3.5759454  19.9302950  31.4953589   3.9909177  20.6322279  31.9966793
   4.1233068  19.8369493  30.7156706  18.3197837  20.1181783  32.1756053
  18.3643966  20.9208669  31.6560602  18.4627299  19.4147482  31.5423656
  70.0733805  67.1997404  63.1315470  69.1314983  67.3698854  63.1433868
  70.1636553  66.3866234  62.6346302  84.1842937  77.5529051  24.6635175
  83.8571358  78.0929756  23.9441323  84.8684788  77.0139599  24.2664480
  53.4361206  24.9753751   1.5939808  53.7989150  25.2004614   2.4506883
  53.6026060  24.0372266   1.5023515  81.9380700   6.2515726   9.7581255
  82.3605095   6.8050470   9.1012841  82.6298033   5.6592931  10.0529683
  58.4790622  26.1392297  50.0939226  58.3578407  26.1962595  51.0417032
  57.9946791  26.8874826  49.7450495  55.5369626  11.2743368  45.3611088
  55.7000433  10.3791132  45.0641108  56.3671337  11.7289819  45.2184725
  50.8699560  76.8338919  69.5725584  51.5264177  76.2124920  69.8874426
  51.1953211  77.1128464  68.7166643  77.6514292  62.2764158  20.9165788
  78.1604052  61.9841719  21.6727304  77.9382896  61.7090464  20.2010107
  60.2418280  76.8476343  50.1309204  60.3989267  76.7275000  49.1943741
  59.7628069  76.0624790  50.3960752  30.0160098  74.4299698  33.8175559
  30.0581384  74.9615049  34.6124935  29.2421913  74.7517061  33.3550382
  56.1606394  17.7879228  19.3308842  56.6494762  18.2734289  19.9953794
  56.4215051  18.1882467  18.5014725  65.9174644  21.0307874  37.5901699
  65.4668962  20.2583685  37.2487259  65.2127444  21.6311731  37.8333473
  69.2225491  20.6369676  30.3471637  69.3610178  21.5827551  30.2966666
  68.6626850  20.5175008  31.1143088  68.5211836   9.0343752  20.6182671
  67.7757703   9.2776479  20.0692558  69.2226731   8.8392152  19.9969363
  55.5956888  67.8886223  34.0655828  55.5963850  68.8424301  33.9850926
  56.1096668  67.5847483  33.3174372  60.8242952  31.2964239  33.5981822
  61.0338293  30.5205240  34.1180944  59.9969469  31.6120329  33.9616609
  80.8309113  18.5656633  42.5258350  81.4550625  17.8439512  42.4497223
  79.9724184  18.1426515  42.5091124  71.6413116  60.7179022  46.8433666
  71.0262251  60.4371214  47.5209045  71.2009621  61.4475918  46.4076233
  69.9679708  77.8870964   1.8578102  69.7782135  78.7366247   1.4596573
  70.1792192  78.0913687   2.7687877  77.3774468   5.9526434  12.5213647
  78.1522309   6.3755502  12.1511066  76.6445195   6.4896383  12.2202229
  14.3121386  29.2928219  48.1705475  14.4505954  29.6962547  47.3136330
  14.2995489  28.3522701  47.9932451  68.9050137  26.8392744  45.4803514
  68.4172760  27.6548662  45.5950689  68.3812009  26.1807527  45.9366369
  15.7443966  23.2005974  67.1277030  15.9418739  23.7038132  67.9176468
  16.3700498  23.5201021  66.4775426  27.9551625  62.3980713  25.0466347
  27.5864100  61.6454315  25.5090046  27.6693344  62.2857666  24.1400361
  82.4057804  23.9492788  18.7983310  83.1396567  24.2389669  18.2563627
  82.3222624  23.0147638  18.6087346  36.0136724  62.5070190  34.0091062
  35.9881449  63.4000635  33.6655092  36.6163802  62.5530863  34.7513008
  32.7379942  66.9301701  39.8573780  33.3879519  67.4177694  39.3513823
  32.9849410  67.0781422  40.7702637  71.0568415  10.0208177  35.4446888
  71.4901053  10.0376787  36.2980533  70.1315962  10.1652136  35.6429386
  48.7976313  77.8785849  45.8418417  49.4977903  78.4713459  46.1150408
  48.9970589  77.6776934  44.9274540  15.7652200  37.7943464  66.8314839
  15.3585065  36.9374271  66.7030261  15.6004013  38.0022474  67.7511818
  27.5313902  65.9720516  54.7535515  27.6768780  66.3559771  53.8888741
  28.0424356  66.5209103  55.3483772   4.8826221  54.3883705  57.2073364
   5.8082241  54.2016649  57.0503855   4.6676677  53.8885927  57.9948950
  62.9767500  14.3375864  43.4419346  63.6933814  13.9395609  42.9477215
  62.9727088  13.8695516  44.2769003  46.3428640  52.1627188  55.1781511
  47.0642614  52.7498722  55.4041243  46.3981724  51.4565325  55.8219481
  46.6432381  53.1659126  34.6396637  46.1196613  53.9667892  34.6660185
  47.2739077  53.3151340  33.9352369  24.7246027  76.5643549  18.3843911
  24.5805120  77.3402929  18.9260483  24.0409636  75.9520721  18.6563849
  31.4903092  56.4653921  18.5985231  31.0318112  55.8496046  18.0268443
  32.3271585  56.0403299  18.7862432  77.6916456  61.5465975  33.2610798
  78.1385326  61.0785294  32.5557852  78.1729078  62.3697662  33.3447719
  49.9901819  63.0643797  32.3887372  49.2374945  63.6451960  32.2776389
  50.3619432  63.3132935  33.2349443  38.3680844  67.1102333   1.1232436
  38.5806108  67.8093863   1.7415079  38.0669928  67.5679445   0.3383375
  21.2000661   7.5061025  16.5088260  20.5704074   8.0120554  17.0224178
  21.2625747   6.6671934  16.9655037  74.2256009  24.0782728  61.7409945
  73.9880740  25.0053968  61.7570543  73.6705338  23.6772051  62.4097824
  79.3888937  30.6749334  42.7527571  79.8433434  31.4499941  43.0828810
  78.4938847  30.7644739  43.0801296  80.4238879   3.2696142  30.1008749
  80.6604086   3.3241644  29.1749620  79.5925795   3.7399282  30.1638341
  25.4307365  72.2061634  34.7509742  26.1205196  72.0720720  34.1010118
  25.7651019  72.9038286  35.3146172  68.8778101   6.9291010  26.2478495
  68.4004341   6.8533888  25.4216456  68.9989697   6.0250749  26.5381765
  13.4065688  48.4806490  18.8558674  13.1899607  47.5525904  18.7663484
  13.3573556  48.8251781  17.9641783  76.4504385  68.3234262  48.4257889
  76.8862724  68.5804653  49.2383242  76.1526203  69.1483831  48.0424070
  60.2682066  77.8477859  17.4131203  60.2210474  78.7762785  17.1853006
  60.0242615  77.3909569  16.6081142  76.0219145  76.4469910  32.5590086
  75.1859379  76.2125158  32.9619884  76.1335516  77.3757219  32.7620673
  43.1897174  62.9379872   3.3220481  43.9720260  63.3760194   2.9868602
  42.9777407  63.4095887   4.1275834  18.5752761  65.7760715  18.3978546
  19.0148771  65.5654764  17.5740623  19.0902245  66.4932489  18.7676072
   1.7668300  14.8089018  12.7277768   2.5613027  14.2781725  12.7858508
   1.0733991  14.2392816  13.0608308  74.7911882  70.5303192  48.3053637
  75.2439928  70.9428692  49.0408897  73.9179611  70.3310585  48.6430025
  47.5694370  76.0412550  52.4931908  47.9344034  76.9151163  52.6324415
  47.7447653  75.5753899  53.3107853  35.3763403  59.3316122  62.0354695
  34.4291366  59.2372938  62.1361828  35.4948200  60.2234598  61.7086524
  68.2276440  64.9421787  31.9082332  67.8989363  65.4608774  31.1739779
  68.6351252  65.5831051  32.4908185   0.5583863   9.2753400  47.0990419
   0.6199794   9.6514597  47.9770899  -0.3746409   9.3107118  46.8882370
  41.7464972  78.1612206  46.3210201  42.3794794  78.8360071  46.0756111
  42.0425749  77.3761702  45.8603001  11.4393878  49.5361853   0.1480122
  11.1321294  49.3346643  -0.7358503  10.8835256  49.0080833   0.7210395
  31.5948653  78.3309031  61.9386625  31.7383838  79.0819788  61.3628864
  31.6000795  77.5747490  61.3517714  43.7569284  68.6991930  21.1595201
  44.4600868  68.6128807  20.5158186  42.9969692  68.9772177  20.6482482
  58.0988156  17.3325529  10.2928650  58.2234680  17.6932897  11.1706817
  58.9411532  16.9327631  10.0763702  77.6874958   6.5449609  40.7324886
  77.6146971   6.2759962  41.6482306  78.3524548   7.2334661  40.7372141
   6.3150133  19.6447273  47.0501209   5.7328213  19.6922346  47.8084255
   7.1458615  19.3290325  47.4054528  46.0597991  27.8166093  43.1811047
  46.1578118  28.5102453  43.8334036  46.2122451  27.0067014  43.6679697
  29.1167474  71.7337799  23.8347626  28.7517333  71.2813330  24.5952177
  29.2925477  72.6217413  24.1459727  55.9353291  16.6630449  14.0481222
  56.7692171  16.6982832  13.5794878  55.2739869  16.8077268  13.3714211
  71.4179980   1.3529482  19.4117677  72.3034130   1.4962473  19.0774906
  70.9754740   0.8658685  18.7166727  22.5561047  68.2761335  14.8284769
  23.1370044  69.0317726  14.7401631  22.1388459  68.1932878  13.9710021
   0.7133203   2.3476305  62.8774166   0.0118213   2.2989931  63.5268545
   0.4324536   1.7588606  62.1769238  60.6236564   5.5517473  23.4179831
  61.2705242   4.8505678  23.4963632  60.3141581   5.4921522  22.5141621
  29.8381710  76.1199856  21.8054724  30.6298852  76.0711527  22.3412275
  29.7447586  77.0502806  21.6003847  51.8473864  71.8282318  36.8488097
  52.7856588  71.6391373  36.8596339  51.4684725  71.1299419  36.3149118
  75.8871508  46.1581135  64.3235970  75.0514126  46.3857889  64.7309542
  75.6580448  45.5212879  63.6466932  34.5921135  68.4322882  12.7917516
  35.0956225  68.3080721  13.5962892  33.6852241  68.2655430  13.0486119
  49.4363070  58.6046457  33.6888051  50.1165581  59.1620731  33.3109641
  48.6892462  58.7051439  33.0988574  81.9130169  17.5761308  30.1147127
  82.6078497  16.9670286  29.8648357  81.2392794  17.0221986  30.5090117
  11.7647684  21.8288016  20.0838661  11.0851073  21.1752725  19.9189663
  11.5491390  22.1865439  20.9451199  18.9700496  67.4094868  33.1512427
  19.0942788  67.3827648  32.2025156  19.8246193  67.1724606  33.5114694
  56.4936066  56.0392904  47.8758526  57.0908833  55.8570862  47.1503925
  55.6600857  55.6567860  47.6017046  41.1200666  58.3626699  23.4105825
  40.4994011  58.0307198  24.0592837  40.6897354  58.2128859  22.5687885
  33.9322400  52.8806019  15.7487035  34.7978592  52.6223421  16.0653055
  33.9240313  52.6138878  14.8294497  74.3127441  66.0782862  11.1432767
  74.6415234  65.7230997  11.9690943  74.7060871  66.9488859  11.0835099
  36.3843918  75.2627563  35.3573394  37.0052290  74.5413589  35.2555060
  36.8339229  76.0202980  34.9827933  62.1860790  79.9830770  18.8326418
  61.8297529  80.6508350  18.2466638  61.4352894  79.6944475  19.3515241
  71.5740668  24.2957964  48.4587240  71.0218750  25.0772276  48.4325075
  72.2614085  24.4665136  47.8147936  41.6117417   1.3469400  20.2684331
  40.7018863   1.0585966  20.3409100  41.5575444   2.2097864  19.8575926
  37.4671698  71.4117289  15.4072583  36.5416288  71.5531158  15.2082193
  37.7636051  72.2452593  15.7727551  59.4900309  21.6805830  58.2275724
  59.9095618  22.0066633  57.4313974  59.5111309  22.4234190  58.8308811
  41.8592024  74.5508289  24.8087955  41.8919230  75.4625607  24.5191240
  42.2085524  74.0521669  24.0701985  18.2639135  34.8271938  48.7224508
  17.5363315  35.4119392  48.9344168  18.6533226  35.2054354  47.9340768
  30.4465413  77.6747036  50.1817369  29.7474456  77.7222300  50.8338404
  30.2215934  76.9151974  49.6443558  41.6060734  59.3236399  17.0175278
  41.2676811  59.9809933  16.4095724  41.0796976  59.4359684  17.8090715
  52.4718987  22.1479883  67.3844814  53.0815803  22.2894277  68.1087160
  52.9343974  22.4779596  66.6141319  25.5060045  44.8058075  19.8009395
  25.3761856  45.7449383  19.6689414  26.3876764  44.7349972  20.1668262
  72.0796620  34.4634046  49.9059725  72.8700959  34.9443903  49.6608257
  71.3592326  35.0198164  49.6099758  20.8304071  50.4073954  31.5708518
  20.0017023  50.5668831  32.0225644  20.6536865  49.6564054  31.0042644
  63.9897095  27.7657499  33.6074209  64.9279128  27.8093042  33.4227395
  63.7729751  26.8367376  33.5286999  18.3885884  76.8504953  42.7085400
  17.9409099  77.6888132  42.5943422  19.2810571  77.0879078  42.9602718
  58.4126555   9.9199857  27.2476220  58.7530481  10.1705637  26.3888025
  58.5368835  10.6982317  27.7908850  84.7012547  40.1902246  32.4737000
  85.0389443  40.8563566  31.8749833  84.8713925  39.3599463  32.0288157
   5.1944404  22.0863046  23.0049634   5.1773839  21.1383142  23.1363344
   5.1780133  22.4510564  23.8897896  45.3075231  66.6837450  68.9057689
  44.4066204  67.0003362  68.8396055  45.7940973  67.4211927  69.2740828
   5.8965100  28.9037510  56.8146527   6.5812601  29.5036312  56.5188599
   5.1475872  29.4693228  57.0029998  58.2406389  12.6274385  48.8911486
  58.9475428  12.7920046  48.2671022  58.4973251  11.8198766  49.3363380
  51.9879877  21.9082918  21.5146279  51.4371311  21.5360250  20.8259988
  51.6688239  22.8047456  21.6182494  16.1669755  40.2589321  40.9283590
  15.7262647  39.4093037  40.9401703  16.5018392  40.3674459  41.8184805
  39.2756963  54.2799234  32.9489899  39.4982529  54.9042892  33.6395454
  40.0638390  54.2300367  32.4080920  24.7361135  65.3180408  26.8900299
  24.1481876  65.9850025  27.2446203  25.6040430  65.7200527  26.9263887
  43.1432390  70.3256178  23.9570594  43.5688257  71.1566448  23.7461114
  43.8114262  69.6630383  23.7817192  77.2538996  59.4470835  16.8858194
  76.5911245  59.8184013  17.4681306  78.0435133  59.9574709  17.0653760
  55.4270660  75.6248979  10.4470920  55.2093159  75.4842881   9.5256519
  56.3192021  75.2896671  10.5362224  17.9322910  65.6310511  44.2285490
  17.1183741  65.2546692  44.5633793  17.8230333  66.5754557  44.3398523
   5.9752660  13.5078516  37.5399971   5.0482850  13.5502805  37.3051929
   6.1671548  14.3677320  37.9141903  67.7010118  18.5495844  41.6598415
  67.9268752  18.6385145  40.7339334  67.6044785  17.6066675  41.7933416
   8.6673301  60.5001116  42.0557785   8.6867428  60.6186628  41.1061478
   7.8224117  60.8605385  42.3249245  70.9776545  76.3072491  40.5363894
  70.5562162  75.4953098  40.8181190  71.8662834  76.2502193  40.8875656
  32.5833249  76.5465689  31.1412621  32.7772450  76.8565798  32.0258641
  32.9522347  75.6638479  31.1105728  26.3087074  13.9407390   7.7104425
  27.1815053  14.1444105   7.3743295  26.3417284  13.0054849   7.9115438
  56.1838089  13.5336485  19.4593811  56.1650049  13.0134477  18.6560977
  55.5063974  14.1975679  19.3306923  80.3914486   0.6904974  30.9688234
  80.4736887   0.3482046  30.0787115  80.4481017   1.6405096  30.8662891
  30.4726934  71.7816925  49.6156073  31.1242867  71.2364054  49.1747904
  29.6996927  71.7331219  49.0531635  16.9443421   2.7475538  44.4144154
  16.7154555   2.5338926  43.5098743  17.3781543   3.5988702  44.3570089
  60.1979876  62.3157358  50.5188322  59.9305820  63.1345558  50.1013947
  60.8525038  62.5792503  51.1656666  12.7414041   0.3366556  27.0245337
  12.4117189   1.0203066  26.4412951  13.0286842   0.8073415  27.8069401
  50.5638243  68.2853838  57.0248426  51.2998075  67.8754564  57.4792874
  50.7808585  68.2046839  56.0960711  59.7034561   4.7675981  61.8489552
  58.8577472   4.3279066  61.9365978  60.1243912   4.3316736  61.1079979
  56.4502322  19.8479547  33.7030959  57.1615397  19.2105665  33.7663865
  55.6851159  19.3291464  33.4547758  38.8272715  77.5633240  40.5130482
  38.5901213  78.4531212  40.2518034  38.6505055  77.0308542  39.7375107
  51.2212229  70.7231426  60.2190685  51.4256763  71.3039589  59.4862080
  50.5488062  71.1905050  60.7147074   2.3306006  80.1414585  12.0352256
   2.5063151  80.6206512  11.2254572   1.5440577  79.6301508  11.8450892
  59.2493163  17.9213228  16.4517462  59.7348820  18.0132665  17.2715056
  58.9837538  17.0019045  16.4324927   8.8696628   9.6417036  47.1179771
   8.2218986   9.1179266  47.5894547   9.3537240  10.0994386  47.8052855
   1.7629827  24.8246237  64.1314930   1.8150581  25.2811380  63.2917828
   0.8966912  25.0477119  64.4720787  81.7908226  34.8508634  35.1687312
  82.0172106  34.8869600  34.2393899  81.2554394  34.0620222  35.2543616
  31.0018396  68.0538130  38.1215739  31.4291167  68.0612230  38.9780855
  30.6137562  67.1813440  38.0550528  22.7434206  72.6160240  26.1988020
  23.5732222  72.1593094  26.0606885  22.2119975  72.3826408  25.4376507
  10.1015859  12.4698534  14.8516798   9.5104365  11.9978037  15.4381442
   9.9277787  12.0985784  13.9867103  52.3074685  42.5835981  58.7361526
  51.9771396  41.7397394  58.4278870  53.2433759  42.5618257  58.5365582
  11.3582934  42.9788633  59.4369805  10.7281173  42.3353430  59.7610009
  10.8632530  43.7968298  59.3911684  22.1541166  73.9934111  32.5634122
  22.6713037  74.5942688  32.0270157  21.4326930  73.7249184  31.9944739
  56.1363220  67.3202324  47.8050852  56.6040707  67.8564739  47.1648645
  55.8110952  67.9474306  48.4509039  44.3141745   2.0050802  13.2897282
  44.5425092   1.7098035  14.1711497  45.1344346   2.3431291  12.9303813
  11.7586112  51.2382317  26.1642647  12.2255933  50.6838083  25.5391455
  10.8689535  50.8853674  26.1793709  65.9332358  26.1225595  35.7945991
  65.0121127  25.9125986  35.9484768  66.3910233  25.7630243  36.5544653
  56.5781403  79.1427326  43.9804077  56.0096693  78.7374973  43.3255386
  57.2154236  79.6411562  43.4688616  26.8364513  25.0530328  63.9052296
  26.2884497  24.2729654  63.8190222  27.7081839  24.7643842  63.6350441
  40.2937841  64.3724251  24.4492292  39.5171738  64.7208071  24.0113497
  40.2136755  64.6734047  25.3543401  29.0070891  65.3788900  41.0234118
  29.7070932  65.4223156  40.3719950  28.2010603  65.3556395  40.5076504
  72.7192688  34.7084737  61.7235756  72.4836826  35.5985832  61.9851875
  72.6096153  34.1879940  62.5193834  53.6063099  77.7984333  30.3714657
  53.3559275  77.3537016  31.1812544  52.8719568  77.6449394  29.7769952
  53.2277584  65.6637049  54.7834158  53.8697815  66.3076019  54.4843531
  52.4524736  65.8319235  54.2478132  13.4226823  63.8377857  68.2363987
  13.2277811  64.7648001  68.3738279  14.3779850  63.7866116  68.2681608
  30.6915105  28.6391302  52.5666154  30.6302227  27.7732607  52.1631957
  30.4563583  28.4935947  53.4829975  60.2892303  67.0150423  51.9758654
  60.2528381  66.9598579  52.9307795  61.2027121  66.8277216  51.7597675
  59.0956961  28.9225950  29.7032070  58.5267030  28.9899721  30.4699802
  58.6245262  29.3900671  29.0134954  49.9540960   9.3075742   9.8844510
  50.3270184  10.1088895  10.2519476  50.5605041   9.0592470   9.1867143
  17.2638667  72.0441389  51.5676546  18.1348300  72.3971128  51.3858223
  16.7361784  72.3085022  50.8140659  57.0454704   2.6629438  10.6335258
  57.8096377   3.0512800  11.0595238  57.4082409   2.1540537   9.9085033
  24.6665716  58.6753273  20.5478764  24.9653006  58.8225460  19.6504796
  25.1633239  57.9124069  20.8435512   8.5268598   3.3398523  46.5228510
   9.4588428   3.5579004  46.5132999   8.3409648   3.0439367  45.6317282
  78.3810173  24.1851797  34.1543102  78.2681309  25.0450887  34.5593524
  77.7699839  24.1854086  33.4175134  76.9132983  10.9483137  60.2327394
  76.3668620  11.1248865  59.4669342  77.6573359  10.4549303  59.8874474
  63.7187767  62.6399469  28.3245349  63.1486320  62.7354479  27.5616169
  63.1339025  62.3543501  29.0263796   8.1709939  51.2956572  35.7594514
   8.8462794  51.7388153  36.2731004   8.3881760  51.5012836  34.8501778
  29.3485236  20.2154436  24.2006564  28.9568145  21.0712423  24.0262604
  28.9097085  19.6224107  23.5907507  25.5182544  28.8735002   2.0896386
  25.9235279  28.0996460   2.4809598  24.5773689  28.7236589   2.1818876
  79.1785310  31.8943304  13.7930202  78.2659076  32.0406479  14.0419101
  79.2390726  30.9499544  13.6490726  34.8563337  73.8607264  43.4817123
  35.8081770  73.9615965  43.4746456  34.7064614  72.9783821  43.1422377
  52.3397528  24.3951406  10.4924071  52.6306950  24.9701681   9.7846389
  51.5325247  23.9997949  10.1633012  53.8624954  58.2637596  47.6942062
  53.8677406  57.6355982  46.9719744  54.3065166  59.0357780  47.3434067
  35.4473472  80.4111290  27.7785301  35.1286411  79.5086241  27.7665615
  35.9193683  80.4874706  28.6077452  81.2441718  54.7032537  35.6349063
  81.6874777  55.5500688  35.6860328  81.8766772  54.1273393  35.2053785
  84.0943705  13.3077707  40.5942774  83.6199986  14.1241541  40.4370070
  84.9264799  13.4220113  40.1351833  79.1097962  12.5089731  56.8718815
  78.2820546  12.9650011  56.7198372  79.5982252  13.0879297  57.4571037
  66.7231475  24.0991201  17.9938757  67.0494043  24.0801992  17.0941925
  66.4822303  25.0135698  18.1421065  52.7579260  64.2966032  11.4243352
  53.3294821  64.5447493  12.1509576  51.9833040  64.8489952  11.5294814
  62.8218614   5.9604826  46.4976168  63.7660157   5.9688272  46.3403416
  62.7036058   6.5071287  47.2744226   3.6952914  30.2946993  59.6850402
   2.9880990  29.6499868  59.6636773   3.7769164  30.5908104  58.7784589
  71.8365656  29.2934503  34.8346710  71.6444336  28.3827104  35.0580001
  71.3280665  29.4577112  34.0405226  74.5237862  22.5012865   3.8722682
  74.7949921  23.1048860   3.1806499  74.1709792  23.0669775   4.5591110
  48.7862301  73.0275393  35.7168198  48.2858562  72.2118902  35.7408619
  49.2210770  73.0669594  36.5686345  60.9751558  69.4387102  18.9247537
  60.1585388  69.6591806  18.4766853  61.6629601  69.7263813  18.3244216
  74.1901671  12.6864233  17.5923085  73.9192521  12.6178827  18.5078073
  75.1467358  12.6963224  17.6256943  62.4879276  27.4319067  18.6889756
  62.4386369  27.1327009  17.7810788  61.6621887  27.8937807  18.8341081
  48.4526634  70.0579453  10.6415033  48.0725908  70.8122969  10.1912522
  48.0621576  70.0787497  11.5151775  77.2965275  12.6730909  25.9925723
  76.5691220  12.8320970  25.3910470  76.9161545  12.1441831  26.6938591
  82.8788662  77.8286076  43.0472374  83.8164234  77.7891207  43.2361174
  82.6795959  78.7643862  43.0182409  21.0839194  75.5103254  49.5810127
  21.8997020  75.0805140  49.3241072  20.4146212  75.1013184  49.0323925
  11.3331813  79.3516445  37.9935718  10.5497664  79.8187780  37.7032590
  11.3176459  79.4277382  38.9476156  11.1836566  49.1940637  67.6508718
  11.4736546  49.3193861  66.7473075  11.8875898  48.6914106  68.0608130
  76.0190153  70.0775385  43.1335592  76.5841770  69.9755859  43.8993454
  75.4832506  69.2843866  43.1239843  31.6134418  38.1388756  68.2922008
  31.7166484  38.8670250  68.9048776  31.9076742  37.3706051  68.7815098
  13.0792392  30.6414028  38.8311244  13.9074100  31.0825487  39.0202094
  13.1315292  29.8165699  39.3139840  81.7409439  49.7540136  69.7371143
  81.2427349  50.5691095  69.7973376  82.2050185  49.8180719  68.9023916
  50.8223486  62.3084402  20.8294678  50.1148987  61.8363667  21.2686706
  51.4178467  62.5588274  21.5358090  52.9964786   1.4648142  41.8801403
  52.9096847   0.5575361  41.5876722  53.9411311   1.6121854  41.9264889
  73.7721491  72.0864916   3.6906949  73.3890438  71.6014957   4.4216093
  73.1382895  72.7791309   3.5043946  56.5051174  62.2820520   2.0503406
  56.5341616  62.2396851   3.0061615  55.6837368  62.7332497   1.8554407
  80.9452724  75.9703684   5.0287616  81.4959717  75.6109619   5.7243121
  80.7322884  75.2167511   4.4783697   2.9055028  27.6151933  62.6904869
   2.6806073  26.8962087  62.0999670   3.8264804  27.7984419  62.5048685
  40.3010178   3.4926544  59.8809624  39.6513391   3.3767925  60.5743063
  39.9148750   3.0644451  59.1169203  62.4299240  74.5564795  50.8757401
  61.6544819  73.9968443  50.8340931  62.2896719  75.1029348  51.6490126
  57.8525001   8.8747871  10.6218839  58.8090736   8.8626492  10.5895030
  57.5799853   8.4357196   9.8161626  64.8450381   3.7487572  38.3609581
  64.3882400   2.9328641  38.5656190  65.7049185   3.6509159  38.7699389
  14.7181381  73.2185064  34.0949082  13.9079441  73.3494786  33.6023021
  15.2762140  72.7093635  33.5070682  78.6757941  80.0840744  21.3847589
  77.9996748  79.5078874  21.0282421  78.1890626  80.7934171  21.8044710
  15.1824903  21.5538383  22.4799871  14.8046374  22.0294905  21.7402482
  15.9305513  22.0863843  22.7502322   9.8323804  24.9184346  44.5608473
   9.1481209  25.2380157  43.9727211  10.1490879  24.1159749  44.1461372
  13.4023857  19.2024231   9.3919474  13.5595119  19.0069807   8.4681809
  14.2262185  19.5797479   9.7004247  25.7484346  69.3621665  64.9801496
  25.8306118  69.3173534  65.9327621  25.3030854  68.5497194  64.7396821
  35.4715443  32.5452900  22.2764754  34.9363089  31.8395948  22.6394510
  36.3354278  32.1517777  22.1536589  73.9516252  53.7819862  38.3990955
  74.0580529  53.2068729  39.1568232  74.6763831  53.5498238  37.8185272
   6.6121972   8.5169828  17.8387427   6.0601920   7.7387029  17.9149175
   7.2989285   8.3885252  18.4930587  17.2016370  15.4846382  26.9287109
  16.7757320  16.2012088  26.4582181  17.1887350  14.7523654  26.3123989
  82.1332569  74.6880875  10.9100652  82.0477290  75.2163158  10.1164079
  82.2203560  73.7896399  10.5915725  57.9404783  31.0266423  10.5483508
  57.5416613  30.2929473  10.0805175  57.2184801  31.6375542  10.6957996
  18.4557772   0.5120768  52.3649502  19.1006732   0.0638520  52.9121590
  18.5476911   1.4366628  52.5950050   6.4573306  40.5574560   1.3664015
   7.1434051  39.9123001   1.5375954   6.9224215  41.3109112   1.0027716
  70.5698271  74.8620997  29.0429735  69.8630030  75.1805494  28.4815288
  70.4900772  75.3787951  29.8447824   5.5739218   7.0219117   3.0555943
   5.4479468   7.7059901   2.3980238   5.7383341   7.4989438   3.8690072
  79.0461218  28.7554073  40.9575367  78.9093477  29.4164109  41.6362143
  78.9492309  29.2338824  40.1341867   4.7551233  32.3227596  42.3299217
   4.4344389  33.2175112  42.2167206   4.1171318  31.9116616  42.9131842
   5.0433111  72.4768496  57.0141983   5.2141970  71.5759468  57.2887945
   5.9048498  72.8939533  57.0115900  65.1620418  18.1565368  22.0098424
  65.9229559  18.6384666  22.3338556  65.4487175  17.7908218  21.1730003
  39.9711473  59.6345888  19.2243278  39.2772109  59.1802631  19.7021055
  39.8025818  60.5633960  19.3828702   7.0995535  64.9107144  21.8415141
   7.4203480  64.3801413  22.5707722   6.8515767  64.2729352  21.1722040
  58.2958445  14.0105720  59.2580176  58.6736416  13.8912721  58.3866573
  58.6640375  14.8381658  59.5674539   4.2604807  21.9069362   9.1543823
   3.7206787  22.5145769   8.6487961   4.8316160  22.4709201   9.6758783
  82.7913527  29.9842715  15.2628970  83.2551768  29.3077660  15.7562947
  81.8650258  29.8083186  15.4277933  23.4908594  78.0061455  50.1861525
  23.4406484  77.0518834  50.2417850  23.9399875  78.1744722  49.3577957
  73.3734936  24.0358281  24.1626406  73.5431916  24.1125607  25.1015496
  72.4284488  23.8969946  24.1006160   6.8987209  33.5347390  48.9392471
   7.1792144  33.8735700  49.7893953   7.0016104  32.5860047  49.0137529
  58.5940989  48.6624777  47.8597212  58.3704432  48.8161027  48.7776590
  58.9850458  47.7887934  47.8514362  17.1394861  19.8624730  47.0121765
  16.3110328  20.1449847  46.6247702  16.8834174  19.3655038  47.7891445
  65.0917918  50.9587431  17.0194459  65.5357450  51.4493561  16.3277543
  65.0854665  50.0545263  16.7054772  25.4106641   9.3735635  34.0455866
  25.7197404   9.4632626  33.1441116  25.0301218   8.4960186  34.0821147
  59.6602834  71.7177711  38.6334968  59.1676269  72.2839324  39.2276192
  58.9917750  71.1919836  38.1943202  13.7651086  11.8697929  31.3471007
  14.2818880  12.1493673  32.1027517  14.1913009  11.0659873  31.0496283
  12.0266902  44.6330643  24.7956228  12.2252703  44.1225624  24.0106511
  11.2825811  44.1810608  25.1934004  76.5688116  68.5574899  35.7680178
  76.0531897  67.9081235  36.2462306  75.9271164  69.2047880  35.4756784
  21.1407638  17.0390522   0.5546304  21.8913484  17.3358464   0.0400762
  20.3798652  17.2591400   0.0172020  35.7957306  43.6606285  63.6261804
  35.5102249  42.7500647  63.5514016  36.4347389  43.6535233  64.3388159
  78.1805658  21.1103487  14.3167412  78.9986932  21.3975525  14.7222221
  77.8000158  20.5018878  14.9501371  11.2880158  35.4798818  49.9554443
  12.0155931  35.9678936  50.3410721  10.8398700  35.0865459  50.7042360
  84.5589274  16.5338337  10.2156067  85.4669308  16.2544036  10.3325713
  84.5345491  17.4230373  10.5690944   3.5698304   1.5267453   3.7592727
   3.6457235   2.0342737   4.5672867   4.4743806   1.3804244   3.4824857
  56.4054680   7.3992109  33.0058217  57.2623253   6.9946051  33.1411719
  56.1851120   7.1951360  32.0969605   8.8274795  47.9699898  11.7173409
   8.6063212  47.9876852  10.7862079   8.0053556  48.1748867  12.1627188
  32.5154781  32.4720907  15.2170098  32.1485090  31.9246840  15.9112060
  31.8464041  32.4713588  14.5324886  24.9006128  10.1150239  20.1880550
  24.7547436   9.1710871  20.1253104  24.1473603  10.4415929  20.6801867
  18.8295603   8.5575742  17.7669954  18.2174659   9.2789990  17.6216710
  18.5957801   8.2152307  18.6297691  58.1568289   5.9154797  29.8029661
  58.6067295   5.1135898  29.5368910  58.5606718   6.6034728  29.2739987
  78.0497641  66.4576433  11.2983024  77.5909347  66.6890512  10.4907393
  78.2568927  65.5284927  11.1982620  23.7000012  36.9939208  20.4926562
  24.1424441  36.3820624  21.0809660  24.3753481  37.6297712  20.2563643
  41.5606304  75.3415185  62.2934622  42.3781928  75.8058697  62.1140171
  41.8347438  74.5310360  62.7226645   8.6446398  40.8816767  47.7882195
   9.3911052  40.5590677  48.2931423   7.9344612  40.9481430  48.4265471
  80.8201742  57.8798246  37.3325777  80.8604878  58.7022257  36.8444586
  81.6752136  57.8112602  37.7573586  18.5746813  28.1745720  10.2392185
  19.4770896  28.4902644  10.2864361  18.4439671  27.6992846  11.0597348
   8.4090298  31.2007022  22.5089288   8.4932238  32.1311879  22.7171016
   7.4677885  31.0634208  22.4019170   0.4741237  53.9332676   4.9664637
   0.4042955  54.4115162   4.1402480   1.3124880  54.2122841   5.3346008
  64.4110473  54.0162593  66.6790108  64.2600282  54.8655099  67.0939807
  65.0760444  53.5975176  67.2255137  55.1390251   9.5795757  50.7757438
  54.5278319  10.2715689  50.5231143  55.6590327   9.4200140  49.9881125
  46.1749220   3.3703414   9.7957551  46.2922812   3.8881445  10.5922091
  46.9989777   2.8935811   9.6964335  35.8439517  41.3631058   1.5271765
  36.5874910  41.5282202   2.1069360  36.1695266  40.7200480   0.8973273
  81.8958468  66.0963474  43.9043331  81.1305685  65.6069122  43.6026096
  81.9270511  65.9346805  44.8472643  41.8379736  40.8203983  22.5746250
  41.2173843  41.4299202  22.9741049  42.6778030  41.2785625  22.6063299
  17.0945454  61.1600351   5.4013091  16.4825380  61.8400908   5.6827348
  17.7868414  61.6358328   4.9424264  25.6782103  20.5089211   1.0556196
  26.4445114  20.0060105   1.3314715  24.9554706  20.1433325   1.5657410
  34.2446699  75.3138953  68.4855860  34.1370686  74.4942266  68.0030966
  33.8055923  75.1589447  69.3219068  49.4889482  55.2416831  61.4379907
  50.0286802  55.5892521  62.1480042  49.7178157  55.7777280  60.6787098
  78.4829837  57.2930241   1.8093298  78.9775485  56.5080023   2.0446476
  77.8253478  56.9839811   1.1862410  21.2750721   5.7619601  10.0271547
  21.5446043   6.4629471   9.4336885  22.0740199   5.5274230  10.4992878
  10.0404155  69.6384287   0.3599653   9.8195744  69.5578766   1.2878515
   9.2661119  70.0375509  -0.0367532  76.1474746  42.2440290   2.0293291
  75.6046522  41.6433191   1.5187149  75.5390567  42.9181147   2.3320925
  80.3239709  51.3355780   5.7517534  79.6252942  51.7682886   6.2425131
  80.9972057  51.1502552   6.4064604  63.1135281  64.4056421  67.8100713
  62.6468285  64.0497333  68.5662142  62.7801999  65.2985412  67.7214197
  31.6988015  37.3340344  28.1025934  31.6247869  37.4404287  27.1542096
  31.1234403  38.0078149  28.4648228  75.8295089  49.9516869  48.8094378
  76.0263276  50.7412958  48.3054399  75.6135541  49.2935133  48.1488276
   3.7251112  36.2170672  36.5849066   3.0439061  36.7692184  36.2010789
   3.2650244  35.6861997  37.2350836   9.4367325  11.1049342  12.3559761
   9.1814011  11.2617421  11.4468837   9.0054065  10.2823639  12.5874221
  69.7418594   2.2183479   0.7015300  69.4250822   3.1211016   0.7318843
  69.1965675   1.7517525   1.3349186  30.1348019  30.4632020  49.6605206
  30.7904506  31.1584854  49.7147036  29.6090627  30.5674314  50.4535961
  33.5868144  19.1017914  35.9623003  33.5699606  19.6645689  35.1882005
  34.2452431  18.4368992  35.7607460  64.9039465  13.2656288  17.9125905
  64.8898822  13.4919655  18.8425398  64.7926241  14.1021168  17.4607873
  72.2531313  26.9029188   9.5194972  73.0481511  26.4766240   9.1994244
  72.5524277  27.7490330   9.8522782  41.4992126  62.4089938  61.0294873
  41.1520728  63.1015330  61.5917296  41.8055519  61.7370683  61.6385055
  74.1605694  71.7096976  45.9478998  74.1722627  72.6273606  46.2199116
  74.3108339  71.2185321  46.7556190  23.1934333   1.1015166  24.3394160
  23.4500265   1.8210201  24.9162221  23.8279390   1.1306702  23.6233258
  83.5788269  68.2127259  13.4998715  83.0263085  67.8731356  12.7958596
  83.0337281  68.8662181  13.9381015  19.0906966  55.0388241  29.4422626
  18.6644506  54.5449162  30.1426911  20.0150609  54.7992659  29.5085454
  34.1011429  49.4645929   5.7336593  34.8490357  49.7298813   6.2689263
  34.3141627  48.5761881   5.4480165  79.7188916  64.9172121  52.2156716
  79.1094293  64.9978858  51.4819956  80.1024022  65.7896143  52.3054994
  30.3153634  31.1427999  45.6712866  30.7105064  31.1106873  46.5425253
  30.7054329  31.9139290  45.2596521  80.3502741  41.7439175   1.9040093
  80.8551416  42.4405575   1.4844477  80.7589984  40.9342861   1.5979502
  49.0233315   7.6284834  60.8335615  49.7122348   6.9644972  60.8613033
  49.4823004   8.4410663  60.6207514  32.2929978  25.4096079  19.6260583
  32.3210406  25.1211500  18.7137878  32.5261879  24.6305013  20.1308846
  66.6955980  57.1393365  51.7972446  65.7541069  56.9670325  51.8088365
  66.8667420  57.5903636  52.6239944  79.5832247  46.2301397   2.2340396
  79.3301600  45.3071880   2.2528680  79.2393446  46.5558577   1.4022434
  46.3513041  57.1185017  17.5450087  45.6252909  57.6956224  17.3082316
  45.9835291  56.5285397  18.2029760  25.6379395  75.8355647  45.8501745
  26.1218268  76.1708885  45.0954271  25.6393500  76.5594488  46.4764500
  16.2021482  24.2288494   0.5534816  16.2131345  24.9800920  -0.0396019
  16.9091785  23.6652780   0.2392755  77.5863004  53.0843115  20.7606649
  77.2952974  53.6976099  20.0858259  76.7774838  52.7051020  21.1045384
  55.0735623  15.0872231   7.4284029  54.8448163  14.6147060   6.6280061
  54.3338662  15.6758511   7.5787359  17.2090530  21.3987589   7.2119516
  16.3649774  21.8431473   7.1326625  17.6032138  21.4765143   6.3431460
  42.3837805  17.0075285  24.6818376  41.7744589  17.5907540  24.2292786
  42.8296089  17.5709713  25.3142953  74.8110970  50.2501720  57.1863604
  74.0978106  49.6558833  57.4193228  74.3814095  51.0917240  57.0334232
  71.3714274  35.2082732  65.1180533  71.7799195  36.0138661  64.8012189
  71.3103493  35.3274167  66.0658435   4.1336784  54.4757128  23.1020570
   4.8488662  53.8538694  22.9677200   4.1274494  55.0089502  22.3071647
  31.4349341  37.7556872   3.9518306  32.1962547  37.9485941   4.4990122
  31.0192752  37.0049119   4.3758541  44.6784735  44.9282360   6.5309441
  44.3512630  45.3134584   5.7180655  45.5407190  45.3252459   6.6540378
  66.4212567  37.7432799  15.4744303  65.7239074  38.1503177  14.9603724
  66.2838453  38.0683303  16.3642001   9.1171577  60.1227063  64.4344056
   8.4990670  59.4424301  64.7016469   9.8537376  60.0276953  65.0382743
  23.9137459  30.6972671   7.7400255  22.9773235  30.7216763   7.5431836
  24.0168238  31.2863588   8.4874058  77.8445256  44.5000696  43.2338810
  77.4205709  44.6129465  42.3831415  78.7782645  44.4446087  43.0306864
  67.6274260  62.1025139  63.7782247  67.1449097  61.2786943  63.7094194
  67.2300943  62.5511867  64.5245845  72.9322630  20.9319162   6.1892420
  72.4165398  21.7113471   6.3960028  73.8023549  21.2697768   5.9770590
  33.1805086   8.5153741  43.8487434  32.8540206   8.8832265  43.0275726
  33.5405731   7.6631939  43.6030293  42.9741677  55.6044513  68.7270843
  42.6569589  55.5161756  69.6258712  42.9365309  54.7165412  68.3715149
  32.8729742  72.0670324  56.4896990  33.1776490  71.9379169  55.5915154
  33.4133389  71.4753586  57.0133019  35.1277614  14.7323167  26.0988808
  35.3978419  15.4738975  26.6404963  35.9008360  14.1691399  26.0611939
  17.0615315  26.8593192  15.5179989  16.4834273  27.5468922  15.8485556
  17.8196299  26.8825531  16.1019325   1.6726746  15.7600272  24.5645571
   1.6818731  14.9169135  25.0176644   1.4271536  16.3922668  25.2400017
  32.2868752  67.7824736  14.0511930  31.4621139  67.9408455  13.5919344
  32.1279836  68.0926466  14.9426961  13.4277034  49.8139334  32.7872324
  14.1794491  50.4041958  32.8392267  12.9651487  50.0844955  31.9940925
  26.7103258  77.2812730  67.2974966  26.3573336  77.3326260  66.4092446
  27.6415496  77.4786121  67.1969397  16.2056899  24.9647260  24.2438102
  16.5309787  24.9575400  25.1440144  16.6733658  24.2483926  23.8144207
  29.4420531  67.4197394  65.1955060  28.8263797  67.8724271  64.6190924
  30.1115828  67.0730144  64.6058089   0.7324730   2.9249849   8.5542721
   1.1383115   2.2459211   9.0931523   1.4195000   3.1867971   7.9413456
  20.4601165  63.8178760  68.5529656  20.2553137  63.7575823  67.6198781
  20.9723767  63.0305320  68.7371083  26.9019738  68.0870324  69.3043537
  27.5843933  68.2211906  68.6466782  27.3060933  67.5131804  69.9552108
  21.8250762  10.1392164  19.7768736  20.9129750  10.2936639  20.0227380
  21.9063084   9.1860189  19.7445405  22.1547389  27.1882796  22.2030616
  22.0870256  26.2553835  22.4064183  21.5541124  27.6113749  22.8166318
  27.3343968  55.0557852  34.4019771  27.0751405  55.2973413  33.5127807
  27.3064995  54.0990114  34.4080281  64.3602260  45.1912123  51.6687740
  65.2887805  45.0473240  51.4862455  63.9319476  44.3846789  51.3818718
  70.3330464   9.8064419  57.0076061  69.5613177  10.3248068  56.7796457
  71.0467572  10.4431864  57.0450473  17.3467422  49.9603319   8.2167357
  17.9935241  49.2657185   8.0925781  16.5631926  49.6407604   7.7693480
  26.2839890  19.7937524  14.7274888  26.4903998  20.7268310  14.6727896
  25.8439875  19.5969045  13.9005172  10.2570653  60.1346445  25.0250292
  10.6876945  60.8846331  24.6147799   9.8344928  60.4974318  25.8035207
  61.8604022  19.8890352  12.1552229  61.0507208  19.6165693  11.7234719
  62.5121695  19.2498684  11.8673003  45.9261131  18.6700130  44.4737053
  45.8882141  19.3704474  45.1250029  45.0181770  18.5539734  44.1936636
  82.3768325  78.5853369  38.9696598  82.5726004  77.7373920  39.3682790
  82.1467824  78.3769360  38.0641890   0.4924667  20.7048702  30.1316619
   0.8780128  21.3458395  30.7289433   0.6528988  19.8596525  30.5513048
  20.8882856  33.9026427  22.0293474  21.3533211  33.2238150  22.5183916
  20.3346515  33.4192896  21.4160824  41.6412115  28.0887127  22.2251129
  41.4409065  27.1536970  22.2681856  42.5516224  28.1253576  21.9317842
  17.6711631  38.0921602  31.4048290  17.4181747  38.1184888  30.4820418
  16.8803930  37.8058004  31.8618989  76.3090241  22.3707223  22.9029822
  76.5315306  21.4639831  23.1140471  76.0310692  22.3422480  21.9874692
  56.4620763  27.4203014  28.1834030  55.7678300  27.8367972  28.6940742
  56.0065013  26.7787004  27.6383996  71.7588698  74.1587142   0.6492519
  72.1200549  74.5711998   1.4338731  70.8278595  74.3801860   0.6692027
  38.1515934  67.4836308  56.6321505  38.1305291  66.5266710  56.6281486
  39.0457555  67.7024251  56.8945134  25.2915096  34.7867775  21.6130090
  25.1491523  34.3292618  22.4416494  26.1928201  35.1045752  21.6666436
  30.3364587  13.6371791  24.1162801  30.1212049  13.5288489  23.1899095
  31.1866307  14.0769935  24.1147804  19.5313859  35.3671503  32.2282577
  20.4055500  35.0646305  31.9821835  19.6746993  36.2383366  32.5980234
  78.6322970   2.9026409  64.1547877  78.7965484   2.3811098  63.3691282
  77.6840444   3.0330082  64.1618127  14.8106754  71.4783478  11.6716480
  14.6430683  71.3287497  12.6021111  15.3840876  72.2445250  11.6517282
  83.4815948  44.0816832   9.2178863  84.1834222  43.7007284   9.7456592
  83.0303779  43.3273125   8.8389993   9.8512310  23.8791370  35.8911514
   9.0499973  23.4094882  36.1228538  10.0227451  24.4457650  36.6433144
   1.7823844  24.7773194   2.3553294   1.3314660  24.1974020   1.7416529
   1.7950065  25.6276798   1.9160578  48.5723205  34.3847986  57.7369607
  47.7437575  33.9875933  57.4687386  48.3165402  35.1805826  58.2033683
   1.7553438   1.4863725  65.6209759   2.2511948   1.1298176  66.3580168
   2.3166264   2.1755644  65.2657214   0.3767718   2.4253841  58.0141688
   1.2470401   2.4660345  57.6176716   0.2282036   3.3067795  58.3566583
  38.6988068  12.1784079  12.3394740  39.4195676  12.5122881  12.8735721
  38.2367587  12.9627061  12.0434678  41.9279476  56.5515667  62.3257900
  41.2931450  57.2534043  62.1819813  41.7668875  55.9332007  61.6131086
  78.9857912  34.6681046  14.8191524  78.8376141  35.6085634  14.7201109
  78.4090948  34.2651153  14.1701150  11.4783419  22.3909088  43.7190819
  11.2675966  21.4726396  43.8882042  12.1845020  22.5916334  44.3333126
  73.3899039  51.4473867  26.2559962  72.8156894  50.7142258  26.0346794
  74.0560764  51.4458275  25.5686522  10.6043077  75.6310844  14.0123069
  11.3852310  75.7691050  13.4762645  10.0119984  76.3392162  13.7594318
  39.6856650  58.0302566  67.5289415  39.3427404  57.2967690  68.0394611
  40.6034466  57.8063804  67.3747035  72.8202330  18.1382742  53.9511108
  73.5292136  17.6476564  53.5353231  72.3248564  18.5087576  53.2206440
  30.1929421  12.0195242  67.8917440  29.8449798  12.9111429  67.9048882
  29.9729557  11.6638513  68.7527517  74.7784954  55.8649921  21.4750433
  75.1815861  55.6371737  20.6372786  74.2925531  56.6699934  21.2959838
  52.0742329  50.6112629  57.6907886  51.9611557  51.5428275  57.5020230
  51.5179595  50.4521543  58.4533346   6.1673623  45.5487871  13.6021638
   6.1470783  46.2107706  12.9110813   5.4825658  44.9262714  13.3577013
  70.1497346  27.8339052  42.8837061  69.7595972  27.4896812  43.6871576
  70.1226693  28.7845182  42.9924917  34.7767830   8.2348192  16.9571710
  35.3033209   7.5557691  16.5354097  33.9818144   8.2856554  16.4264441
  56.0849304   3.4673210  61.5633894  56.7646531   2.9178282  61.1731721
  56.0280186   3.1694170  62.4712700  19.6915162  47.9151392  25.8381057
  18.9524961  47.7581596  26.4258456  19.3486691  47.7223635  24.9654508
  27.9867911  24.1403484   1.4625780  28.6694026  24.5620441   0.9406143
  27.4541879  23.6673689   0.8231591  82.9604779  42.9042912  18.8871801
  83.2247141  43.8184357  18.7835014  82.4488083  42.8931379  19.6960700
  34.1128731  60.7525444  44.2171812  34.3074155  59.8153210  44.2165661
  33.1956100  60.8069372  43.9490414  81.9287387  27.0643020  24.1850042
  81.9595271  26.2650752  23.6591482  82.7111599  27.5513673  23.9265180
  14.8339164   8.3928770  19.9928308  14.4614017   9.0778267  20.5480862
  14.2035925   7.6742971  20.0434852   3.3473948  16.7388988  36.3430309
   3.6767372  16.7201948  35.4444671   3.0208796  17.6310611  36.4599276
  50.5613232  66.3994741  19.6780300  50.3993797  66.0016680  18.8226032
  51.2276936  67.0657778  19.5100284  35.3241634  18.2103896   2.5099653
  34.6524835  18.6344612   1.9758841  34.9672699  18.2229650   3.3980536
   6.4104491  41.1871386   7.2179401   5.8504516  40.4425812   7.4376404
   5.8403552  41.7789984   6.7270970  36.1525464  30.3093410  29.2886949
  36.7256284  31.0497355  29.4877601  35.8328080  30.0176358  30.1424551
   0.2756528  33.6698127   2.9202756   1.1303658  33.5189962   2.5166032
  -0.3484042  33.5814857   2.1998708  20.8540273  32.4064684  15.4426992
  21.3092160  31.7943549  14.8644650  21.5097165  33.0720639  15.6507504
  49.9015721  63.2298618  66.6324935  50.8355411  63.2079416  66.8409402
  49.7523864  64.1126662  66.2939221  41.6831875  39.8633528  36.1955810
  41.8139553  39.4996190  35.3198934  41.8856716  39.1395211  36.7882848
  41.5097475  51.7304945  27.5290346  41.4476585  50.9219551  28.0376029
  42.4335003  51.9758463  27.5810885  24.0324211  25.8116508  36.5932584
  24.5179224  26.5247107  36.1784482  24.5600176  25.5745864  37.3559332
  16.3397586  46.8403912  25.1345158  16.5897739  46.6854429  24.2236280
  16.8421221  46.1963940  25.6336403   3.2829270  41.1210489  24.7657037
   4.2396617  41.1301994  24.7373009   3.0534485  41.8498135  25.3423142
  19.7801495  63.0419445  20.5289268  20.3770924  62.3828316  20.8831358
  20.2092361  63.3492470  19.7303772  73.7255961  25.2165413  37.5021267
  73.2454997  24.9974847  38.3007216  74.4657701  24.6096635  37.4935532
  38.5532451  36.6693544  29.5547485  37.8221035  36.8347216  30.1499963
  38.2464123  35.9602547  28.9897132  12.4354243  13.2762730  15.8499467
  12.0707595  13.5577381  16.6890109  11.7173517  12.8111899  15.4206443
  23.4687629  63.3043748  61.9981725  23.1020792  64.0981084  62.3877377
  24.3787681  63.2904011  62.2946978  34.1320777  22.5619507  10.3859508
  33.2751203  22.1362782  10.3602445  34.3069482  22.6922011  11.3179839
  26.9883704  26.6547251   8.7835145  26.1265588  26.2388563   8.8072723
  26.8805981  27.3952484   8.1866550  15.9888291  16.7283547  29.1752386
  16.5586817  16.4863825  28.4452057  15.8118880  17.6596439  29.0424824
  21.0802794   2.5331330  21.6859984  20.4516792   2.3636302  22.3876834
  21.7099357   3.1429002  22.0706415  -0.2007337  29.5943999   8.9825922
  -0.5089728  30.1735020   9.6796298   0.7338936  29.4849825   9.1578948
  84.3497486  66.1653242  19.0198982  84.3944259  67.1085451  19.1766453
  84.9772878  66.0098408  18.3140302  13.8596666   2.1554841  13.5004818
  12.9282761   1.9763710  13.3714044  14.2007017   1.3631234  13.9153218
  39.4030489  70.7516340  35.0521040  39.9929346  70.0578199  34.7573352
  39.0051283  70.4045568  35.8504963  59.9150467  51.8692112   1.8795535
  59.0509033  51.5555668   1.6128744  60.3356266  52.1363258   1.0622441
  21.7316031  39.1149282   6.3530737  22.6852036  39.0863848   6.2751973
  21.5388227  38.5888886   7.1291858  81.2235875  78.6642892  22.1510696
  80.5613489  79.3344742  21.9821739  80.7528276  77.8353165  22.0649195
  77.5876613   5.6271597  62.7562750  77.1631975   5.1699777  63.4822554
  77.8565879   4.9296470  62.1584601  41.0677958  23.3412504  32.6580071
  40.3468561  23.0546570  33.2186699  40.8106565  23.0663443  31.7779279
   3.7078729  54.2974091  37.3460412   4.3328041  54.5152807  38.0375791
   2.8751001  54.6545219  37.6545715  72.9489940  41.9258213  38.8957381
  72.9846400  42.4012852  38.0657411  72.0296627  41.9711304  39.1584325
  82.3311290  46.3964176   1.3297427  81.4300102  46.0838175   1.2491352
  82.6837236  45.9196520   2.0811436  42.6586052  71.1028963  68.2234787
  42.2012290  71.3935977  67.4344713  42.1737810  71.5060717  68.9436370
  46.4387126   5.8068462  65.2582193  46.7151875   6.6425653  64.8822317
  46.9784773   5.1536461  64.8130015  16.1247265  43.0311298  49.6104527
  15.4264820  43.5788965  49.9691105  16.8198550  43.6482573  49.3820143
  61.1068159  48.8502216   3.4978008  60.3987199  48.8462687   2.8537399
  60.7089669  49.2136097   4.2889372  47.9486509  70.8056003  59.5266069
  48.4760293  70.6910235  58.7360526  48.4798749  71.3689572  60.0893367
  71.0256261  26.6174722  12.0009995  70.2932280  26.0177684  12.1430528
  71.2302738  26.5293264  11.0700953  38.4223795  38.2397556  15.2444208
  38.6456537  37.4728513  15.7719040  38.0581713  37.8772187  14.4368625
  75.1864582  65.4289627  28.6714578  75.2390879  65.0794792  27.7818942
  74.2737252  65.2960968  28.9273787  42.9163027  44.1050863  27.3502970
  43.0586481  44.8754025  26.8002248  42.0144844  44.1942167  27.6585364
  34.9557257  72.6475859  13.2849491  35.0983596  71.7872238  12.8904140
  35.2430773  73.2686186  12.6156354  38.0524230  69.3445921  39.7296476
  37.4448633  70.0549412  39.5234799  38.3432770  69.0229464  38.8763118
  49.0948283   3.7736692  14.2493212  50.0286137   3.7959947  14.4585550
  48.8725435   4.6828260  14.0486574  13.6295307  63.5429573  15.8397245
  14.0823746  63.7898493  15.0333691  14.1107869  62.7803850  16.1608243
  56.8236780  43.9013529  18.3400190  57.6524019  43.4658337  18.5394526
  56.4425373  44.0947151  19.1965091  60.7170423  69.2062622  68.6694627
  60.7409056  70.1092464  68.3527925  60.6077608  69.2875272  69.6169254
  77.9920835   7.7135893  61.1553878  77.4817247   8.5009094  61.3448573
  77.8513832   7.1483942  61.9149858  53.0164957  53.8865852  40.8224010
  53.8963509  53.7881804  40.4585361  52.7524805  52.9963589  41.0548258
  -0.1499591  51.4006376   5.7208335   0.6589048  51.3217974   6.2265557
  -0.1870500  52.3238468   5.4707485  32.8557944  38.8118744   6.3377655
  32.7792168  38.3231854   7.1572477  33.5842705  39.4149232   6.4856982
   6.7267704  53.3202457  22.6493001   7.1491671  53.4463167  21.7996407
   7.2150755  53.8874197  23.2460403  50.2973509  27.0708680   7.6060998
  50.9882927  27.1791983   8.2596308  49.6940136  26.4393997   7.9978430
  30.6864452   7.7910823  24.3567371  31.2564635   7.8344291  25.1244831
  30.3416657   8.6791986  24.2639637  31.5843987  69.5578766  66.0203075
  30.7136726  69.5717955  65.6229734  32.0592403  70.2636862  65.5814552
  29.2924094  62.5761032  43.8834667  29.0132236  63.4726572  44.0691566
  29.7443318  62.6354504  43.0417585  44.0501404  53.8069582   9.3575972
  44.3719912  54.0927410   8.5026276  43.6931515  52.9330492   9.1992486
  27.9860473  14.1705632   4.0105319  28.5725689  14.7004604   4.5503747
  28.0118418  13.3014929   4.4108859  67.6790817   1.2268492  67.9472973
  67.1327991   1.7428442  67.3543722  68.5686560   1.5430971  67.7895772
  38.0724907  44.0453482  24.2865801  38.0532670  43.6762238  25.1695347
  38.7998056  44.6674252  24.3028283   7.6594454  15.0828362  21.4585280
   7.4969226  15.4289091  20.5810022   7.1126300  15.6191969  22.0325851
  22.6758027  42.9991865  30.5892015  23.0046701  43.8649416  30.3472352
  22.7251768  42.4895811  29.7804403  43.8931942  42.6989412  22.4142766
  44.3904781  43.3252048  22.9403329  43.9534283  43.0359030  21.5203738
  36.7781210  59.0272141   9.1154563  35.8468151  58.9147282   9.3058509
  36.8713236  59.9591351   8.9178085  30.6971097  27.1969962  31.7509174
  31.0674071  26.3146949  31.7765117  31.3953209  27.7392268  31.3838744
  69.8513002  17.7917190  67.4122063  69.5605166  18.0203672  66.5293712
  69.0971858  17.3537775  67.8068557  22.6161146  35.1266265  56.2628698
  21.8839884  35.2981281  56.8551636  23.3463073  35.6209922  56.6352320
  42.2778558   2.5192728   3.1850946  42.6072441   2.8855886   4.0057969
  41.4144646   2.1710767   3.4076831  22.7444764  54.8712987  64.2454929
  21.8591347  55.2335673  64.2796022  23.1779047  55.2245480  65.0224010
  24.3518448  55.1395035  20.9282112  23.5556269  55.3459454  21.4177513
  25.0535059  55.1973629  21.5767121  78.2442039  26.9081497  20.2940631
  78.1612647  26.3534641  21.0697412  78.6951834  26.3581896  19.6534455
  18.7813365  30.9416986  11.9126248  19.0209842  31.8609738  11.7954254
  17.8332937  30.9561896  12.0439124  46.3869429  56.9216013  21.3052678
  45.4588699  56.8760347  21.5351367  46.6090107  56.0326719  21.0282803
  13.7031269  43.8122272  13.0252373  13.5991478  44.1152239  13.9272428
  12.9704416  44.2083502  12.5535464  18.7653112  17.9629314  30.7157993
  18.6177623  18.6574042  30.0737953  19.6816885  17.7147293  30.5938077
   3.2299581  35.1743245  50.1867867   3.9697605  34.6811581  50.5413437
   2.7733693  35.5091405  50.9585714  19.1461611  34.6461535  23.9645100
  19.0179276  33.7788773  24.3487239  19.7180724  34.4927573  23.2124329
  20.6440473  73.4078217  34.9297190  20.9065723  73.6930323  34.0545225
  21.1315227  72.5967073  35.0735712  78.8277531  34.9394464  25.0422931
  78.3819342  34.1355324  24.7754598  79.5571470  34.6399975  25.5850148
  14.1086745  45.2475643  33.5112596  14.1429007  45.7744265  32.7128386
  14.8783004  45.5198145  34.0110469  84.5545185  63.8543510  30.6110311
  84.1189053  63.0831385  30.9739399  84.6193045  63.6737442  29.6732593
  43.9285183  43.2745981   3.7416056  43.2424688  43.9375496   3.8194519
  44.5953846  43.6836433   3.1900609  70.8029526  59.1554117  20.5210543
  70.2146882  58.4426880  20.7704496  70.9313661  59.6535492  21.3282704
  40.8773279  43.2667351  23.2030463  41.7570066  43.2451200  22.8263068
  40.5376434  44.1304493  22.9688668   0.3401839  35.3218794  44.6871853
   0.7703957  36.1677527  44.8122740  -0.2321386  35.4537034  43.9313412
  38.1854248  68.7027264  32.0762610  38.6067700  69.1988564  31.3744378
  38.8906693  68.1784201  32.4556851  50.3911454  63.2579517  38.6937976
  51.3185197  63.4949827  38.6889458  50.3541499  62.4458361  39.1991043
  11.2014866  29.7401047  30.6672239  11.7255163  30.5356359  30.7607937
  11.8454444  29.0337563  30.6159973  20.2489066  45.6635809   4.7374487
  20.7569218  44.8570347   4.8248026  19.5210671  45.5557013   5.3496945
  54.5821524  36.6302013  10.3777242  55.2193308  36.1485434  10.9052098
  55.0843430  37.3479223   9.9918330  30.1564407  54.6963882   9.3971962
  29.7471189  53.8433504   9.2522371  30.4265809  54.9837351   8.5250211
  19.7560060  36.2912846  41.3641834  19.2350638  36.0785699  40.5898428
  19.2573297  36.9778228  41.8071461  31.6995239  16.1354053  33.1348372
  31.7625809  15.8877146  32.2123933  30.9684849  15.6178355  33.4723783
  49.3001604  27.9606366  19.6748626  49.0352964  28.2895517  18.8158548
  49.9993277  27.3346090  19.4864690  33.6783075   6.7531192  28.8144612
  33.6242366   6.6789705  29.7672510  34.6132994   6.8513638  28.6345458
  44.5695969  79.2648441  62.7974868  44.6888181  79.3234116  63.7454260
  43.6392530  79.4443256  62.6615537  32.1202302  48.2117033  33.6147070
  32.7905202  48.8588953  33.8339782  32.2626376  47.4989510  34.2375565
  79.7381205  38.8414665  60.8783794  79.7141118  39.5351072  61.5375639
  80.3751488  38.2119461  61.2162102  32.8213167  53.5573483   3.0978042
  32.2297788  53.0178881   2.5731200  32.8981304  54.3755102   2.6069474
  50.9390260  22.1902414  37.6174284  50.7262565  21.3425775  37.2270013
  51.5225632  21.9786211  38.3460785   8.0932367  21.9053221  35.8658147
   8.3890331  21.1552286  36.3816595   7.3561108  21.5695357  35.3557897
  25.4215193  26.8718195  22.0005846  24.8301411  26.1525297  22.2222328
  25.0867558  27.6187134  22.4968839  22.4292922  36.1661959  23.1497169
  22.0956779  35.4326963  22.6330829  22.3057461  35.8943892  24.0591598
  29.0590715  34.2937398  29.2785597  29.6802688  34.4489741  28.5670471
  29.1626930  35.0499153  29.8562217  40.7902813  43.4690142  16.2652409
  41.6847563  43.7696600  16.4257479  40.8699226  42.8625917  15.5289412
  44.1502666  29.5072865  16.8335569  44.2232561  30.4107976  16.5260315
  44.3730497  29.5520282  17.7633941  40.3700638  51.9819403   5.3015590
  39.4225025  52.0651674   5.1946443  40.7382774  52.5476742   4.6228847
  26.4529289   9.5380207  31.2078405  26.4812578   8.5988470  31.0251403
  26.4406503   9.9498363  30.3438450  18.2164454  44.8851681  26.2714815
  18.0795431  44.0101957  26.6346812  18.7744582  44.7425222  25.5069518
  50.3861030  47.1509659  50.1498640  50.2021583  47.0882624  49.2125989
  51.1262949  47.7550161  50.2087904   5.6746972  29.3947220  39.9236965
   5.9105301  30.3222919  39.9085808   4.7365761  29.3829823  39.7338986
   3.7817058  16.9270062  40.1601505   3.0921608  16.8452990  40.8190012
   3.5881171  17.7501774  39.7116613  28.7908626  41.4313507  10.2267134
  28.9962459  41.0987520  11.1004555  27.9897070  41.9412279  10.3467369
  26.0217619  47.7003860   7.6130581  26.9078016  47.4044037   7.4043500
  25.6812835  47.0344830   8.2104498  32.4082851  65.4167843  50.3939676
  32.1420360  65.1105356  49.5270491  32.6604748  66.3301468  50.2583170
  43.6794662  66.6990757  38.7710834  43.3839226  67.0111513  37.9158092
  44.6226215  66.8624449  38.7728357  23.2134403  14.4278189  49.4552351
  23.6176647  15.2917667  49.5354534  22.6892723  14.4819017  48.6561394
  49.1171598  45.8071375  10.0837636  49.5618439  45.0494289  10.4637253
  49.6152449  46.5607595  10.4003072  43.0086613  68.0157948  13.9625168
  43.0748177  68.3304214  13.0609262  42.0920944  67.7574396  14.0593898
  21.6753353  33.0455919  65.0438542  21.1532177  33.2210203  64.2610080
  21.0495628  32.6885315  65.6740526  37.6732302  55.2369833  26.4936733
  36.8048382  55.1239443  26.1072183  37.5657272  54.9699879  27.4065757
  76.1736107  41.2523985   9.5732510  76.0692292  40.8338165   8.7187761
  75.2952927  41.5589380   9.7986853  81.8633655  23.1524348   1.3290010
  82.2789729  23.8518214   1.8333441  82.5744379  22.5415182   1.1356382
  11.2404883   0.9571582  58.3983421  11.2810123   0.2750172  57.7280664
  10.8331776   0.5290931  59.1513968  70.6359585  65.5872494  49.6993280
  70.4005536  66.2868363  49.0899063  70.6384524  64.7938758  49.1638065
  38.6698866  39.0320706  33.7671113  39.4284415  39.4397855  33.3492637
  37.9841614  39.6983194  33.7210202   3.2711932  29.8269749  16.4018583
   2.8824040  30.6737161  16.6211843   4.1741616  30.0333595  16.1604345
  15.3208347  72.3044211  63.9679588  15.2277907  73.0011398  64.6176941
  14.5049163  71.8078619  64.0307302  13.7580025  33.2573080  17.9632926
  14.4112563  32.5584507  17.9963326  14.1675186  33.9899135  18.4235299
   2.4256875  61.9967657  53.3541608   2.2623422  61.3314539  54.0226746
   3.2117059  62.4519092  53.6562384  61.9863796  17.7419353   6.2329936
  61.6435194  18.6079156   6.0121900  62.6504993  17.9105568   6.9013870
  42.9254961  64.3261909   7.7433342  42.5378752  63.5467625   8.1414187
  43.8301563  64.0751553   7.5567770  24.7766924  13.7785900  11.1885118
  23.9178443  13.7797117  10.7658875  25.3569388  13.3629465  10.5507147
   4.5865610  61.4071321  50.2213478   4.0310621  61.2420082  50.9831762
   4.5958817  62.3602772  50.1338053  31.8536735  30.8020115   1.1349142
  31.8368721  31.0009956   2.0710525  30.9356976  30.8373666   0.8660238
  -0.3224545  19.0694654  11.0653722   0.2235748  19.7197449  10.6235337
   0.3007391  18.5012841  11.5181768  35.1765370  65.1073360  30.4045868
  35.3588176  66.0466576  30.4306531  34.4029784  64.9980307  30.9576583
  35.4300284  25.1776385  21.6058683  35.6450176  25.4352307  20.7093978
  35.8750796  24.3389463  21.7273450  40.0302029  37.9153013   5.1441604
  40.5405617  37.2158933   5.5523217  40.6575918  38.6270666   5.0176466
   5.6004238  48.8856936   1.0006446   4.7362846  49.2909050   1.0734604
   5.4259276  48.0095530   0.6569030  36.9892907  41.6354275  11.9964266
  36.7920280  40.7812405  11.6121280  37.2660947  41.4373970  12.8910744
  45.9517919  13.6292638  41.8283415  45.3415583  13.7718858  42.5518799
  45.7385730  14.3157949  41.1963272  55.2537203  70.4415798  33.8706946
  54.4366455  70.9177923  33.7229037  55.8245325  70.7169056  33.1533360
  25.2224302  33.7014270  14.3354154  25.6323695  34.4256186  14.8084128
  24.3922305  33.5580420  14.7897744  36.0478950  32.7552843  11.5759683
  35.5063653  32.4819827  10.8355069  35.6319022  32.3528552  12.3383546
  20.8938432   7.3030937  44.4465637  21.2054896   6.4030987  44.3510818
  21.4304304   7.8084260  43.8358688   3.1719841  11.8461510  64.5662541
   3.0822958  12.5277754  65.2322651   2.6248206  11.1277290  64.8836086
  37.3965597  74.6778107  52.7276325  37.4556637  75.0544739  53.6056185
  37.2133660  73.7502193  52.8767920  22.9347897  52.0208216  21.8109179
  22.4814272  51.6539669  21.0518980  23.4580493  52.7383089  21.4536428
  45.9850359  68.0896473  38.3771133  45.5000353  68.5838938  37.7162600
  46.5195465  68.7466288  38.8231015  24.5715404  43.1921387   9.5081556
  23.8608479  42.9014540  10.0796878  24.2966437  42.9271412   8.6304092
  83.1831887  43.6911011   5.8689356  82.5837657  43.5755968   6.6062164
  83.9954159  44.0038347   6.2673301  71.1957632   1.8887415   8.2459933
  72.1198164   1.7998495   8.4793454  71.1840664   2.5629701   7.5666541
  37.9590130  65.2164268  11.5099311  38.7543154  65.0021696  11.0222602
  37.9230237  66.1729097  11.5011299   9.5790261  66.4235020   1.9035533
  10.4432559  66.1556435   2.2159433   9.1263092  65.6010485   1.7168827
  55.7407951  70.0480890  55.4718161  56.4706659  70.0679970  56.0907841
  55.6652546  70.9504271  55.1614714   4.6775666  63.9840555  49.8007250
   5.4440522  64.5148659  50.0174522   4.7032970  63.9043140  48.8471985
  40.4422008   7.1249666  11.2421155  41.0098468   7.3102941  11.9902217
  40.0023221   7.9561414  11.0635269  81.2353858  33.7824368  26.3275313
  81.6417837  34.5703840  26.6883802  81.8095696  33.5257864  25.6059527
  25.9637523  52.9197645  13.5332453  26.8117952  53.2807875  13.2749462
  25.4745960  52.8473806  12.7136612   6.5488160   5.8924878  44.7673845
   6.2445557   6.5199757  44.1117048   7.4386102   6.1768514  44.9762774
   8.7465119  40.3249025   6.1043715   8.9545381  40.6271362   5.2202839
   7.8769362  40.6835508   6.2816864  22.2708845  56.5558720  11.5749323
  21.4898252  56.0968828  11.8839729  22.6163197  56.9919872  12.3538494
  75.1633842   7.6835533  40.3646398  75.9679956   7.1659084  40.3350616
  74.7536189   7.4420543  41.1953045  16.8405926  73.1279469  28.0440187
  16.4070451  72.5427008  28.6651111  17.2066259  72.5437784  27.3799443
   4.7866148  36.4252067   9.5637029   3.9927796  36.6713667   9.0888739
   4.7300258  36.9051504  10.3899491  64.9420023  39.4905305  14.0946424
  65.2316999  40.3936005  14.2241287  64.0986919  39.5710826  13.6490285
  64.7717174  55.4600757  64.2255361  64.1090735  55.1895446  63.5899681
  64.6065625  54.9111396  64.9921030  12.7727449  55.9791374  47.5722075
  12.7552617  55.3831482  48.3210230  13.5756159  55.7513094  47.1034575
  46.4769888  58.5496378  36.6934705  47.1023083  58.4048319  35.9833717
  46.1700296  59.4468594  36.5630507  53.0594047  71.5708476  40.3547979
  52.5129398  71.0975057  40.9821368  53.9014967  71.1164528  40.3800297
  59.4956446  66.9975471  42.3863220  60.1660395  66.5997791  41.8308210
  59.8583746  66.9499636  43.2708549  77.2245514  52.7144766  17.5369430
  78.0076790  52.2134829  17.3090291  76.5157706  52.0713520  17.5211465
  45.1666164  19.9170160  11.9949055  45.4689789  20.4737544  11.2773752
  45.8928061  19.3135798  12.1522176  32.6029634   6.6105634  26.0842085
  33.1839943   6.9254011  26.7766786  33.0964494   6.7495269  25.2758813
  26.5576315  63.7172747  29.6757460  25.9327078  63.1194353  30.0859785
  26.1664510  64.5841265  29.7842669   8.2843947  20.3407383   6.6625589
   8.5350710  19.8133111   7.4209881   7.3385310  20.4562759   6.7532498
  54.5251513  43.1278753   4.4183812  54.7535706  43.7137747   5.1400274
  55.0959826  43.3993673   3.6995816  34.2596197  60.5144882  32.9901123
  33.5546947  61.1508322  32.8701973  34.9505043  61.0037327  33.4368205
  20.9578419  69.8127604  30.6351566  20.6381702  69.3960619  29.8349047
  20.8719444  70.7512045  30.4673004  23.1107068  49.4903135  11.8620586
  22.3067832  49.0575409  11.5745771  23.0151677  50.3951025  11.5646374
  26.4413608  10.7094904  67.3094224  27.2389616  10.7980295  66.7876679
  26.5579237  11.3266559  68.0317434  56.9990211  75.5349133   0.1843393
  57.2864678  76.1628766   0.8471125  56.6863942  74.7825847   0.6868306
  78.3722266  72.4328095  52.6448322  78.7521657  73.1386882  52.1217538
  78.6379345  72.6305109  53.5429121  44.3271160  29.7088909   5.3659737
  44.6809864  28.8195682   5.3765827  44.8400021  30.1627898   4.6972767
  18.6804935  52.9977721  57.9912377  18.4872516  52.0762306  57.8190387
  18.9163192  53.0238205  58.9185668  46.2186337  76.9455767  17.5260866
  46.0692406  77.8737354  17.7061987  47.0406675  76.9259691  17.0360792
  69.2791020   3.0179395  45.3612089  68.9827858   2.5194254  46.1227274
  70.0941979   2.5908270  45.0977135  27.5026250  55.0587511   2.0211345
  27.5256085  54.8188162   1.0947787  27.2732854  54.2468166   2.4732310
  75.4742289  58.6038017  -0.0832902  75.5361944  58.2621288   0.8087021
  76.2818074  58.3138037  -0.5074951  62.7553654  41.2740135   2.8497559
  62.8750277  42.1347046   2.4483594  62.9387617  40.6532717   2.1445736
  16.1737299  32.7534533  23.2620883  16.9683039  32.2379208  23.1238484
  16.1075366  32.8411627  24.2129588  78.1715953  44.5924377  34.0515327
  78.9479619  44.7580242  33.5166788  77.4662894  44.4652796  33.4170198
   0.9487809  53.8148260  26.4325595   1.6323674  54.1326332  25.8426976
   1.1162676  52.8755140  26.5092373  41.2654305  31.6411495  20.8256817
  40.6989527  32.1912384  20.2846313  42.1046925  32.1012664  20.8385086
  59.5019897  74.3925291  56.9057322  58.6873969  73.9057904  57.0312548
  59.2809232  75.0682264  56.2647987  33.2111526  20.9767151  58.2255411
  33.1959724  20.0688839  57.9224777  32.6890135  21.4533973  57.5802708
  40.2585220  30.0209284  10.6446004  40.0309038  30.7191825  11.2584937
  39.4344258  29.5587850  10.4912412  12.2228944  44.6709967   1.7662312
  12.6739419  44.1384745   1.1110890  11.8005919  45.3655958   1.2608361
   7.8223807  40.3516054  63.0379868   7.1897393  39.6392107  62.9458237
   8.6022741  39.9336076  63.4030581  33.9515090  35.5940413  16.7482686
  33.0069923  35.5268502  16.8882883  34.1859651  36.4512682  17.1038294
  28.5660863  43.4543276  27.4421000  29.0051818  43.0359602  28.1826377
  28.0076480  44.1217804  27.8407121  51.6709674  19.3997045  67.7220034
  51.5879978  20.3526111  67.6856827  52.5285781  19.2489382  68.1195142
  30.4007769  23.9107680   6.5961903  30.1049399  24.7480130   6.9535917
  29.7335649  23.2828760   6.8733388  62.2499752  33.7364912   6.9377083
  62.9326344  34.3790913   7.1307743  61.4797354  34.2625666   6.7227340
  50.0412000   2.8565355  58.6212493  49.1570486   2.5333782  58.7946737
  49.9639143   3.8088175  58.6797286  22.3857927  47.2257614   4.9714804
  22.1274257  48.1472445   4.9529380  21.5658903  46.7448139   4.8588642
  29.3913341  37.5935292  48.7741470  29.0113616  37.3385978  49.6148968
  28.8863826  38.3612347  48.5060310  31.8646073  40.4578733  21.5496731
  31.2979245  40.9887457  20.9899592  32.0124149  41.0004616  22.3242593
  40.8735260  75.6146604  48.0022121  40.5784138  75.1119071  48.7614084
  40.0741108  76.0028011  47.6465202  56.2029791  67.6166868   9.8239899
  57.1280479  67.8623295   9.8359835  55.8063841  68.1430101  10.5181968
  44.7941494  18.7940133   8.3569694  44.4654989  18.6061823   7.4777997
  45.2565670  17.9966998   8.6152196  13.5661924  48.9162254  50.2013636
  12.8316283  48.7114573  49.6228123  13.3082485  48.5595751  51.0513592
  62.9266930  31.7004752  27.5550938  62.7181578  31.2444258  26.7397642
  62.1939945  31.4981437  28.1368566  40.8604479  13.3444083  13.4512544
  40.6484127  14.2261159  13.1448829  40.9696913  13.4394360  14.3974400
  29.4725323  17.3914242  21.4182639  29.7155523  17.3540354  20.4931831
  28.6370420  17.8584337  21.4277339  84.7496023   6.3773972  23.3936906
  84.8804043   7.2319460  22.9827523  85.3612553   6.3695371  24.1299319
  28.6801910  68.5463095  19.9216521  29.4273663  69.0872002  19.6659172
  28.6145902  68.6612892  20.8696532  56.3061341  62.4136978  49.2614866
  56.9057735  62.9707462  49.7578324  56.8695005  61.7494470  48.8644696
  58.3686930  14.3832743   7.7501202  57.4637657  14.6613896   7.6087278
  58.3754998  13.4574866   7.5070101  82.9618282  73.4240003  55.4559780
  83.5639782  73.2070299  56.1677159  82.7296872  74.3398615  55.6094599
   0.5371868  29.4895601  27.5365996   1.0901344  29.2730856  26.7858529
   0.6499045  28.7529659  28.1373930  53.4942150  78.7440825  16.7925882
  53.1899071  77.8433895  16.9038761  52.9276752  79.2608213  17.3655128
  68.9032134  76.9876414  69.3731303  68.8274058  77.7493554  69.9478252
  68.9639481  77.3572880  68.4922759  54.1931725  65.7555151  17.1085095
  54.5254183  64.8818064  17.3146045  54.8274279  66.1124420  16.4867711
  43.4280976  65.8579594  61.8756688  42.6288100  65.9916550  61.3662613
  43.1186982  65.6682569  62.7613986  43.4095860  23.2082725   9.3270147
  42.7313709  22.7027225   9.7749829  43.3310223  24.0899491   9.6913028
  73.6351186  25.3306746  19.9571240  72.8412765  24.7987366  20.0126886
  74.1021436  25.1499104  20.7728720  11.5593613   1.6299196  45.8092213
  11.5787686   1.2756821  46.6982508  11.5234769   2.5787636  45.9301973
  33.6329985  75.3483295  48.3096313  33.9222860  74.4395542  48.3913136
  34.0957046  75.6786776  47.5395632  36.3681316  25.7936883  43.1886387
  36.2809467  26.6596055  43.5871553  36.5584326  25.9719539  42.2676373
  11.9171321  52.6748085   8.7397802  11.1621726  52.1595907   9.0240669
  12.5600731  52.0232439   8.4599125  49.1925430  28.5710669  16.6970491
  48.6318398  27.8163457  16.5174937  50.0404119  28.3343673  16.3211203
  28.9126314   7.3125788  64.0405733  29.2914308   6.7566582  63.3596206
  29.6675981   7.7235266  64.4617278   2.7487183  24.6287131  22.4602318
   3.3695459  24.9996972  23.0872703   2.1406966  25.3440022  22.2734118
  16.2916673   2.1912618  39.3881989  16.4680256   2.4895426  38.4959245
  17.0353187   1.6285606  39.6040178  49.8775768  32.6296520   4.9475086
  50.8268595  32.5265074   5.0142598  49.5490360  32.3893690   5.8138573
  77.9767283  51.6972965  54.7238815  77.2408780  51.2735814  54.2820454
  77.6068648  52.5019926  55.0870562  42.0209742  38.0733824  14.3806732
  41.1813116  38.3514023  14.0147400  42.1400452  37.1808791  14.0558755
  69.5891672  60.2800512  48.5939312  68.8210171  60.3462362  48.0266619
  69.2546505  60.4615164  49.4722271  44.5833596  51.3291591  61.7053086
  44.5174535  51.7010468  60.8257700  43.9125582  50.6466955  61.7276729
  64.1765785  54.0851450  37.0260358  63.3752918  53.5617018  37.0393801
  63.9023876  54.9505901  37.3294473  14.7719228  45.2656555   2.8219289
  13.8886631  45.0434685   2.5274527  14.6716392  45.4614878   3.7535003
  75.8300823  27.8947473  52.8143978  76.4164704  27.5435185  53.4844875
  75.7675833  27.1975565  52.1615219  34.9790978  42.5260925  30.1263666
  35.3358960  41.6596413  30.3217983  35.7462120  43.0970335  30.0840402
  10.9782541  56.2119961  27.4261403  11.2861490  55.8104515  26.6136169
  11.7159605  56.7436314  27.7251124  33.0196381  58.6197662   3.6219427
  32.2837758  58.5553026   4.2307004  33.7788224  58.7862110   4.1806597
  25.6757307  15.3745830  13.2733154  24.8680830  15.6726015  13.6917889
  25.3810740  14.8083019  12.5600588  49.3043145  54.5696455  42.6302648
  48.4108063  54.2403251  42.5331975  49.7200163  54.3862563  41.7877746
  21.0826553  27.7538677  67.8763149  21.9517482  27.8721710  67.4930241
  21.1485828  28.1486793  68.7458015  34.4952655  37.4939251  26.8148136
  33.7751293  37.9651833  26.3958216  34.9702835  38.1668496  27.3024201
  42.4648619  59.5094490  40.4966927  42.8886652  60.3676224  40.4841185
  42.2059011  59.3835592  41.4095545  43.0284357  61.7013359  36.5522814
  42.2683096  61.7747831  35.9751773  43.1327057  62.5773621  36.9236898
  53.6063147  68.0881310  13.1209111  54.2580557  68.7236929  12.8250659
  53.4646225  68.3019733  14.0430963  33.5805668  20.1622291  62.5924129
  32.9655708  20.1060005  61.8610806  33.1458295  19.6971937  63.3072359
  66.3802559  32.0607420  58.8429571  65.5397255  31.7017504  58.5585893
  66.1650879  32.9246279  59.1945697  45.7313442  64.8351574  23.1289911
  46.1044836  64.9721622  23.9997530  45.8555508  63.9013243  22.9594064
  43.3540344  54.3947268  24.1153717  44.2626047  54.4781351  24.4048119
  42.8563070  54.2659760  24.9227905  25.2713609  16.3623977  24.0890694
  25.9694982  15.8466721  24.4926357  24.8958850  16.8645942  24.8122883
  17.6062655  38.8530993  26.8809390  18.2234192  38.4964991  26.2420416
  18.0765474  39.5807123  27.2879362  39.3604112  57.3460960  39.0060306
  39.1880536  58.1474876  39.5002913  40.2125502  57.0474100  39.3236327
  67.8057679  57.6700705  48.9568282  68.0114110  57.4616355  49.8681451
  67.1789583  58.3914107  49.0116835  12.5054754  16.6255995  64.2772449
  12.0655931  17.0392509  63.5345317  11.7990697  16.2140747  64.7751105
   3.7087228  77.3121482  44.7901917   4.0390899  78.0168253  44.2329479
   3.6308219  76.5596181  44.2037964  48.0765486  54.6702099  25.1745391
  48.2191372  53.7345886  25.0313163  48.6421251  54.8880291  25.9154272
  34.0908003  35.3081107  35.1765323  33.5694981  34.7190118  34.6311545
  33.4572077  35.7039666  35.7749367  16.6633952  26.6128540  29.0263557
  16.4385843  25.8017325  29.4821811  17.2184432  27.0888186  29.6441031
  44.7852898  75.6809187  14.9430692  45.5193663  75.9120512  15.5122304
  44.7063637  76.4212084  14.3414307  42.1367359  69.1876602  37.8299212
  42.9322577  69.1268158  37.3010850  42.4493551  69.4006252  38.7092090
  33.8581657  67.8188181   2.1135764  33.1255388  67.2158670   1.9873293
  33.9480710  68.2660103   1.2720490   9.7251934  38.3523345  20.7503343
  10.4168606  38.6561036  20.1624966  10.1923931  37.9411745  21.4775920
  26.5394282  38.0340743  36.2912440  26.8970108  38.7077665  35.7128811
  26.3645124  38.4922886  37.1132374  27.9426826  44.4890734  61.5066982
  27.5090278  43.7727304  61.0429896  27.6744379  44.3808504  62.4191470
  53.2797289  67.1868324  22.7232361  52.4374008  66.7505121  22.5954175
  53.0606318  68.0042076  23.1705880  30.7516599  79.6743822  37.6640415
  31.0617423  78.8577080  38.0553603  30.8447814  80.3242397  38.3606339
  79.0593918  77.5952083  50.7802797  78.9573487  77.4858314  49.8348404
  78.5637291  78.3881956  50.9845317  31.9721580  30.6928802  25.5533290
  32.3257637  30.2888894  26.3457847  31.8880153  31.6203904  25.7744074
   2.6252288  71.1895847  25.0170016   2.8988379  70.4950285  24.4178677
   1.9393557  70.7888174  25.5510378   2.4555116  -0.0611983  58.1397390
   2.7038102  -0.6211577  58.8752890   2.8565030   0.7852640  58.3370876
  53.4969902  72.9937792  18.5324323  52.6916981  73.3595085  18.1664038
  53.3006525  72.0662117  18.6639333  13.5765041  21.5357490  67.0322484
  13.9362444  20.9957310  66.3285477  14.2748655  22.1571203  67.2382174
  39.8952222  74.8853493  16.8717885  40.6360435  74.7250509  16.2872195
  40.2958918  75.1624250  17.6957595   5.1467651  33.5414815  32.2460127
   5.4359877  33.2460284  33.1093144   5.2337730  34.4942045  32.2773576
   0.9851852  56.0817051  14.4642377   0.0607295  56.2862587  14.6048522
   0.9764373  55.3180408  13.8871980  20.5034280  45.2672529  34.9322534
  20.1265359  44.4695997  35.3036523  21.4120197  45.2655792  35.2334023
  11.3921225  79.5852089   7.9867041  10.4620051  79.7926283   8.0766445
  11.7563057  79.7346544   8.8592106  55.1718950  44.9183369   6.3666183
  54.8812628  45.7543945   6.7309988  55.1790714  44.3207455   7.1143216
  26.2124062  48.1777334  14.3118787  25.2933145  48.4308767  14.3980098
  26.2325191  47.2566938  14.5716989  17.7744710  66.4982367  52.0824099
  17.0325935  65.9932184  51.7495346  18.5452521  66.0457230  51.7398310
  16.0233654   2.6255508  69.6766181  15.1219333   2.5174042  69.9798628
  16.0317243   2.2308012  68.8046481  32.4204553  -0.0989584  40.7130290
  31.8149007   0.6066223  40.9403849  32.0571579  -0.4777459  39.9125505
   5.1787318  43.3851381  61.7907125   5.1371921  44.3411012  61.8160803
   5.9174670  43.1623789  62.3571790   8.9127165  71.4778280  14.7470903
   7.9870361  71.3053560  14.9191380   9.2489213  70.6529999  14.3965793
  17.7638865  47.2157955  14.9050772  18.4185922  47.6711607  15.4344475
  18.0973780  46.3218403  14.8285329  29.7282672  52.3940039  15.9190226
  29.1029477  52.7251768  15.2744055  29.1838408  52.0731497  16.6379690
  37.6127291  32.6461554  29.8741317  37.9740787  33.2451510  30.5274796
  37.6059222  33.1530976  29.0622234  24.8511553  56.3323212   0.3545736
  24.6000409  57.2211504   0.1032749  25.6909537  56.1883307  -0.0815909
  76.5919243   7.9126062  36.5154839  75.6821429   8.0081358  36.7972636
  76.6247832   8.3440866  35.6616807  27.2877026  63.8468790  48.3019972
  28.0425096  63.3273077  48.0253315  26.7224884  63.8780308  47.5301170
  36.0321999  63.4738445  14.0376937  35.9450459  63.7973547  13.1410456
  35.9772420  64.2592382  14.5820892  33.5649514   1.8549003  23.3586860
  32.7834654   1.9214264  22.8099751  33.2254004   1.7599583  24.2485857
  68.9043123  22.8385115  19.5415843  68.2547373  23.3059430  19.0164268
  68.3977419  22.1833706  20.0215960  34.4722266   3.9836546  60.9536017
  35.2584739   3.8056703  60.4374928  34.1027326   4.7750755  60.5619902
  21.3106155  70.6842756  23.8483977  21.5024638  71.1331224  23.0250096
  20.9236288  71.3600206  24.4050288  33.3864808  28.8421154  44.5548820
  33.5571623  29.5463824  43.9295006  32.7928901  28.2501626  44.0928507
  66.6177173  57.3618456  65.3887851  67.4802287  57.4039503  64.9758283
  66.2867476  56.4922663  65.1640216  16.5077569  75.0474769  68.0615730
  17.3560884  75.4676372  68.2031140  16.1448266  74.9385005  68.9405697
  30.7097816  73.9303493   5.7088363  31.1765480  73.7656403   4.8895499
  30.9971118  74.8031759   5.9768885   8.1259507  66.0822439  13.8375568
   7.8423160  66.9043446  14.2374802   8.3731222  66.3229895  12.9447079
  21.3821507  69.4613028  38.7110281  21.2491322  69.7421360  37.8056717
  21.2483478  70.2544355  39.2299390   1.5965379  19.2822023  59.9334974
   1.0601319  19.6573492  60.6318993   2.3780550  18.9568277  60.3802533
  41.8040895  78.6538458  11.1207938  41.7856836  79.4998264  11.5682423
  42.0665216  78.8627291  10.2242851  39.7963786  53.8061190  10.8010161
  39.8111176  54.4734335  10.1149344  39.6525049  52.9839563  10.3324151
  60.8922559  42.1732140   5.5371618  61.3962561  41.3974190   5.7828444
  60.0744253  42.0928669   6.0280061  12.4404693  26.6958547  36.1374879
  12.8001070  25.8289552  36.3255835  13.1747055  27.1840978  35.7649994
  68.4419714   5.7842531  23.0907154  68.1696259   6.1400976  22.2448874
  69.3855559   5.9416284  23.1241536  54.0777683  63.1362057   1.3135345
  53.7182713  62.3252249   0.9539501  53.3110094  63.6296749   1.6047461
  40.7930803  58.3184528  36.5364742  40.2543068  58.0696487  37.2875094
  40.1626205  58.5060787  35.8410954  57.5234604  62.8194332  14.6349907
  57.6264954  63.3906412  15.3961349  56.6043758  62.9161072  14.3856502
  78.8052607  57.8448820  29.4946980  79.3343991  57.2004032  29.9646926
  79.3533951  58.1127596  28.7571192  75.1211643  57.0512962  13.1624985
  75.9472466  56.5687990  13.1944335  75.2345085  57.7622604  13.7933040
  24.6115589  79.2994833  40.6664848  23.9065289  78.7245941  40.3687143
  25.3076935  79.1790819  40.0206327  31.5852618  64.1516304  48.1998634
  30.8272481  63.6871910  47.8449774  32.2760201  64.0130043  47.5518942
  40.3688907   2.7728643  24.5319414  39.9985527   2.9324617  23.6638331
  41.1875211   3.2688894  24.5379949  39.0368041  68.3680087  59.8013789
  39.2483493  69.2994386  59.7387595  38.1370976  68.3481365  60.1275153
  37.2094226  23.9619517   1.8176058  38.0646825  23.6068273   2.0597814
  36.6205788  23.2077837   1.8445720  26.1291183   9.2800661  54.3753541
  26.8335260   9.4739242  54.9937905  25.5088533   8.7510200  54.8769677
  50.2944279  71.3656092  30.4595685  49.4035292  71.6658306  30.2795649
  50.2878237  71.1401176  31.3898063  14.3340206  54.0771961  32.6261687
  14.8107386  54.8801041  32.8366494  13.9279711  53.8160658  33.4527087
  43.3529234  32.4717188  34.0962720  43.6125994  33.3860755  33.9833379
  44.1718149  31.9803810  34.0311670  60.8619261  55.0673437   7.4077785
  60.4079103  55.9005451   7.5337917  61.7769194  55.3117704   7.2689348
  18.5556078  58.1899500   4.9434698  18.1887662  58.3817577   5.8065283
  19.1948628  58.8866949   4.7947004  60.7400894  37.6789379   5.5345440
  60.3912830  38.3675170   4.9684834  61.6668797  37.8968620   5.6335598
  15.0824797  46.8619442  16.0527349  15.8431244  46.9811726  15.4840219
  15.0855935  47.6318836  16.6214359  67.5778623   7.9586454  44.6151567
  67.6805432   7.0814415  44.9842144  68.3941681   8.1159254  44.1406656
  52.6005088   1.0200205   6.8644577  52.2700917   1.7004957   7.4509805
  51.8471872   0.7838430   6.3232017  16.0915411  49.2811728  17.0295620
  15.8104432  50.0837231  16.5900993  16.8321741  48.9699459  16.5091455
  46.1555386  20.8569384  34.1495514  45.2638578  21.1969590  34.0752387
  46.0848904  20.1335430  34.7723985  64.4471502  73.4884977  10.5389118
  65.0705671  74.0056562  10.0288832  64.7924423  73.5091591  11.4314246
  37.9354882  40.7305336  14.4823277  37.2102332  40.8699274  15.0912666
  38.2136321  39.8289299  14.6435034  56.1235762  51.7659378  46.1788368
  56.2755775  50.8591270  45.9127045  56.9983578  52.1157122  46.3481092
  75.4308926  10.9943666  23.6298680  75.9017073  10.1619520  23.6706066
  74.8568283  10.9825697  24.3957257  42.0596933  59.6520472   7.1749848
  41.6695166  59.0557766   7.8140885  41.3116598  60.0333977   6.7153698
  54.7997379  63.8643503  28.6942172  55.4363441  64.5093489  28.3860898
  54.6428347  63.3015585  27.9360104  69.4890009   9.5427599  48.5989332
  69.5696341  10.1406850  47.8558207  68.5459935   9.4154348  48.7026739
  36.8344855  47.6043940   8.6885065  36.5697789  48.3285856   8.1213093
  36.0781336  47.0177984   8.6967272  74.4645882  45.0002432  17.5083637
  75.0272322  44.4772196  18.0794239  75.0133801  45.2012730  16.7503119
  42.2983313  56.0707474   5.2417761  42.5521564  56.9490671   4.9582982
  43.0421495  55.5176687   5.0028896  63.9027977  66.1219025  34.2680168
  63.5892248  67.0017147  34.4773960  64.5807171  65.9475660  34.9209023
  23.0453038  26.8147969  14.5698178  22.1106076  26.8749809  14.7671783
  23.4649968  27.3707747  15.2263057  79.4725209  49.3878555   8.6231625
  79.1236424  48.6907148   9.1785961  79.4549990  50.1675987   9.1780764
  26.9166610  74.3285042  67.9281486  26.1997326  74.9297696  67.7263438
  27.6204322  74.5865685  67.3328831  67.1067476  70.3924179  33.8671374
  68.0486822  70.2224159  33.8767242  66.9600248  70.8824205  33.0580616
  40.1539850  66.9554806   5.8460456  40.3873968  66.9117975   6.7733228
  40.5621099  66.1806870   5.4595751  11.5909111  62.0132017  23.4729052
  12.5284445  61.8248749  23.4305310  11.2175345  61.5389729  22.7299881
  75.0286562  16.4483162  62.6363969  74.9490816  16.2139078  63.5610337
  74.4859619  17.2309061  62.5401432  47.6722050  44.1790104  54.0529013
  47.3616314  43.3143854  53.7841940  47.9613400  44.5930243  53.2397413
  79.0545186  58.5107249  61.0867739  79.4100722  57.6811570  61.4055694
  79.3262871  59.1548306  61.7406095   6.1567486  27.7605530  49.4078184
   6.8270935  27.3967691  48.8294316   5.4025401  27.9082104  48.8372064
  28.4434199  79.0991116  33.1822991  29.2106819  79.0725374  32.6106048
  28.7369490  78.6898518  33.9962864  62.4750527  62.1883160  57.3431957
  62.6942214  62.0522290  58.2649756  62.2893127  63.1249791  57.2769261
  36.0496855  28.8515210  18.5469139  35.2711868  29.3788505  18.7260616
  36.7835617  29.4264507  18.7639642  29.7610736  73.4379244  40.7781935
  29.2646265  72.6534653  41.0114145  30.1428390  73.7342262  41.6044474
  43.9893436  68.0027723  32.8828883  44.5538282  67.3255682  33.2556891
  44.4146872  68.2426500  32.0596194  37.5858831  38.3941340  11.6468990
  37.3118782  37.8822398  12.4078977  38.4922838  38.6372280  11.8355131
  72.4968738  18.6757942  68.3745564  71.5802498  18.4460779  68.2220284
  72.9112942  17.8512951  68.6288953  24.9812078  67.9606104  31.0762405
  24.5309496  68.7243032  30.7153010  24.9782300  68.1058168  32.0223594
  45.1195765  73.2094479  16.2328374  45.6806612  73.2598543  15.4589665
  44.3372536  72.7473164  15.9317744  44.0545893  52.5477028  27.6756120
  44.9678564  52.6971579  27.9202366  43.9463425  53.0232811  26.8519974
  23.1805897  60.2391958  38.4474754  22.6650286  61.0432053  38.3842278
  24.0788722  60.5407333  38.5831070  13.2755554  64.0000820  35.7694340
  14.1386151  63.7323856  36.0851812  13.4243739  64.8517418  35.3586221
   8.6901927  58.4180641  18.5689867   8.7445414  59.3720818  18.5130453
   8.3184314  58.2497025  19.4348264  64.5941697  15.8136549  47.1871662
  63.9650952  15.9566488  46.4800215  65.3402602  16.3685598  46.9598579
  68.7392361  15.2384373  67.3964735  69.3764598  15.7404085  66.8883378
  68.1354089  14.8862882  66.7425505  36.5910392   6.4854421  15.9172356
  37.3646753   6.4930334  15.3536212  35.8779572   6.2092867  15.3414857
  13.1615961  71.7504025   8.6043358  13.6626399  70.9965277   8.9155644
  13.7886691  72.2590399   8.0902392  18.0216885  63.7397289  13.7361109
  18.3489728  62.8402567  13.7443888  18.2207179  64.0589285  12.8559244
  46.8594885  61.9130278   5.6663990  47.7280521  62.2846174   5.8205211
  46.2573051  62.5329733   6.0778356   0.3769356  77.8944588  17.0072091
   0.1092093  78.0678368  16.1047161  -0.1506649  77.1413422  17.2730732
  20.4487901   8.9057626  26.4160895  20.8243470   8.0639162  26.1582375
  21.1586909   9.3539610  26.8758607   0.6201829   5.3612896  59.1014624
   0.4498852   6.3028999  59.0770353   1.5410174   5.2779289  58.8537765
  71.6802974  25.0039907  62.9183102  71.1333949  25.5507704  63.4823681
  71.8514759  24.2190643  63.4387154  14.6122944  58.3721733  51.0662222
  14.9915075  57.5471592  51.3691711  15.1854873  59.0470505  51.4298487
  65.1224518  70.9965229  18.0077136  65.8010578  70.9021664  18.6761594
  64.6462584  71.7876625  18.2598436  45.4744291  61.6378355  16.9165564
  45.5602694  62.4673033  16.4466155  46.3757610  61.3676405  17.0921421
  81.0900053  57.6723099  27.9741240  80.9940848  56.8436718  27.5046706
  81.3436443  58.3019590  27.2992587  15.7261920  66.4765167   2.9294527
  15.9661102  66.5195417   3.8550985  15.3493226  67.3356628   2.7395228
  49.2483234  23.1666183   5.8822191  49.0514183  23.9105988   5.3130484
  49.2280436  22.4073982   5.2996349  18.9622486  66.4429045   4.9052933
  18.4001112  66.8065119   5.5894166  19.3520999  65.6649113   5.3040099
  82.0737693  72.4305439  22.6327372  82.6262376  73.1705284  22.3808885
  81.2299255  72.8254557  22.8522897   4.9706758  46.9451567  48.7629748
   4.1531623  47.3826929  49.0005851   5.2936543  46.5778108  49.5857621
  27.5707889  59.0149212   7.9235893  27.5539899  59.7571754   8.5277498
  28.0071354  58.3175659   8.4130037  45.1099968  49.8829412  18.1741202
  44.4250345  49.4540119  18.6870325  44.8038864  49.8240519  17.2691011
   4.7310695  70.8134508   4.5211262   4.6120048  70.5358410   3.6128384
   4.9806601  71.7354488   4.4590160  15.2685417   1.6981073  59.7270334
  14.7233499   1.3834329  60.4481263  16.0498298   1.1460110  59.7588826
  33.2197046  51.0227919  17.8426361  33.1245160  50.2438688  17.2945023
  33.2403898  51.7512894  17.2220755  68.4428406  48.9928532   3.1321737
  68.7356520  48.0975103   2.9623231  69.2516041  49.4997263   3.2043314
  62.9635607   7.3512735  16.0063910  63.0313145   8.1540765  15.4895258
  62.0384442   7.1108904  15.9553218   7.9077274  27.5753260   4.4334638
   8.6133796  27.7688575   3.8163471   7.1263069  27.9531908   4.0299380
   6.6702861  54.6467447  35.5030584   6.0015208  54.9404573  34.8844147
   6.4179319  53.7493515  35.7203889  52.7592659  59.3011999  23.2141614
  51.9835424  59.4123793  22.6644993  53.4866381  59.5903826  22.6632237
  71.2179501  26.6837402  67.7911881  71.9328518  26.4616581  68.3877008
  70.4228539  26.4866014  68.2863567  41.0505247  42.5259590  19.3077707
  40.5245781  41.9994736  19.9097919  40.7461405  42.2699213  18.4371221
  37.4211884  30.1224899   9.8411840  37.4393606  30.9803629  10.2653933
  36.5281463  30.0395203   9.5067877  78.0689370  10.0306692  31.6937804
  78.4651123   9.4009485  31.0915112  77.6814639  10.6954755  31.1244512
  34.5807719  38.3135867  17.5932753  35.3828955  38.7645912  17.8567576
  34.0343308  38.3179879  18.3791602  18.1036438  15.4883571  53.7229419
  18.2026304  14.8563047  53.0109430  18.9475978  15.4747244  54.1743708
  47.1656895  62.9864359   9.5181572  46.9170475  62.9765844  10.4424465
  47.8781843  63.6237144   9.4685775  24.7835159  62.1730328  23.1522608
  25.7001066  61.9674110  22.9683781  24.3811965  61.3253546  23.3415151
  19.5541632  62.6946878  29.9372602  19.2507780  61.9913816  29.3631935
  19.1541636  63.4865665  29.5778656  22.2763538  76.8426466  40.6849527
  22.5044179  76.7359209  39.7614646  22.1448421  75.9497881  41.0039139
  82.6858603  11.0147180  19.3242300  82.5545584  11.9537153  19.4557202
  81.8024718  10.6461897  19.3302596  75.0571556   1.1602732  67.7174730
  75.3190858   0.3032680  67.3810681  75.5537600   1.2607857  68.5295778
  20.7237840  10.2348363  54.7649765  20.4506588  10.2656472  55.6818628
  21.6737986  10.3482127  54.7941160  82.9481255  44.7298002  48.0832529
  82.8746200  44.0739393  48.7765598  83.8161883  45.1135159  48.2075977
  34.1938043  60.9064484  39.4306540  34.9653029  60.3518677  39.5466757
  34.5041108  61.6406393  38.9006472  58.1472193   1.0169210   8.1525630
  58.8424240   0.3692140   8.2682693  57.3363005   0.5140104   8.2281882
  25.3131676  61.4819288  31.9537449  25.2573800  62.3335552  32.3871732
  26.1845350  61.4713621  31.5577173  40.2762079  57.1456099  11.6427350
  39.3348002  57.2922516  11.5506446  40.3464603  56.4300346  12.2745979
  18.7108099  40.4309130  28.6260438  19.6127248  40.4597521  28.9453387
  18.3353090  41.2699652  28.8929248  59.3034983  63.6708736  28.6532187
  59.3045282  62.9206324  29.2476702  58.6744499  63.4352732  27.9712963
  30.3827763  59.8727036  25.8570957  30.1433253  59.9119949  26.7830300
  31.2864137  59.5569992  25.8565760  75.1983375  37.2278114  68.7836386
  74.8772235  36.3284107  68.8484134  74.7080703  37.7059217  69.4524287
   4.8216443   4.9452009  51.5954208   4.5867305   4.0404405  51.3893795
   3.9820342   5.3946390  51.6918325  17.9814124  31.9551086   6.3606650
  17.7811062  31.3226604   7.0506763  17.4295890  31.6896987   5.6249475
  11.4992940  47.8354263  36.5417075  10.6258559  47.5559664  36.8160081
  11.3441968  48.3901739  35.7772279  28.1976318  30.9292316  39.6286917
  28.6097407  30.7958889  40.4822826  28.6464167  30.3151846  39.0475130
  35.3651118  17.0217288   7.8974581  34.4887972  17.4051583   7.8615671
  35.8986378  17.6842451   8.3363795  43.7305880  56.1766195  21.8743753
  43.1676197  56.0660219  21.1081719  43.3601236  55.5867672  22.5309300
  75.9070225  39.4301077  66.4247367  75.4468126  39.4830890  67.2623715
  76.8191059  39.2636152  66.6626803   4.1001102  44.8401976  20.3909826
   4.1785699  43.9296341  20.1064539   4.7124821  44.9160862  21.1227441
  20.0314678  35.8191915  46.7520691  20.7905115  36.2229868  47.1728326
  19.7165168  36.4828821  46.1384321  19.9956107  47.2649002  44.3383312
  20.2884030  47.5715542  45.1965046  20.2861142  47.9439259  43.7294292
  84.1066809  19.5847174  68.1072590  83.4576745  19.1680809  67.5403044
  84.0495582  20.5158277  67.8927760  15.1566076  65.4311228  17.2994697
  14.5272982  64.9282312  16.7824578  15.7711697  64.7766495  17.6314533
  34.9274802  36.2088943   5.7449073  34.9365401  36.8425107   5.0274944
  34.1846895  35.6373763   5.5503321  83.4750967  67.0159006  22.3200941
  83.2870698  66.7996931  21.4067841  84.1357350  67.7068663  22.2715378
  80.3466233  55.3208595  55.5550123  80.9967621  55.3809124  54.8550499
  80.8037623  54.8765141  56.2690235  68.2567461  80.3772312  64.2043305
  68.8345631  79.7001415  63.8523210  67.3884829  80.1466495  63.8739056
  69.4092226  75.8598948   7.2627646  68.8436222  76.1706924   7.9696834
  69.4241524  76.5809345   6.6333938  37.9943776  61.1614513  28.3548021
  38.9463258  61.1196995  28.4458113  37.7804470  62.0836210  28.4964776
  33.6558580  49.6695995  35.5430603  33.4879422  49.2900610  36.4056063
  33.1358409  50.4731083  35.5295920  13.3089066  72.6936674   5.6853503
  13.9776552  72.8902149   6.3413811  12.6143730  73.3306408   5.8530444
   2.1908392  22.5469251  67.8410529   1.7094411  23.3689686  67.7476045
   1.5521325  21.9357200  68.2080912  45.1453209  59.2576504  25.8091092
  45.2692604  59.1857052  24.8626971  44.5130968  58.5708284  26.0207653
  44.2059708  68.7285995  36.0919833  44.3725252  68.0159855  35.4749990
  44.3627739  69.5255184  35.5854559  44.8548412  66.0851955  34.8328543
  45.2092218  65.7579136  35.6596136  45.5860043  66.0244083  34.2180872
  67.0144129  17.4543059  19.8974764  67.7238178  17.8164756  20.4283285
  66.7277050  18.1852913  19.3500364  44.2167187  40.7599640   3.1036580
  44.8812485  40.8815098   2.4255285  44.0433979  41.6429138   3.4301430
  50.8213266  68.9255768  68.3570157  50.2630051  68.5425240  69.0336104
  50.9086998  68.2354170  67.6995379  45.6784176  11.2012663  17.3406851
  45.7088505  10.3081121  16.9977844  45.8237718  11.7568960  16.5749300
  38.8204765  47.7900267  21.3370991  39.4127035  48.5396385  21.2772536
  38.0140352  48.1507301  21.7055821   8.4591424  23.5282254   8.6970156
   8.7483865  22.7549720   8.2126111   9.1052562  24.2009902   8.4821713
  10.5388832  61.4157248  44.7516918  10.1953626  60.8999825  44.0221500
  10.7375956  62.2700405  44.3684292  24.6956123   5.6831928  68.3573608
  24.9973930   6.4620252  67.8898347  23.7819399   5.8715387  68.5717352
  33.7931895  73.5545397   7.1483433  33.4050751  74.1647005   6.5212035
  33.0616260  73.0075788   7.4344933  81.9277245  67.9142427  16.9188249
  82.4795792  68.6326647  16.6096973  81.4091659  68.2977867  17.6260912
  61.9941508   8.5012521  31.5261698  62.6300942   9.2101659  31.4300442
  61.2168633   8.8121977  31.0620975  58.0418237  76.6246539  55.1056135
  57.2864064  77.1676928  55.3307510  58.6812171  77.2404057  54.7474838
  47.3004770  69.9022245  31.6516209  47.4899387  69.3444681  32.4061036
  47.4120188  70.7945967  31.9794393  45.8733999  12.5762453  10.3855610
  45.7224237  13.5193529  10.4486203  46.6634189  12.4249258  10.9044123
  37.2298455  77.0154428  11.4397871  36.2865806  77.0354843  11.6012776
  37.3106432  77.0569658  10.4869068  24.5522083  19.6716066  56.7818571
  23.6220182  19.8940845  56.7433966  24.8140253  19.8903986  57.6761795
  76.0222803   5.3451814  35.1634169  75.2513873   5.1318540  35.6891966
  76.7276369   5.4461946  35.8025551  55.4191648  18.2322874  10.6652629
  55.1125275  17.3302641  10.7577491  56.3083207  18.1488695  10.3207731
  27.0950723  61.6699743  14.5283949  26.8362045  62.2489500  13.8114536
  27.2228265  62.2554207  15.2748287  70.9176289   0.9879865  44.6932507
  71.3610731   0.8374777  43.8584232  71.5223395   0.6445779  45.3509951
  63.4288775   9.0920057  27.9726315  63.9557134   9.4942751  28.6631775
  64.0697466   8.7767496  27.3353457  67.2896576  60.4065990   2.0360664
  66.6340303  61.0960770   1.9311666  67.9812813  60.8114004   2.5595394
  64.0150023  63.0641651  41.5017748  64.3739176  63.2175255  40.6277704
  64.5025873  62.3094988  41.8318939  47.0753587  29.3148228  60.3862119
  47.1126510  30.2419563  60.6212861  47.3790361  28.8566395  61.1698449
   4.1054874  12.0604791  45.6397104   3.2136159  11.8276586  45.8977604
   4.1342311  13.0145540  45.7114267  33.4846973  59.7739267   7.0299524
  34.2677569  60.0120687   6.5336281  33.6805224  58.9067411   7.3847443
  16.0354770  48.0430837  41.2575484  16.1218179  48.2572599  42.1864749
  15.1283611  48.2621713  41.0445429  73.8680016   7.2701063  22.6722980
  73.7387883   7.2755518  21.7238736  73.0035101   7.0689191  23.0306482
  39.9194145  78.5234690  57.2613955  40.6093979  79.0511084  57.6635790
  40.0156355  78.6792660  56.3218737  68.1375504  72.5504160  18.1602168
  68.2076406  73.2190704  17.4788797  68.2619619  73.0293941  18.9795661
  16.6654647  33.4475704  52.3265947  17.3071874  32.9580637  51.8119991
  15.8228220  33.0600544  52.0899189   5.7321800  41.5770765  48.6599041
   6.0653390  40.9431883  48.0247522   4.8044504  41.6687246  48.4427596
  54.0822220  54.1863394  26.4518499  54.2023659  54.4559669  27.3623991
  54.7560406  54.6652842  25.9693384  71.3216209  74.3732357   9.0415907
  70.4757404  74.8009062   8.9081198  71.9151974  74.8236752   8.4407526
  54.2669916  65.0622988  31.1117744  53.9854240  65.9740734  31.0368061
  54.4671106  64.7988033  30.2135801  73.2761656  10.4985323  25.2747178
  72.5037943  10.4080381  24.7166038  72.9224812  10.6029215  26.1580300
  43.9638281  79.2458057  15.0231123  44.3232775  78.6843491  14.3362403
  43.4573269  79.9069834  14.5513749  20.9743751  38.3723064  57.5766779
  20.6064333  39.0531727  57.0134056  21.2302650  37.6746937  56.9732845
  48.1405163  50.9902048   4.1546482  48.9659405  50.5442476   3.9648473
  48.1223297  51.0645485   5.1087838  70.8325421  21.2532510  59.8673201
  71.3323056  20.8151235  59.1784668  71.3737284  21.1609926  60.6514359
  38.4492267  11.7534204  65.8919821  38.6728204  12.4111458  66.5504885
  39.2850555  11.3433119  65.6696496  72.4267435  51.6963911   9.3302214
  72.1509123  52.3398638   9.9829775  72.0381212  50.8732367   9.6262360
  81.3529261  73.7475759  60.8219726  80.9915265  74.4555169  61.3553060
  81.3889273  72.9961926  61.4138830  52.9459572  65.5731297  25.7877779
  53.2867575  65.4603195  24.9004436  52.3031425  66.2780476  25.7096457
  48.4796524  57.3092604  63.5070133  48.7561464  57.6357126  62.6507330
  48.8569593  56.4312744  63.5618591  24.7962117  64.9431896  23.9772916
  24.7546935  65.0177288  24.9306822  24.7549415  64.0018749  23.8086176
  27.1201158  70.9595299   7.6745504  27.8425550  71.5856552   7.6268184
  27.2943354  70.4528189   8.4677261  47.3544550  73.1931353  14.4496620
  47.7569628  72.3580265  14.2113078  47.5748825  73.7802935  13.7265503
  65.8553345  11.7472502  67.5730950  65.9904159  12.2503706  66.7700679
  66.6773076  11.2734505  67.7000088  26.4827704  66.6885614  39.3954802
  26.7391658  65.9059811  38.9075613  25.5443144  66.5785980  39.5485783
  55.8690036  34.4847151  55.4959798  56.1111606  33.7718626  56.0871089
  56.6965736  34.9228473  55.2974785  80.4224001  20.7896032   6.4491457
  81.0921990  20.7201376   5.7688719  80.1238190  21.6976823   6.3994408
  60.6613588  76.9035196  27.0401597  60.0647831  77.5314426  27.4476457
  60.5980778  77.0866013  26.1027670  53.4725475  75.7661390  35.3434539
  53.0466652  75.3988934  36.1180425  54.2747164  75.2531767  35.2453208
  76.0896606  20.1566168  62.9880036  76.8545051  19.7223421  62.6103140
  75.3444869  19.6425243  62.6771057  61.2987089  60.6340265  22.9973555
  61.7270470  60.8184099  23.8332748  61.4257669  59.6945429  22.8652143
  67.7060830   8.1427278  11.5844214  67.9210101   9.0734567  11.6459620
  66.7644726   8.1251611  11.4132786  49.4652319  70.5280447  26.7332578
  49.8245955  70.1768732  27.5479794  48.5290766  70.3343105  26.7812800
  79.7498150  36.3548752  56.8607701  79.0732546  37.0077844  56.6813040
  79.3087764  35.6931682  57.3935569  80.7084881  11.5669908  29.3046570
  80.7898938  12.4865999  29.5574737  79.7784935  11.3694849  29.4157028
  36.2272215  60.6766462  11.9808054  35.6407738  61.4325094  12.0121145
  36.9252110  60.9397316  11.3809454  46.4224886   3.3425893  29.5223761
  46.3473736   2.4649229  29.1478276  45.7472144   3.3723631  30.2001286
  77.0614182   8.6942186  10.1223409  76.4364563   8.7470045  10.8454370
  76.5296446   8.4554281   9.3631119  54.7096395  67.9863071  18.9545965
  55.0553274  67.6564264  19.7839999  54.5167351  67.1990347  18.4454572
   3.2865243   4.5900430  33.9888334   4.1926293   4.3057241  33.8689709
   3.1936364   5.3452196  33.4080529  40.6750978  36.9176336  57.5392223
  40.7032598  37.1871754  56.6211880  41.0020555  37.6768204  58.0218852
  29.1646981  71.7780447  19.1639769  29.4171739  72.4508762  19.7962630
  28.2090664  71.8239641  19.1341126  38.0522537  47.5610495  25.1451373
  37.3077536  48.1093454  25.3927684  38.6359715  48.1509447  24.6681380
  32.5092888  71.6135645  10.7115555  33.4503126  71.5534019  10.8761466
  32.2078109  70.7050800  10.7102513  31.5573144  71.5583801  15.8808589
  32.4841857  71.4116621  16.0695779  31.0948467  70.9821272  16.4893746
  60.8948898  64.3650341   7.2067899  61.5639305  64.7968626   6.6756237
  61.3649559  63.6671734   7.6631439  39.8667110  18.5452743  36.1451388
  40.6421102  18.0190988  36.3403941  39.1293300  17.9702087  36.3495780
  30.2050413  37.9835554  61.6537303  31.0711301  37.8523966  62.0396245
  30.1744379  38.9173790  61.4457125   5.5615907   3.5911836   0.8292548
   6.1556201   3.9711275   0.1819542   4.7054296   3.5971918   0.4012558
  75.2555323  67.5614262  15.5604720  75.7346869  67.2015905  16.3069022
  74.3498755  67.6226902  15.8642292   0.4816894  63.7393665  39.9935007
  -0.3813103  63.9616919  40.3428364   0.6235240  62.8324413  40.2647972
  67.8151131  60.3442574  20.2781177  68.2408047  60.6718397  19.4858360
  67.0420361  59.8783636  19.9594843  82.7070032   7.7558794  18.9416039
  82.0553814   8.4362020  18.7719762  82.2242438   7.0723714  19.4063616
  73.0213248  32.6383485  21.9959974  73.6109434  32.2049513  22.6130486
  73.1743895  33.5729971  22.1346688  45.8472109  69.5555830  12.7748358
  45.1356840  69.3093204  13.3658659  46.6255903  69.1473246  13.1538999
  10.3540195  23.4983774  31.0384083  11.0201515  24.1770264  31.1476637
   9.5219935  23.9617630  31.1345196  40.9552622  76.4569807  13.4886897
  41.3211584  75.7790852  14.0568507  41.6517925  76.6435194  12.8591776
  53.2320296   5.9709253   3.5368475  53.7027847   5.3110685   4.0459779
  53.7528860   6.7676630   3.6375648  19.8296027  11.2946977  51.4589214
  20.3872924  12.0722665  51.4342117  20.4365115  10.5613699  51.3583517
  12.8378224  73.1299782  26.9348764  12.0397902  73.5031319  27.3092222
  12.6137733  72.9529810  26.0212541  37.7480197  54.2101812  18.0622756
  37.1090579  53.9620495  17.3941505  37.8702974  53.4165239  18.5832274
  63.9947950   4.8321428  16.0176396  63.5056650   5.6517400  15.9452760
  64.7250353   4.9343290  15.4072833  82.3640437  47.5260397  67.2685005
  82.8845138  47.1513124  66.5579224  82.7897782  47.2145696  68.0672298
  42.8872252  57.6021767  26.5637088  42.0366001  57.1657944  26.5163636
  43.4004927  57.0618725  27.1644235  22.7382140   8.6051740  42.8986740
  22.5531869   8.6991491  41.9642401  23.5219436   8.0567445  42.9336834
   0.4640584  12.9377927  24.4862604   0.2265601  12.0397463  24.7172141
  -0.0119109  13.1100263  23.6738443  46.2450314  79.3294811  23.3499622
  45.7316256  78.9554119  22.6339197  45.8790779  80.2050686  23.4751081
  83.0157885  57.4709749  25.7391071  82.2101986  57.4488163  25.2226138
  82.9174416  56.7552948  26.3670874  73.3788811  11.2535371  15.1738644
  73.4144961  11.6328230  16.0519886  74.1287409  11.6352167  14.7175097
  79.5241581  21.3658991  37.9025531  80.0690638  20.8678426  37.2932553
  78.7533890  21.6098680  37.3900867  27.3779559  47.2335958  22.2504210
  26.9464898  47.8323650  21.6408753  27.8630471  47.8056574  22.8451180
  80.8102417  63.8845205   8.2265610  80.7040024  64.1438198   7.3112959
  80.7551289  62.9290104   8.2127440  63.0126463  29.6575822  40.9475422
  63.9399682  29.8331823  40.7879400  62.6866375  30.4542150  41.3662720
  10.2300657  25.0418897  52.3700655   9.9266447  24.7906347  53.2424403
   9.7011293  25.8068605  52.1436155  24.2008400  52.5375080   1.7591307
  24.9639654  52.1627855   1.3192940  24.3354702  52.3364544   2.6852429
  65.1186432  25.6444116  66.8204991  65.4827137  25.3825613  65.9748519
  65.8715643  25.6585356  67.4113814  16.4662504  26.3892794   8.0777848
  16.2089443  26.2564802   7.1654308  16.0459161  27.2120929   8.3278465
  59.9904310   7.0689001  47.4848175  60.9441196   7.1272554  47.4273443
  59.6902548   7.1547212  46.5799618  47.0038843  57.0394754   4.1479740
  46.8294287  57.9490280   4.3898761  47.8084278  57.0792484   3.6309046
   4.8095435  71.3519907  45.9578848   4.0135783  71.0869646  45.4969740
   5.3331298  71.7999697  45.2935076  60.9875631  60.9182978  11.6993105
  60.1307058  60.5006075  11.6123402  60.8673477  61.7915010  11.3260889
  52.6132666  16.3836183  21.5934849  52.2199332  15.7476225  22.1910000
  52.5139009  17.2246542  22.0395923  46.8501949  34.7055268   0.0999423
  46.5620136  35.3846240   0.7098681  47.1723270  35.1882863  -0.6612471
   2.1467894  79.8135233  27.1713877   2.6888770  80.5442715  26.8740916
   2.2114867  79.8401833  28.1260276  38.4177184  77.3297834  14.3049073
  37.9155970  77.0254230  13.5489500  39.2992043  76.9854021  14.1613328
  11.4871602   6.3848772  39.5851660  10.8164888   6.7698087  39.0210295
  11.6476016   7.0499410  40.2546263  36.7823172  51.4128971   9.5241714
  36.6856527  52.3566055   9.3964738  36.2643480  51.2227440  10.3063357
  34.6234452  21.6387453  43.9225054  33.9455288  22.1321764  43.4607840
  35.2667015  21.4253606  43.2465458  59.5617867  46.2065744   8.4430581
  59.4906998  46.1104822   7.4933505  59.8969173  47.0942211   8.5695624
  27.1072345  17.2931184  15.7480252  28.0225997  17.1732702  15.4950964
  26.8245082  18.0688181  15.2636850  32.5981879  78.2077789  17.4028349
  32.4695921  77.8204775  16.5369880  31.8053460  77.9787779  17.8878033
  59.1654049   7.2580137  44.7420931  59.6369921   6.5403356  44.3192816
  58.2410203   7.0512190  44.6043158  42.7278137  56.3449430  16.7424726
  42.4105024  57.1507072  17.1502554  41.9914055  55.7370138  16.8084717
  36.7332606   9.7784795  33.6611724  36.9975429   9.5065488  32.7822876
  36.5703731   8.9582052  34.1268420   7.5642890  62.0089912  15.0310600
   7.8068560  61.8132877  15.9360981   6.6084498  61.9586611  15.0230396
  45.8205925   0.0606432   3.8780543  46.1931561   0.4365434   3.0804801
  45.3498947   0.7864847   4.2877239  42.8463281  68.3694216  56.0624469
  42.0797647  68.4424253  56.6310263  43.4923900  68.9566561  56.4548588
  29.5122541  31.2366577  64.4999087  29.6826233  30.3047510  64.3629403
  29.4152845  31.5946384  63.6174817  10.4123653  18.6520429  41.7654253
  10.4820574  17.7513500  41.4489961   9.9383939  18.5788771  42.5938130
  53.8062811  77.2612858  46.7652321  54.5161533  76.9422150  46.2079954
  53.5466337  76.4988518  47.2824478  41.4882898  49.8129797  25.4136300
  41.4150095  50.6263256  25.9129596  41.1818838  49.1342783  26.0150504
  15.0180869   6.3205995  15.1942194  15.0336557   5.5693521  15.7871830
  14.9132304   5.9365358  14.3237424  47.4743366  68.1132460  33.5527825
  47.0381832  67.3584270  33.1574869  48.2936764  67.7613211  33.9007282
  82.1686382  36.9367643  50.6701911  82.7083058  36.2234493  50.3293443
  82.1845145  37.5999208  49.9801160  70.4676615  19.0201845   3.0487177
  71.0516297  18.3150377   3.3279881  70.8884846  19.3856134   2.2705126
  33.3195305  52.9899788  24.4000220  32.6645637  53.5160446  24.8588324
  33.7866926  52.5284386  25.0964189  13.1543697  42.7097555  67.5408991
  13.4243549  42.4569937  68.4237644  13.2110036  43.6652704  67.5374590
  20.5775046  53.6467075  43.2802820  20.0658417  53.1467009  43.9162302
  20.4999208  53.1492138  42.4662113  29.5037855  21.3886543  47.1254397
  29.5623554  22.1342178  46.5279937  30.4076255  21.0894819  47.2244359
   9.8747444  68.9301062  26.4825439  10.6048024  69.5375776  26.6018200
  10.2550626  68.1878805  26.0127711  84.3984400   6.9878282   0.9858029
  83.6044346   7.5130930   0.8863831  85.0407444   7.4150266   0.4190733
   2.9084163  14.2685976  43.0123949   2.6603561  13.4687032  42.5488615
   2.1438699  14.8388948  42.9320049  22.8309167   1.3026758  54.3816639
  23.4727014   0.8608957  53.8256324  22.5764860   2.0792814  53.8832820
  28.5698485  55.7212496   6.6777563  28.5848904  54.8395205   7.0500022
  28.4309864  56.2965155   7.4300975  27.2201872  75.8236313  53.2113314
  26.9351292  76.3930082  53.9260244  27.7817392  75.1730633  53.6328173
  36.1599493  68.2850790  22.9341102  36.7179322  67.6027727  23.3073997
  35.8102012  68.7506866  23.6937904  24.7575212  71.7646694  11.7283201
  25.4563141  72.3045111  11.3588750  25.2078915  71.1619616  12.3200464
  51.3654423  78.2495165  10.2409351  51.8798065  77.9295635   9.4997942
  51.4478827  79.2021132  10.1962459  61.8136584   8.9994707   9.9061531
  62.4366962   9.6608152   9.6050125  61.0065495   9.1967573   9.4308800
  77.6201187   1.5158167   7.3730755  77.3906218   1.2083521   8.2500160
  77.5751006   0.7322588   6.8251336  36.7897285  37.3999735  58.9834154
  36.8953241  38.1299682  58.3733452  35.8479036  37.3612448  59.1498447
  27.9978371  68.3013344  34.3774033  28.1579638  67.4390793  33.9938545
  28.0063653  68.1484985  35.3222847  64.9864398   0.3377523  45.4999971
  65.3573619  -0.3112994  44.9021816  65.0336038   1.1628046  45.0169945
  44.7092079  16.2575044  26.7137432  45.5211626  15.9683695  27.1301055
  44.0804910  16.3202753  27.4327731  50.4987001  56.8121195  35.3893304
  51.3981724  56.8842697  35.0700045  49.9867678  57.3522520  34.7873187
  73.8642330  48.1125685  37.1375681  73.6687035  48.8851209  37.6678157
  73.6416812  48.3729597  36.2437559  17.2682052   6.7324438  12.7050543
  16.8144565   6.9508352  11.8910193  16.9247632   5.8724775  12.9474139
  75.2515168  21.5833374  13.5109616  75.5967851  21.9830652  12.7126837
  76.0037584  21.5387626  14.1011954  19.1268171  20.2412935  68.1293978
  19.1161741  20.7444187  68.9436376  18.2610429  20.3854509  67.7474443
  76.6501427  62.6164389  25.5600524  75.9906483  62.2381258  26.1415815
  77.3270559  62.9487133  26.1496449  76.0416889  72.8890705  32.6065254
  75.7817698  73.6519051  33.1230092  76.9471788  72.7205944  32.8671598
  36.6154207  30.1118799  60.5484462  35.8532060  30.5447050  60.9330595
  37.3515237  30.3977772  61.0894132   5.9201757  29.3705744   1.0948896
   5.3587381  29.1087335   0.3651904   6.8099181  29.3047994   0.7481002
  36.1982692   7.9915901  60.1046658  37.1045936   8.2658954  59.9647958
  36.1730589   7.7045389  61.0174621  27.6831306  37.0143886  50.9101761
  26.7579235  36.8576237  51.0989881  28.1486333  36.6138025  51.6443885
  50.2274227  70.8909702  33.0166221  50.6397963  70.3738165  33.7085247
  50.1272583  71.7635441  33.3971691  78.3307171  62.1428919  16.4094090
  78.8042688  62.8676796  16.8176520  79.0165710  61.5393591  16.1237633
   0.6436909  24.7449203  67.5409260   0.8093346  25.2749964  68.3205495
   0.3729666  25.3767486  66.8747920  49.9774694  79.3858480   5.5585116
  49.4582891  78.7028694   5.9830356  50.7348156  78.9230299   5.2000940
  48.0700873   5.3671636   6.7593265  47.1605145   5.6637849   6.7288792
  48.0528282   4.4997968   6.3548368  71.5362822  12.7322950  11.0037041
  71.2007700  12.0894804  11.6285646  72.1710860  12.2461118  10.4775047
  80.4407059   1.4346685   7.4190551  80.2339207   2.2863855   7.0342785
  79.5895373   1.0144128   7.5420696  69.6085019  78.2739874  62.4188436
  69.5697672  77.3250910  62.2991020  70.3127749  78.4067770  63.0533493
  72.5697660  67.2606421  34.8827767  73.2323074  66.8517017  35.4395914
  71.8225336  66.6636848  34.9217343  35.0327134  49.1245461  12.2642028
  34.9610496  48.5612297  13.0347645  35.9747601  49.2181683  12.1227288
  69.4299889  68.4481239  56.9819784  70.2540684  68.9127159  56.8361092
  69.5227051  67.6345539  56.4862585  45.1470714  13.7638178  18.4811270
  44.6441512  13.8632478  19.2894685  45.3441100  12.8282442  18.4351671
  49.6453680   7.6664682  69.1970153  49.4768394   7.6476379  70.1390740
  49.0512146   7.0095058  68.8342312  21.1841488  76.1137199  13.4113133
  21.9735837  76.5698910  13.7027419  21.2238383  75.2631378  13.8485360
  36.6517997  76.1678982  18.2247162  37.2832346  76.8624640  18.0373693
  35.9590435  76.6019201  18.7226546  75.2976305  36.2726351  54.6199430
  75.4119236  36.9185491  55.3170503  74.6519227  36.6656824  54.0327442
  56.9248343  79.6003771  55.2331448  57.4413300  80.0719643  54.5796394
  57.3191404  79.8432398  56.0708618  35.7213939  21.8428894  59.0032817
  34.8286070  21.7878910  58.6624957  35.6769003  21.4199777  59.8608363
  48.8646507  62.9503536  18.9263403  49.4413471  62.8616524  19.6851468
  48.0211782  63.2116699  19.2957973  57.0911980  61.0497189  18.2216561
  57.4367857  61.7589712  18.7636590  56.2388945  60.8470488  18.6073148
   7.7706151   8.4279432  29.1431403   7.1992974   9.1088953  29.4982910
   8.2552915   8.8635721  28.4420347  36.3664412  51.1804199  21.4691544
  37.2999454  51.3709354  21.5613866  35.9280896  51.9617558  21.8061924
  57.0469856  66.4265728  55.8988762  56.3446236  66.6579008  56.5066671
  57.5241089  65.7240009  56.3404369  40.5173277  12.7037801   5.4007006
  40.0735449  12.4335947   4.5967802  40.9294878  13.5384645   5.1778322
  64.5766878  41.9438839   8.8142943  64.5889854  42.8999329   8.7690312
  65.3110743  41.6686583   8.2655132  28.2960534  55.5000544  49.7787905
  28.7442160  54.9424458  50.4147577  28.6791563  56.3675404  49.9089289
  58.7405905  49.3476911  62.2097088  58.9202797  50.2635523  62.4221445
  58.4052819  49.3710371  61.3134635  63.4027719  68.3450317  38.6927032
  63.3976793  69.2492247  38.3786225  64.3296337  68.1083012  38.7260962
  20.2504171  50.9694048  62.8182853  19.6062292  50.3812166  63.2123554
  20.0496067  51.8282457  63.1901628  79.2338467  63.7616539  33.0110145
  79.5860767  64.0336370  32.1635532  79.0296793  64.5820093  33.4599686
  54.1547953  10.7058134  31.2186742  54.9205576  11.2571706  31.0578823
  53.7824117  10.5538835  30.3500676  71.9424200  76.2745333  27.0943713
  71.5801764  75.7959700  27.8400207  72.5184488  75.6440210  26.6620803
  72.6162291  59.0614939  25.7767367  73.3218098  58.4731817  26.0455847
  72.9761410  59.9396849  25.9011364  83.8201904  71.1980486   7.7124435
  83.0115604  71.5787888   8.0550611  84.0562153  70.5238295   8.3495897
  40.3897815  13.5534181  46.4508533  40.2537112  13.3486738  45.5257607
  39.6554618  14.1227998  46.6806698  39.0596414  73.5621119  44.4527102
  39.6982718  74.2209864  44.7252274  38.2642078  74.0615273  44.2680407
  48.2639257  20.7864565  19.2726611  47.9818050  20.4744715  20.1324939
  47.8091852  20.2184433  18.6507224  73.2345724  40.9791231  28.3719492
  73.8628340  41.6982269  28.3055449  73.1333494  40.6657457  27.4731827
  65.8260547  16.6807260  26.2650084  65.5140554  15.8428659  25.9231281
  65.0609719  17.2547044  26.2271452  71.4292847   8.8946142  20.1021791
  71.3953768   9.1255178  21.0304928  71.7240845   7.9839983  20.0924802
  42.7346052  27.6487156  50.0888062  42.8364671  26.8332859  50.5796493
  41.8044199  27.6789804  49.8650361  73.6467838  71.5678406  41.0485458
  74.4691181  72.0240211  41.2271404  73.6042404  71.5157795  40.0937128
  63.6079550  58.0254889  20.4369736  64.2864513  57.3564243  20.3462601
  63.4910059  58.3696127  19.5514584  42.5942146   8.1385793  12.7201104
  42.9369413   8.7915506  13.3303583  43.2678186   7.4590482  12.6932240
  58.9194155  78.3867979  11.3299298  58.6334896  77.7806473  12.0133471
  58.2427549  79.0635729  11.3116264  73.1074273  13.6457624  24.9402452
  73.7015950  13.8308229  25.6675339  72.2324788  13.7148561  25.3222394
  24.5327486  18.4242149  60.8302594  24.3307747  17.6233908  60.3463931
  24.5915235  19.1023155  60.1572425  55.0263119  72.6841354  16.1771798
  55.3513098  71.8001556  16.3480163  54.3889713  72.8436947  16.8732893
  45.7847404  76.1708546  39.0517497  45.2953005  75.3506660  39.1147423
  45.3706837  76.6419315  38.3286476   2.5282102  21.6759481  15.2910018
   3.3150249  22.2045602  15.4241264   2.6912170  20.8744039  15.7881856
  48.3728313  68.0994654   8.4078652  49.2173672  67.7028608   8.6216307
  48.0523205  68.4442329   9.2413139   8.4231967  57.6965094  41.9755459
   8.4776419  58.6265421  42.1953344   8.3301181  57.2558498  42.8201675
  70.5714070  31.6579713  24.0601993  71.1250101  32.3848047  23.7747622
  71.0236489  30.8748712  23.7464333  59.3987608  72.4776936  23.7928915
  59.6630764  73.2682037  24.2634940  58.4486866  72.4397326  23.9031100
  39.8358787  40.9614511  64.1966010  40.0999797  40.7568785  63.2995874
  38.8877119  40.8304067  64.2029066  66.6668129  52.9775667  39.4362688
  66.4427614  53.6499071  40.0796890  65.8706474  52.4531364  39.3507147
  76.7452084   8.2022657  14.2290950  77.1561276   9.0538015  14.3783057
  76.0734736   8.3728780  13.5688663  19.1351657   8.5664930  53.2437706
  19.8081498   9.1793432  53.5399628  18.4173112   8.6795892  53.8667679
  56.1594928  34.3960234  67.8140748  55.8675064  34.4864412  66.9069905
  56.1691822  35.2911850  68.1529305  44.2461157  59.0157843  17.3550630
  44.5679617  59.8730612  17.0762801  43.2938766  59.0829325  17.2845638
   3.7161673  54.1440912  67.1939934   3.4456242  53.4218450  66.6270731
   4.1971291  53.7224050  67.9060922  12.4081473  14.7387018  58.8413334
  12.5328593  14.7982778  57.8941631  11.4580922  14.7284212  58.9576435
  71.4373480  30.5212011  52.0562363  71.4190899  31.0679140  52.8417349
  72.1537482  29.9052133  52.2097445  71.4707041  53.5712862   4.9629334
  72.1887302  53.6158133   5.5943489  71.8185425  53.9886332   4.1748589
  25.2385068   9.3041331  25.8162522  25.3452611   9.0144151  24.9102163
  25.9421897   9.9392825  25.9491014  20.3759074  41.4542341  12.6377881
  19.7300231  41.0494280  13.2167494  20.9354568  40.7293129  12.3591673
  47.5608655  62.1927315  30.1758552  46.9313868  62.4479157  29.5014144
  48.3114620  62.7694017  30.0334168  26.8359923  22.2987461  14.0156364
  26.5910363  23.1430769  14.3942261  26.6636872  22.3971057  13.0792236
  34.3638229   6.5395623  19.0893471  33.5099292   6.7065215  19.4883752
  34.4073343   7.1493238  18.3527803   7.2975850  14.7750628   9.7048265
   8.0744827  15.1238954   9.2678165   6.7705458  14.4046605   8.9968270
  75.8252104  66.9356900  62.4032093  76.5261229  66.2850076  62.3636765
  75.0510319  66.4736205  62.0816887  57.5215777  75.9656840  39.2390609
  57.7970274  76.8797976  39.1701055  57.3015817  75.7135230  38.3422614
  19.6425354  31.7799568  20.5462813  19.3258500  31.2077498  19.8473394
  19.7594941  31.1983347  21.2974596  50.3970337  36.9348717  12.3665977
  50.8402538  36.3040757  12.9339445  51.0377455  37.1346617  11.6841006
  12.5907683  26.8613958  22.3060274  12.0635271  27.1926260  21.5790224
  11.9772470  26.3495255  22.8331041  48.6322069  26.4183807  12.6282096
  48.7045050  27.2812533  12.2202194  48.2156706  26.5871835  13.4733331
   5.3230560  30.5091000   4.8037094   6.2355483  30.6975174   5.0229985
   5.0034463  31.3142037   4.3964136  49.8902321  34.1990137   0.3057316
  49.1792250  34.4330931  -0.2908481  49.4705915  34.1306090   1.1633169
  32.6309538  33.2886624  31.0298562  32.5369596  33.8048697  30.2292752
  31.7337084  33.1547880  31.3352442  39.4919276   9.1535342   2.0990117
  38.9436674   9.5361954   1.4140195  39.5164490   8.2192725   1.8921649
  77.2865208  55.0357622  60.2063728  77.5665148  54.1354710  60.0411195
  77.9999503  55.5749541  59.8650218  66.4885076  66.0592323  53.6334325
  65.7000454  65.7576686  54.0846730  67.2068318  65.8139807  54.2166091
  37.3721814  40.0255537  24.2822742  36.5260553  39.6662474  24.5491123
  37.1517372  40.7311440  23.6741781  55.6425667  10.5114412  18.4680653
  54.7385597  10.2645457  18.2730293  55.8430386  11.2036514  17.8380740
  15.9007478  15.9019578  21.2392545  15.3908932  16.1383307  20.4643941
  16.0336161  16.7301869  21.7003536  37.4910593  22.2858787  27.4616957
  36.9918847  22.8513527  28.0510116  37.5715852  21.4579606  27.9352999
  26.5127254  18.1776512  12.5272965  25.6418371  18.4038556  12.2007692
  26.3794231  17.3721492  13.0269253  70.2301354  29.6144625  62.9524416
  69.8807020  28.7269350  62.8722835  70.0563724  29.8590942  63.8613922
   5.0831105  77.0850140  64.3584109   5.8257320  76.4929873  64.4777805
   5.4274108  77.7948481  63.8163543  20.0295266  42.6138022  69.0864254
  20.6394233  42.0294027  69.5366865  20.4240306  42.7547046  68.2257599
  36.6595721  46.2231302  29.2457342  36.9316268  45.4134321  29.6777105
  36.8698668  46.9128084  29.8753047  13.4898126  42.7396250   0.4394132
  13.5383844  42.2919083  -0.4052290  13.5573316  42.0377636   1.0867620
  14.3740582  35.6269169  13.3085740  13.9037216  35.0861311  12.6740932
  13.8929665  36.4543343  13.3213103  41.7207766  37.8020477  10.9718478
  41.2923002  37.3885679  10.2223969  42.6564169  37.7266073  10.7844532
  28.3103251  20.4999352  40.8435297  28.4310913  21.1918592  41.4938307
  29.1931915  20.3161168  40.5226088  43.8324451  13.6546052  20.7646608
  44.2074299  13.1229317  21.4667583  43.5882425  14.4762242  21.1907339
  49.4416793  48.1623512  62.4311525  49.3283041  48.5309958  61.5550936
  50.3629120  47.9046631  62.4651910  84.9239115   3.4612095  12.0127010
  85.3510160   2.9504007  12.7003694  84.1569984   2.9423046  11.7701864
  31.2421727  10.6216073  36.5879560  30.9142303  10.2429366  35.7723022
  30.4955053  11.1013532  36.9465160  77.1076544  63.4797126  58.3959664
  76.5369519  63.7306887  57.6696444  77.8082617  64.1318566  58.3864594
  14.3491411  45.6611443   5.5338567  14.3080223  45.0258589   6.2486678
  13.4522521  45.9845972   5.4490000   3.6803320  34.5767117  17.3877811
   4.1257501  34.9309564  16.6181421   4.1557851  34.9472117  18.1313574
  30.7229913  27.1959730  59.8374731  30.5799688  28.0007788  59.3394125
  31.6375555  27.2457310  60.1155568  57.8165015  75.0380307  62.8896189
  58.7562688  74.8636800  62.8379131  57.6345404  75.5963570  62.1337116
  32.9618382  49.1847086  15.8368456  33.6117864  48.8348579  15.2274191
  32.2191358  49.4251299  15.2829313  25.1422524  39.2816257   0.4636393
  24.2149091  39.1620994   0.6685302  25.5868411  39.1960406   1.3069947
  81.3183498   4.0974528  17.2369301  81.2939739   4.8033056  16.5908575
  82.0304966   4.3392313  17.8290665  12.9216541   7.0384212  69.0436762
  13.5238136   6.3086649  69.1889039  12.9713882   7.2063442  68.1026343
  52.8706121  70.3617001  26.6900206  52.1388578  70.1604843  27.2733569
  53.6481619  70.0946999  27.1802855  17.0392431   8.6923977  33.1360722
  17.6279653   8.4779592  33.8597108  16.6514124   7.8537079  32.8862453
  32.5540781  34.4280720   5.4773879  32.4328136  33.4916830   5.6345558
  31.6850400  34.7439122   5.2299011  38.2960224  36.6280603  25.8381820
  37.4578261  36.8150616  25.4154634  38.9149666  37.2246003  25.4171371
   4.9289109  72.5201422  66.8092693   5.2597596  72.3972899  67.6990314
   4.9726035  71.6489774  66.4150713  71.4982041  70.6450039  56.0771049
  72.3242529  70.8083707  56.5322841  71.0069331  71.4610034  56.1721135
  17.9955149  44.4577312  36.7147779  17.2571325  44.4933319  37.3228550
  17.8247714  43.6854601  36.1756325  78.4394892  64.1279989  67.6617908
  78.3791884  63.6655360  66.8258939  79.3765124  64.2805558  67.7840603
  40.1608419  40.5454969   7.3825747  41.0465336  40.3011179   7.1141392
  39.8574305  39.8058176   7.9089272  21.9895280  19.3854423  57.7375842
  21.5820898  20.1777502  58.0875505  21.5753091  19.2602011  56.8837894
  81.1706347  32.1505543  60.7870109  81.9459243  32.5412031  60.3838343
  81.2389703  31.2177845  60.5832709  68.3323336  77.0503187  36.4864016
  67.6813889  77.5600004  36.9688201  67.8426504  76.3057089  36.1371183
  15.5510881  52.1959764  52.1653593  15.4848935  53.1433695  52.2849179
  15.4121043  51.8338400  53.0404437  44.8458052  52.9181099   2.3513350
  44.8496485  52.2063589   1.7113118  43.9644241  53.2870436   2.2939691
  39.7734189  54.4742918   2.9028612  40.6122541  54.6617985   2.4816343
  39.4635010  53.6762476   2.4747185  43.4722805  44.4529819  15.8172750
  43.5583639  45.3024387  16.2499893  44.3556833  44.2503929  15.5094063
  54.1248878  56.3128275  66.1713005  53.1971224  56.4329725  65.9686909
  54.1547736  56.2447244  67.1256069  76.0536671  20.4880166   2.9815739
  76.9558907  20.6815696   3.2360667  75.5395746  21.2005448   3.3613628
  13.7884404  61.3721377  58.9030755  12.8439977  61.4798242  58.7905515
  14.1186931  61.2152439  58.0184580  63.4843493  14.0846395  11.3582468
  64.4390297  14.1508222  11.3374019  63.2897997  13.6955154  12.2108686
  39.2312741  64.6775579   0.2387196  40.1603031  64.9015427   0.1841947
  38.8204384  65.4517269   0.6235701  30.5296063   1.2423172  18.7768328
  30.6272268   0.9223966  17.8799760  30.1961565   0.4893433  19.2647612
   7.4156631  26.8572660  61.2419761   6.7141546  27.2003218  60.6884146
   8.2197775  27.0662828  60.7666433  46.8162298  53.6093092   5.0668937
  46.0505819  53.8765717   5.5754083  47.3948717  54.3715572   5.0866669
  31.1065830  69.2576728  11.2879872  31.4843095  68.3830116  11.1956632
  30.7153333  69.2586158  12.1615756  71.7093810  57.0743257  55.9254277
  72.6156100  56.9703954  55.6352926  71.3782652  56.1794835  56.0019327
  41.6800165  40.3866386   4.3855566  42.1505117  40.0381565   5.1428032
  42.2808027  40.2599764   3.6512244  56.4717817  69.7252321   4.8777473
  56.0138798  68.9227581   5.1279372  56.3149357  70.3272343   5.6052256
  55.2715930  78.9159328  49.8995805  55.5881508  78.4218174  50.6558026
  55.7515677  79.7432929  49.9360932  16.7059053   4.3244406  64.4124813
  17.5669874   4.3765922  63.9976895  16.2518085   3.6300035  63.9352096
  47.7850485  30.5300117   5.1047200  48.4295368  31.1110997   4.7007361
  46.9556665  30.7667637   4.6896249  15.0839199  17.4485346  68.3882335
  15.1959242  16.5904184  68.7972837  15.2204670  17.2884031  67.4544530
  23.3425808  39.1908836  31.5435314  22.7866244  38.8849354  30.8269119
  24.0464497  38.5441208  31.5935087  66.5402063  71.7027599  63.7304599
  66.5835126  71.1208206  64.4892121  65.8291420  72.3101288  63.9347202
  35.4582133  48.0152738  60.7364757  36.3417938  48.3793211  60.7911325
  35.4594823  47.2888541  61.3598091  39.1763779  38.4162804  67.8550925
  39.8232420  39.0606708  68.1424261  38.3321520  38.8088927  68.0772842
  43.9365673  61.1590052  22.4423623  44.0121317  61.1352730  21.4884448
  44.0604877  60.2498960  22.7151299  10.8839310   4.4259449  46.2210727
  11.6383613   4.9094959  46.5575863  10.4419101   5.0454708  45.6405259
  35.9006663  74.5429569  57.0933164  35.6819560  75.3805667  56.6848922
  35.9490480  73.9258653  56.3631869  41.1467791  55.3552485   7.6222056
  40.4713202  54.6952868   7.4658614  41.5806770  55.4591656   6.7753494
  20.5678296  13.0407929  31.7907929  20.1265860  12.1934545  31.7312002
  20.4578686  13.3043671  32.7043962  53.6537647  58.8599348  58.5307646
  54.4690180  58.8703871  58.0292845  53.9000320  59.1892099  59.3951511
  43.1912204  62.7812725  24.6191931  43.7108108  62.4716216  23.8773204
  42.3623987  62.3081857  24.5451976  47.7269363  19.7399497   2.9031172
  46.8739510  20.1234674   2.6992491  48.2271385  20.4594326   3.2883117
  21.0278940  30.7732034   7.6722395  21.0498881  31.3059449   6.8772978
  20.5590701  29.9791455   7.4155170  12.4878133   5.6839128  60.2471799
  12.3061002   4.8480268  59.8176397  12.6351417   5.4546352  61.1647630
  41.2108863  10.9976526  62.8629429  40.9094013  10.1217266  62.6219190
  40.5423368  11.3237234  63.4653927  82.1763810  56.3502163  49.2862940
  82.6450547  56.9573373  48.7136007  81.5870102  56.9072491  49.7948099
  37.4929857  32.1594501  -0.0267997  37.6946807  33.0937338  -0.0783989
  36.5520740  32.1267295   0.1459684  62.8485107  23.4919906  16.6429389
  63.7023973  23.1651354  16.3596177  62.4332285  22.7409863  17.0669258
  16.1958814  29.6382356  21.2772822  15.9117746  28.9111805  20.7232904
  15.4035747  29.9102998  21.7403841   9.9631966  15.6964536  66.5549467
   9.2869319  15.0374409  66.3980944   9.8262132  15.9689613  67.4622539
  75.5886805  15.4612768  16.7389894  75.7308060  14.5185649  16.8245888
  75.5480295  15.6125987  15.7947004  13.5820116   6.1526199  44.7459627
  13.7110151   5.2197786  44.9174166  14.1897596   6.3515182  44.0337039
  77.0951041  67.6764756  68.6834624  76.5277680  66.9063860  68.7197780
  77.6548584  67.5982338  69.4559829  51.5692030   9.4356050  18.1695056
  52.3498474   9.0166368  17.8071642  50.8490478   9.1057291  17.6321149
  85.4235037  73.6463791  49.6405280  85.1867398  74.2721516  48.9559985
  84.6132382  73.1692344  49.8195124  22.1748233  62.0477676  16.4467883
  22.8849792  61.4515400  16.6843212  21.8643379  62.3955297  17.2827864
  34.4872284  50.3664494  29.3593049  34.5034170  49.5248079  28.9036608
  33.9538884  50.9313250  28.8001108  51.3447571  42.8169584  20.8582711
  51.2705946  43.3877993  20.0935006  51.3969898  43.4178686  21.6015148
   0.4606928  16.6659923  51.7492378  -0.2182185  16.0059114  51.6092194
   0.0794543  17.2703310  52.3861564  75.7444723   6.9670339  67.6404669
  74.8291392   6.8554207  67.8972553  76.0557599   7.6976486  68.1748224
  81.6227683  36.9100636  54.9878634  80.9932574  36.6900110  55.6745434
  81.4674862  37.8374624  54.8088349  39.7863388  63.2460213   4.4746464
  38.9295530  63.5883999   4.7294569  39.5875096  62.4957323   3.9144966
  63.6668025   3.6978330  20.5419254  63.8105666   2.9879751  21.1677504
  64.3991720   4.2968931  20.6868482   1.9311131  79.5148773   4.6589324
   1.4809455  79.5063934   3.8142377   1.4640607  78.8663859   5.1857662
  31.6233301  31.1514115  17.7418482  30.8191109  30.6946540  17.9884970
  32.3165059  30.6852174  18.2091796  73.5309418  65.7595378  46.1349583
  73.2191571  64.8667079  46.2828780  74.4237288  65.6502968  45.8074976
  26.1016011  52.1242952  31.6361666  26.7830086  51.9998837  32.2968006
  25.9153152  53.0629396  31.6580462  77.7191062  21.2907406  60.9307993
  77.0453424  20.8953567  60.3776742  77.3279233  21.3155218  61.8040652
  22.0482683  21.8208385  32.2043157  22.2574139  20.9085751  32.0036626
  21.3155365  22.0314622  31.6255474  33.9197636  65.6349277  14.8886764
  33.2148504  66.2824392  14.8964131  34.6376610  66.0567617  15.3608119
  22.4813522   9.0526911  61.0945470  22.8339923   8.1891104  60.8798272
  23.2486786   9.5714660  61.3360197  28.2006884  30.5576992  21.7635632
  27.4638367  30.9398866  21.2868929  28.2673430  31.0818315  22.5617313
  30.3253150  16.3635945   0.6029366  31.1359239  16.2627077   0.1039719
  30.4736519  15.8622837   1.4047565  63.2946014  56.5486574   7.7961588
  62.9133177  57.1186209   8.4639877  63.9247894  57.1047544   7.3380578
   2.4805582  18.9745617  16.5608370   2.5540295  18.0210388  16.5204799
   3.2155734  19.2484117  17.1094620   1.2567355  60.9973961  40.1958490
   1.0380342  60.0863045  40.0001145   2.2099998  61.0016018  40.2824426
  23.8291372  32.0765825  63.3958823  22.9964889  32.3269554  63.7961823
  24.1541351  32.8827282  62.9949624   1.8065260  61.4546728   6.5774626
   2.5677574  60.9346437   6.3199186   1.1369953  61.2365675   5.9290880
  36.5784907  50.2377892  32.2707391  37.0903397  51.0103416  32.5103259
  36.4388037  49.7770166  33.0980301  83.0260190  33.1365412  62.5555278
  83.0917986  33.5346585  61.6875369  83.8672741  32.6978052  62.6821721
  34.1353401  68.3123428  51.1051739  34.6921649  69.0126759  50.7650102
  34.0481158  68.5075194  52.0381964  42.9929079  26.4332767  62.2836358
  42.7274383  25.5223032  62.1575916  43.6918415  26.3909670  62.9362697
  31.8240237  34.3761873  21.3942647  31.5409207  34.2705536  20.4860115
  32.7715778  34.4990635  21.3370419  18.2401490  27.4575949  39.5660233
  18.5129988  28.3348775  39.8346472  18.8122010  26.8679380  40.0572395
  55.3453827  48.0095387  18.8923752  56.0011721  48.7066603  18.9061511
  55.8348894  47.2250700  18.6449313  46.6682720   4.0861961  12.7915871
  46.9819736   3.2245833  12.5169110  47.2659063   4.3464038  13.4925580
  42.7686977  48.2175159  19.0700126  42.4903107  47.3354435  19.3163574
  42.1397161  48.7962723  19.5008826  52.1839190  37.9834461  10.5019283
  51.8994665  38.4178972   9.6978307  52.9648018  37.4927473  10.2456796
  29.1615796  54.3763685  20.4229736  28.8449955  54.3807268  19.5196533
  29.5346761  53.5029173  20.5417967  42.4434328  54.1491938  11.6534042
  42.8481913  54.0564060  10.7909679  41.5055323  54.0503693  11.4896929
   5.2740552  79.5137292  68.7545537   5.9635188  79.5825130  69.4149639
   5.1206567  80.4158169  68.4735972  52.1726322  66.9519711  36.3895607
  52.1947479  66.6666651  37.3029828  52.8400469  66.4199734  35.9562421
  10.7828725   5.0171038  34.1546894  11.6583742   4.6724840  33.9787174
  10.8779062   5.5065580  34.9717808  45.6378841  21.9024706  10.3456128
  45.9787989  22.5505137  10.9620929  44.9987173  22.3842955   9.8206902
  16.9879222  52.9108238  10.3395045  16.8868923  53.1255913   9.4121963
  17.9321790  52.8113556  10.4608238  74.6145875   7.4395366  17.2511149
  74.2495806   8.3175894  17.3607588  75.2847392   7.3720880  17.9312468
   4.7435692  38.8062787   4.6230936   5.2115893  37.9728341   4.6736771
   4.4776872  38.8764024   3.7062398  32.6396478   1.7637773  67.7842096
  32.1544708   1.7573973  66.9591070  32.0946230   2.2794481  68.3785681
  28.1891788   8.5490223  69.6686228  28.6869587   8.3598705  68.8732161
  28.6557211   9.2792936  70.0751604  18.6718833  57.4511385   2.1894354
  18.5570729  57.6150656   3.1254801  19.2482901  56.6880274   2.1488485
  67.4206972  40.6803179   3.5623893  67.7945948  41.4234924   4.0358049
  67.0794535  41.0594702   2.7524322  37.7231086  13.8367983  61.6086156
  37.9314245  14.6039244  62.1418673  38.0965294  14.0337129  60.7495374
  32.7996802  38.9161325  15.7976735  32.2585583  39.6079564  16.1781979
  33.5362577  38.8281417  16.4026046  80.5133685  78.0818349  67.1452679
  79.9916371  78.2669645  66.3644022  80.2294930  77.2105867  67.4219810
  60.0233316  44.4206619  15.0743091  60.4423618  45.0982857  15.6048465
  60.7204819  43.7887001  14.8987174  33.0269885  76.9994926   9.8474330
  33.6827040  77.0721531   9.1539001  33.5226536  76.7208862  10.6174517
  19.4727638  62.7458960  57.5831009  18.5766484  62.7408606  57.2466696
  20.0031879  62.4186355  56.8566156   5.0300420   2.3080870  66.0344932
   4.4537748   1.6326662  66.3922015   4.8999132   2.2570415  65.0875548
  66.0109568  31.6353965  23.6607909  66.0483599  31.5180182  22.7115512
  66.3093567  30.7987761  24.0175200  42.7236557  52.6389074   6.7933238
  43.0532074  51.8483782   7.2207397  41.8215418  52.4244261   6.5558010
  51.8435319  56.1363321  55.4495884  52.5196870  55.4786557  55.2867747
  52.3303135  56.9352800  55.6519724  84.2017516  75.8731776  67.6053417
  83.6448344  76.3526374  66.9919930  85.0675877  76.2678581  67.5014802
  29.0666832  16.5559288  47.1075631  28.5755838  17.3722120  47.2009802
  29.7776188  16.6299291  47.7442170  27.8769398  51.5480423  33.7341642
  28.7745929  51.2219763  33.7984538  27.4668074  51.2844801  34.5579100
  19.4030082  64.7156334  -0.1499319  18.5742688  64.4548941  -0.5517257
  19.1762853  64.9162006   0.7581434  50.5579389  18.9731928  65.0490007
  51.2016405  19.0830942  65.7488591  51.0032810  19.2880197  64.2623717
  74.4446487  43.9706178  44.2130614  74.7149355  43.9663072  43.2948256
  75.0777609  43.4023424  44.6517659   3.5039867  39.9110647  53.5808087
   3.6678494  40.5787798  52.9148281   3.9633263  39.1349836  53.2599664
  34.2363834  62.8627777  20.2050948  34.6399593  61.9989872  20.1200676
  33.5732460  62.8862715  19.5152199  41.8590975  19.6893871  31.9555116
  42.7979231  19.8732424  31.9232416  41.6046762  19.8992884  32.8540897
  12.3543800  51.0415788  65.5699668  12.1524633  51.8822237  65.9808002
  13.3090986  50.9816309  65.6038339  65.7541014  19.5628162  59.7566367
  65.2124752  18.8776823  60.1483751  65.9467037  19.2415329  58.8757778
  57.7886820  64.0546799   9.2553711  58.3169603  63.6085606   8.5934556
  56.9505072  63.5925436   9.2442548  78.6634231  24.8028207  22.2152877
  79.6197349  24.8425841  22.2044277  78.4581530  23.9038372  21.9585299
  19.8379636   1.0946293  16.9268620  19.6152318   1.3776739  17.8137147
  19.2054701   1.5438209  16.3661385  59.3081903  47.6471233  17.4717510
  59.7047758  46.7760038  17.4817812  58.8477325  47.7103090  18.3085418
  41.1644411  73.0093241   1.6474426  41.7355013  72.3094416   1.3307665
  41.3248825  73.0410719   2.5905660  69.0026721  76.9422513   9.9804545
  68.5075005  77.6897937   9.6454669  69.8511561  77.3090011  10.2290536
  52.9276133  26.0799980   8.5194534  52.7435493  26.3422346   7.6174653
  53.8655090  25.8888459   8.5266620  31.7384648  22.6791811  13.8726914
  31.4028001  23.3654714  13.2960069  30.9747624  22.1365428  14.0689909
  24.5744157  39.5834732   6.5830898  24.7741294  38.6860228   6.8494141
  25.2693009  39.8101592   5.9650445  16.8338084  41.0609674  21.4357209
  17.7282286  41.3876057  21.3379765  16.9239020  40.2725601  21.9710040
  74.5527077   4.4566587  19.5000780  74.8730373   3.8729542  20.1877618
  75.2260303   4.4186503  18.8207960  20.5613399  26.1152697   4.5131704
  19.7353506  26.2753820   4.0567309  20.4725885  26.5867591   5.3414530
   8.2463801  17.4923968  16.4875376   8.9283824  18.1418169  16.3161969
   7.4392247  17.9064322  16.1820769  11.4185203  31.8105408  47.6755381
  11.0613288  32.6250406  47.3216558  11.6716255  32.0296760  48.5722805
  59.3056854  76.2401897  66.8836138  58.4177145  76.5708381  67.0193056
  59.4248303  75.5847293  67.5709335  72.1611317  48.8916576  57.5031436
  71.5906580  48.1245822  57.4542988  72.0724877  49.1990137  58.4053100
  34.2904735  51.0996866   3.1717753  33.8627362  51.9550657   3.1317699
  33.6534905  50.5335188   3.6075923  67.1160658  68.2980233  55.0145066
  66.6523417  67.5734931  54.5946849  67.5116309  67.9092342  55.7946373
  58.7549067  62.2326851   7.3920327  59.6499729  61.9907045   7.1542650
  58.4255695  62.7101278   6.6305733  63.9400323  65.0361949  58.5231043
  64.4486030  64.3938595  59.0180743  64.3595680  65.8744842  58.7167288
  74.4318970  63.1384379  48.5333396  74.5400675  64.0710097  48.3466769
  75.1821288  62.9159194  49.0845872  19.7138466   7.5874992  40.4384399
  20.6342949   7.7663179  40.6308723  19.4297756   8.3345266  39.9116707
   8.8450492  11.7821165  56.0498524   9.1582693  11.7295261  56.9528247
   7.9325737  12.0603319  56.1286772  23.4229673  79.4948859  17.8354895
  24.1390766  79.7657706  17.2609973  23.7629427  79.6267376  18.7205112
  62.2332920  41.1824938  60.1444382  61.8977512  41.2541242  61.0380340
  63.0324615  41.7093321  60.1457310  38.6261320  42.9065561  17.7242255
  39.3181920  42.9778957  17.0668101  38.9256406  43.4567738  18.4479570
  31.4652348  53.5919714   5.5123651  30.9977293  54.3914080   5.7543844
  31.7315507  53.7358427   4.6042857  55.1248868  69.8124319  45.4662419
  54.5979746  69.4685084  44.7449160  54.7438200  69.4177467  46.2506176
  50.9652328  58.1895924   8.4037983  51.5893936  58.9104271   8.4877861
  50.3231192  58.3468914   9.0960258   5.0372195  68.3535862   5.8491814
   5.0467801  69.1120291   5.2653104   4.4087541  68.5855627   6.5328842
   6.6945839  33.0253601  18.2883573   6.8195838  33.1816173  17.3523068
   6.1538434  33.7580228  18.5833764   3.8577283  18.6991783  61.1583156
   4.2106331  19.2809101  61.8315757   3.6248172  17.8998228  61.6305614
  17.2397161  13.6125886   2.9957885  17.2530413  12.9305530   2.3243117
  16.3268268  13.8985729   3.0286193  19.3226838  53.7363338   2.1265960
  18.5892367  53.8375664   2.7332586  20.0513577  54.1858244   2.5546432
  71.4336306  24.0610766  20.6674099  71.5753573  23.9550471  21.6081023
  70.9352928  23.2849956  20.4113007  63.2341679  75.7418114  54.7086812
  64.1839155  75.8587724  54.7317708  63.1082710  74.7942167  54.7581399
  77.7605200  26.8861985  12.3826742  77.0665359  27.2421575  11.8277740
  78.0652857  26.1082411  11.9156289  44.9347258  10.7663620   6.0492903
  45.0758505   9.8196262   6.0519081  44.0379143  10.8757126   6.3655257
  68.4577520  21.0788580  61.1126972  68.6409528  21.5195652  61.9424248
  69.2105300  21.2873455  60.5594427  26.1172366  26.1669040   1.9490865
  25.4306793  26.0479808   1.2927872  26.6958332  25.4137874   1.8296073
   7.7280309  71.3685781  55.0632263   8.0105855  71.0936457  54.1909826
   8.2575252  70.8432752  55.6631649  34.2646623  55.7753038  19.0837669
  35.1067042  56.0711145  19.4297314  33.9602137  55.1257372  19.7174919
  79.5689744  37.3645616  34.4540834  80.3903013  36.9200420  34.6639800
  79.7811234  37.9170632  33.7017727  51.3756752  43.9199495  15.7106292
  52.0603275  43.7090731  15.0757945  51.2757826  43.1216288  16.2292171
  25.0894594  45.6175184  14.8760092  25.0176382  44.8294449  15.4145420
  24.8044229  45.3395653  14.0055335   1.6049708   9.5221372  57.4040437
   1.8564428   8.9628788  56.6690469   0.7022275   9.7768780  57.2132672
  20.3987432  20.0426078  20.6881332  19.6520114  19.4801378  20.8936858
  21.1649179  19.4919586  20.8493686  20.0003017  26.8962189  63.8598020
  20.3289093  26.5837904  63.0168093  20.6190408  27.5786157  64.1200466
  53.3236027  42.4207544  14.4654953  52.7559519  41.6505861  14.4365013
  53.9797831  42.2097921  15.1296878  31.0105957  12.4121853  53.2605994
  30.4869474  11.6668316  52.9665375  31.5329612  12.0671173  53.9846826
  68.7086303  15.3674932  23.1691313  68.1404872  16.1355158  23.1092549
  69.5940859  15.7278009  23.2178975  81.7361255  12.5293966  32.6968170
  82.6423902  12.5121399  32.3892189  81.7339320  13.1796881  33.3992029
  57.5441456  31.0265589  22.4130011  56.9215298  30.3018570  22.4712348
  57.4835300  31.4632583  23.2626200  47.0813847  53.7955284  41.6441536
  46.1722422  53.9156008  41.9185257  47.1721601  54.3478298  40.8676529
  64.6006155  56.5727091  11.2001801  64.8692846  55.7924891  11.6852665
  64.8761272  56.4015150  10.2996159  35.2696527   7.4699398  55.8871353
  35.8484186   6.9750114  56.4670563  35.3700460   7.0497270  55.0329853
  38.6801017  21.8726393  60.4400272  38.8757003  22.3238941  61.2612099
  38.1988824  22.5172516  59.9212397  47.5367845  22.8487297  64.6605197
  47.5839056  22.9239698  65.6135941  47.6033939  21.9090410  64.4908620
  31.6516352  16.0930526  30.5958414  30.8278513  16.5645683  30.7194734
  32.1433783  16.6290891  29.9736786  79.7767457  34.9801147  50.1268507
  79.5744332  34.8208547  51.0487724  80.2280291  35.8242494  50.1230276
  29.9567045  12.4649998  63.8666106  30.4571308  11.6832538  63.6327732
  30.5856193  13.0245920  64.3221880  59.0743017  37.7228427  20.5848050
  58.5379601  38.4805703  20.8180857  59.7165775  37.6573300  21.2915063
  75.5349207  44.5266056  27.2191405  76.3428736  44.5502615  26.7064190
  74.8637676  44.8608351  26.6240954  59.0339565  70.9527016  17.6065159
  58.5791922  71.7302084  17.9303992  59.0792370  71.0791159  16.6587818
  28.6957669  78.4317160  28.9456272  29.2481041  78.9814520  29.5014572
  27.8667045  78.9065742  28.8873649   7.7580028   2.3092641  37.3816109
   7.2241883   1.8339243  38.0182648   8.6012082   2.4296083  37.8183579
  19.4865825  75.6801206  66.0426814  19.2315843  75.3778034  66.9143528
  20.3537919  76.0657340  66.1671040  69.5684372   1.3831701  10.2478194
  68.7657153   1.1612882   9.7759724  70.1556240   1.7254343   9.5738077
  66.1116314  58.5761309  15.4736114  65.7333231  57.8256941  15.0153947
  66.9881105  58.2857132  15.7259440  25.7776737  58.0697823  24.4731760
  25.1726604  58.6260605  23.9825177  25.8593369  58.4980822  25.3253055
  62.8636837  45.8216667   8.0602413  62.4694586  46.2151527   7.2817910
  63.7263250  45.5265522   7.7687126  75.3104591  38.8315320  31.8596268
  74.5671654  38.2295775  31.8222308  76.0772085  38.2618117  31.9208407
  28.0569519  10.6754537  61.1125816  27.5809253  11.4529749  60.8208723
  28.8102783  11.0213753  61.5911973  14.2242731  37.4560352  69.2319191
  13.7050499  36.7657133  68.8195004  13.6051572  37.9143282  69.8001575
  47.7846016   7.1781441  54.1771186  46.9118560   6.9246527  53.8766385
  47.6876939   7.2960993  55.1220668  63.9667511  50.1225805  12.6616359
  63.0997705  50.1012421  13.0667579  63.8534021  49.6641779  11.8290198
  72.8521056  20.0406214  58.2302094  72.8497906  19.2046591  57.7639509
  73.3440955  20.6314941  57.6600826  43.6745310  61.2978077  19.6622097
  44.3395329  61.8665600  19.2742324  42.8471470  61.6154051  19.3005514
  59.0796100  15.2479734  34.8551178  58.6136066  14.6969022  35.4839253
  59.3483793  14.6454038  34.1616392  43.7930584  71.3493299   0.8943167
  44.2306948  71.1781216   0.0604140  44.5004702  71.3560867   1.5391070
  53.0227150  14.5545240  66.6849039  53.1991161  13.6457916  66.9284678
  52.9527153  15.0170513  67.5200083  74.7885188  33.4578794  66.3561619
  74.6435698  33.0752861  65.4908044  74.5458516  32.7635372  66.9687248
  47.8535748  42.7779388   9.0790612  47.5631237  42.7260971   9.9896544
  47.5680542  43.6431122   8.7854755  69.9688911  65.4641676  14.1042471
  69.2329788  65.8089256  14.6100223  69.5647430  64.8869801  13.4563601
  62.0679821  18.3533855  26.6391373  61.6333831  17.5077577  26.7499543
  61.4564098  18.8700434  26.1144639  58.3208942  50.7939339   8.4910476
  58.9836454  51.4818764   8.4299916  58.8027334  50.0230932   8.7908190
   5.3769411  11.4293619  67.5909287   5.6549777  11.9915815  68.3140037
   4.4908632  11.7262836  67.3837123  11.4116912   5.4684629  11.5331972
  12.0865159   5.6564989  10.8809042  10.8020978   6.2033739  11.4658785
  57.9705286  64.6620560  16.5682614  58.8857937  64.6092415  16.8434608
  57.4847317  64.8110485  17.3794556  80.8777809  70.1192474   4.1568840
  81.2887669  70.5963516   3.4359893  80.9954071  69.1964865   3.9312619
  61.8384075  76.7824745  36.7503691  62.7593088  76.5778542  36.5881753
  61.4398003  75.9390354  36.9647241   5.0699498  66.6697532  58.1157435
   4.1897943  66.4104325  57.8431428   4.9371745  67.1381336  58.9398921
  48.5544252  73.8526058  16.8276680  48.0116034  73.5325050  16.1071718
  48.7177467  74.7713900  16.6146255  73.1256294  36.5120339  13.3694375
  74.0691853  36.6524839  13.2906520  72.8479767  37.1262431  14.0490627
  63.4118366  22.6383662   0.9116250  63.8589382  21.8924594   1.3115716
  62.5381470  22.3090172   0.7008559  48.6229944  45.4714203   5.5822438
  48.1732321  45.5617619   6.4223540  49.4310427  45.9735346   5.6879538
  47.3679543  60.2108812  32.0868397  47.1856308  60.9681606  31.5304971
  47.2216654  60.5277252  32.9781532  23.9607729  56.6803308  35.5260969
  24.1312660  55.7400175  35.5806590  24.8177589  57.0869776  35.6543327
  33.1750965  59.6901941  20.9327054  33.8164067  59.5564461  20.2348042
  32.3429108  59.8063850  20.4742312  46.8317842  57.9040146  14.7908485
  46.3910246  57.5050449  15.5410385  46.3339949  57.6008558  14.0315509
  56.1231613  79.1122723  16.1327267  56.5306950  79.3281603  16.9714987
  55.2066040  78.9407110  16.3488841  44.4683838  45.2244568  23.8386083
  43.8316631  45.5561733  24.4716787  45.1545811  45.8914709  23.8171172
  16.2605585  11.3815161  69.4849698  16.2094272  10.4577061  69.7303049
  15.3699936  11.6077371  69.2167255  29.3244123  36.8096256  13.1888556
  28.6918664  37.2604656  12.6295149  28.9792538  35.9207606  13.2726204
  68.3390236  77.6771307  12.7669322  67.7590990  78.3564711  13.1110466
  68.3762360  77.8481102  11.8258619  30.0921082  26.7300129  40.3361750
  30.9881020  26.5707445  40.0394249  29.9085116  26.0107255  40.9404469
  53.3615160  64.0831089   8.7642956  53.2765102  64.0573311   9.7173649
  54.1680956  63.6007547   8.5826415  65.9059305   2.0202823  56.8104113
  65.7638122   2.2577282  57.7267385  66.3701321   2.7699610  56.4379490
  78.8467156   0.6106653  22.2586894  79.4527661  -0.1279745  22.2008371
  79.3851982   1.3780298  22.0652533  76.9179220   4.6611543   9.9032307
  77.7287693   4.1712662  10.0402356  76.8558783   5.2391239  10.6637097
  54.1370162  67.5769192  68.0582753  53.7429698  67.2311503  67.2573987
  53.5623749  67.2702414  68.7596778  42.1776581  52.0230865  19.5154607
  42.0441008  52.9704237  19.5462358  41.5483093  51.6718864  20.1453876
  66.9356775  51.5297842   2.5247473  67.4547052  50.7550430   2.7406603
  67.4511147  52.2640371   2.8585589  13.3674587   5.7735201  62.9758305
  14.1470350   6.2222954  62.6485783  12.9394687   6.4175316  63.5400147
   7.8683776  12.9726934  18.1185496   7.9100436  12.5674164  18.9847171
   7.8728598  12.2350776  17.5085211  43.3539009  49.6574688   6.8106419
  42.6682043  49.1763687   7.2738898  44.1363573  49.1152954   6.9108611
  63.5854276  73.0509216  64.2774380  63.5748943  73.4451824  65.1496068
  63.9465126  73.7326366  63.7107689  64.8272371  47.2556019  21.2712884
  64.7705936  47.3181868  22.2247601  65.1055050  46.3546848  21.1065078
  73.4661873  69.2873007  51.8601657  72.6610383  69.3324619  52.3758507
  73.2055100  68.8560158  51.0463632  31.6388191  41.4692350  69.0517932
  30.9960855  41.6975256  68.3802195  31.5917791  42.1877714  69.6824425
   2.5508708  58.1245327  11.1582661   1.7254180  57.6540518  11.0420406
   2.6908892  58.5722780  10.3239071  15.4375232  38.6087890  59.0317441
  14.9419988  38.0004164  58.4835029  15.9819330  38.0460306  59.5823360
  38.1658901  27.5744387  63.9335478  37.7711547  27.0803161  64.6520579
  37.7552999  28.4377142  63.9825744  32.9288697  22.5557351   5.8208132
  32.3048353  23.1134391   6.2853348  32.5663805  21.6733456   5.8997029
  73.9525993  21.4397236  46.9790722  74.4705124  22.2186752  47.1821380
  74.5924730  20.7286020  46.9459201  84.6734428  47.5566149  30.6848025
  83.8132095  47.9445553  30.8452320  84.8955822  47.8266954  29.7937679
  72.3851395  52.3012972  21.1016536  72.2444248  52.6331949  21.9883776
  71.9571733  52.9431152  20.5349588  29.0155233  14.6658274  67.8986130
  28.5214819  15.0170322  68.6394290  28.3682264  14.5784469  67.1988936
  36.1895050  25.9622904  65.5008162  36.0510362  25.0317760  65.6774405
  35.9361518  26.0724159  64.5843465  81.8124281   8.4941473  38.5984516
  81.6787135   7.5466623  38.5732698  82.0394741   8.7279882  37.6984501
  28.2531428  25.5515695  13.2847476  27.4432635  25.3065276  13.7322772
  27.9686022  25.8498073  12.4208474  65.5077839  34.5936728  11.7828751
  66.0831261  33.8316488  11.8501925  65.3261423  34.8375654  12.6904845
  35.9584212  73.8869762  22.1366310  36.7972231  73.4279108  22.0930147
  35.3725076  73.2736588  22.5802326  50.1612663  63.6325979  23.7878394
  50.2237129  63.8346195  24.7213936  51.0268545  63.2951403  23.5573864
  84.5901905  16.0426607  21.9603705  84.7358548  16.9469442  21.6823983
  85.4696976  15.6821718  22.0732951  53.5714340  71.8734407  12.7830720
  53.3773518  71.5511084  11.9029200  54.2519903  72.5336075  12.6517141
  46.1713184  11.3071771  40.6901003  45.9694017  12.1474834  41.1016155
  46.3532652  10.7190986  41.4231015  79.9378928  70.5011946  52.0216311
  79.2315491  71.1212164  52.2029687  80.1243218  70.0961047  52.8686131
  72.5876201  17.5795456  35.7947279  71.8985904  17.3927828  35.1570869
  73.2738651  18.0116030  35.2861739  32.9309344  40.1172638  28.3119154
  33.7704587  39.6574688  28.3073473  33.0636692  40.8640385  27.7280188
  34.9800086  47.9389668  27.9367399  35.3526759  47.2965145  28.5405636
  34.4208527  47.4244070  27.3546743  52.1186018  64.8111296  14.6665287
  52.1228075  63.8599777  14.7739041  53.0338383  65.0375509  14.5012617
  30.9837699  44.3484640  29.1320944  30.1596951  44.4530725  29.6076918
  31.3959074  45.2113581  29.1743755  19.9490333  55.4273701  26.7614317
  19.1664469  55.6018066  26.2385893  19.6113133  55.1608753  27.6165080
  22.3526478  54.9700117  18.7790871  23.0983186  55.3718233  19.2249036
  21.6825438  54.8898649  19.4578874  20.4255867  64.1653633   5.9184313
  21.3439274  63.8953972   5.9187794  20.0427151  63.7112045   5.1678425
  60.6050884   8.1175508  20.8552885  60.4482829   8.4942331  19.9894011
  60.2520238   7.2297086  20.7977653  13.1353652  47.6153898  40.5969620
  12.2043324  47.5458384  40.8080864  13.2492733  47.0555592  39.8289490
  50.2506304  55.2558184  47.2279835  50.7346058  56.0378361  46.9625521
  49.5210171  55.2046156  46.6105127  32.3876585   1.5887733  25.8973170
  31.7644704   2.1566482  25.4441167  32.3688806   1.8895145  26.8058491
  55.0743341  35.3237319  19.3072927  55.9938049  35.4239821  19.0608120
  55.0804424  35.3340793  20.2644181  38.6476803  72.4542189  38.3140445
  38.5467124  72.8042459  39.1992092  39.5920014  72.4662066  38.1580186
  41.6350698  37.5816107  26.8191195  41.1432934  37.6163125  25.9986424
  42.0612526  36.7246079  26.8068528  75.3192221   1.9447508   1.7053990
  75.9287297   2.3184480   1.0689420  74.6184574   1.5679159   1.1732648
  72.7842791  25.1926990  53.2993818  72.1391315  24.5583006  52.9870475
  72.9416282  25.7641168  52.5477482  39.8650718  59.8917770  39.5530176
  39.7891545  60.8445978  39.6040034  40.7163620  59.6979904  39.9454212
   1.1907734  12.4940248  52.4423683   1.6635479  13.2083793  52.8694666
   0.4628600  12.9235025  51.9930077  22.3440326  46.8582769  61.3378686
  22.1326126  47.7917524  61.3501943  22.6071132  46.6603895  62.2366799
  44.6233429  31.4462038  69.2405585  44.0801014  31.2605711  68.4746220
  44.1292204  32.1030136  69.7311510  42.8692245  57.3990154   2.3346300
  43.4271097  56.6610193   2.5803059  42.8117943  57.9305649   3.1286007
  18.3425344  40.5559202  58.1044996  17.9795898  40.7937189  58.9577020
  17.5846447  40.5308481  57.5203777  57.5671911  23.3561254  16.7854810
  58.0067301  24.2023969  16.8682945  57.1357250  23.2266665  17.6300573
   3.6109117  22.3301792  20.8834791   3.1592917  22.9911304  21.4082766
   4.2684922  21.9633770  21.4744759  36.0464835  41.7906857  18.0445254
  36.9394231  42.0358896  18.2869375  35.9931660  41.9766378  17.1070766
  60.8150816  39.1430092  18.8010871  60.0908232  39.1619086  19.4266474
  61.5949345  39.3026423  19.3326700  61.2429579  74.3699080  40.6070495
  61.5424355  73.6137730  41.1118317  61.5763339  74.2151242  39.7232295
  34.4336332  39.5305582  47.1130109  35.0429214  40.2305647  46.8785048
  34.1564144  39.7429081  48.0042411  65.5443247  50.4916125  47.7477456
  65.8939894  50.3418738  46.8693686  64.6132573  50.2821416  47.6738215
  34.0623903  25.6403136   9.8031533  33.9684272  24.7254682  10.0685990
  34.6681976  26.0143304  10.4429495  42.1075786  27.9977651  60.3059477
  42.5898660  27.4123045  60.8897842  41.6691126  27.4123808  59.6884543
  27.4443436  43.4344149   2.9685488  27.1932054  42.9205275   2.2010344
  28.3327007  43.1419945   3.1723669  54.5791960  47.2903299   7.5924957
  53.8694096  47.8961992   7.8054619  55.0126123  47.1253490   8.4298515
  53.8086319  40.4720545   7.4977630  54.0195131  40.3001881   6.5800369
  53.1674957  39.7990346   7.7262914  25.4385211  66.0967499  56.3363016
  25.5985858  66.8235904  56.9382263  26.2504890  66.0170537  55.8357263
  51.8929529  34.8545313  17.2107828  52.0168257  35.7243824  16.8309855
  52.7352953  34.4170356  17.0871639  34.5506835  72.9921436   1.3449107
  33.7919617  72.4975538   1.6546768  34.5056820  72.9272556   0.3909735
  41.6687740  32.6792665  58.3810664  41.9039978  33.4889599  57.9279614
  40.7545293  32.5276514  58.1414915  77.6088294  71.1918217  63.8846023
  78.2763489  71.4539510  64.5185912  76.8127211  71.6349679  64.1779698
  13.4863472  52.3808289  43.5454798  14.1773307  52.1841002  42.9129696
  12.8708041  51.6525650  43.4620094  44.0593052  58.5966158  23.3117437
  43.4064913  58.9742661  23.9011908  43.7608957  57.6986027  23.1676602
  51.2923574  58.6305141  48.8250160  50.7124758  58.8520145  48.0963850
  52.1690893  58.6270809  48.4408712  77.6449823  80.3466988  12.6196885
  77.4159431  79.4563866  12.8863692  76.8190432  80.8288002  12.6601350
  74.9736031  55.6458265  59.2768860  75.0145682  55.3147954  58.3796836
  75.7824811  55.3354698  59.6838558  50.7457717  45.1537555  58.1950105
  51.4536007  44.5147416  58.2778979  50.0596722  44.6902466  57.7147413
  46.5696192  70.6423044  20.7653141  46.4047050  71.5451765  21.0370922
  46.1805868  70.5799150  19.8929632  29.9125314  51.3153553   6.0298306
  30.4393244  52.1089745   5.9355122  29.5602584  51.1562395   5.1541495
  68.2370234  55.4819250   1.6393299  69.0522385  55.5188465   1.1390355
  68.0820179  56.3863516   1.9117591  74.6938515  40.3890371   0.5235713
  73.8872147  40.7941246   0.2050331  74.4551897  39.4766593   0.6873888
  30.4042864  12.2948205  11.4235091  31.3189483  12.4104023  11.1660910
  30.1727509  13.1148374  11.8596256  10.0257934   3.2899042  62.9351092
  10.6595529   2.7900072  62.4206323   9.8641790   2.7484604  63.7077374
  17.9935230  15.4818674  69.0311774  17.9963888  14.8427673  68.3185942
  17.1208871  15.4062506  69.4172169  83.9997859  31.3604875  28.1792594
  84.7657962  30.7867428  28.1627274  84.3403406  32.2063633  28.4703828
  37.5347161  46.2439585   1.2829660  37.6858234  46.1676311   2.2250766
  37.8762603  45.4273367   0.9186751  72.6290274  52.9924488  14.7774863
  73.0405283  53.0748987  15.6377757  72.3589563  52.0754671  14.7280598
  66.0803517  74.4385058  23.2811976  65.1852711  74.4021493  22.9439450
  66.3813456  75.3215319  23.0669499  55.1186927  41.1662504  54.1978896
  54.5512923  41.0743257  54.9632896  54.8258050  40.4795895  53.5987688
  33.1263447  42.5114584   5.2665597  32.3880124  41.9404602   5.4788256
  32.8591347  42.9603100   4.4644621  76.4199066  35.5780959  19.1474247
  76.9410849  34.9609208  18.6339080  75.5126476  35.3239846  18.9784849
  52.0002127  37.7501035  20.3653002  52.3327637  37.5375962  19.4932437
  52.1218920  38.6962700  20.4440308  29.3247390  36.9155526   1.0449289
  29.2530346  37.5913811   0.3708770  30.2551198  36.6911364   1.0610706
  72.5808191   8.8793808  31.9058728  72.2405720   8.1980729  31.3259768
  73.1605864   8.4134912  32.5084090  16.8876423  14.0808721  55.9254063
  16.5277160  13.1976171  55.8445204  17.5498165  14.1337152  55.2362312
  38.9907217  59.2020369  34.8125911  38.0435634  59.2326403  34.6777272
  39.3132210  58.6284542  34.1174436  56.9303669  34.9504467  59.9348111
  55.9931148  34.8017212  60.0599915  57.0079292  35.8959575  59.8074288
  15.2667922  64.4444180  13.8122404  16.0998744  63.9800596  13.7311804
  14.7564048  64.1544580  13.0561554  21.9657516  55.9629726  43.3578873
  21.7470670  55.0313282  43.3790255  22.7402973  56.0145378  42.7978373
  53.7696791  37.5734973  18.3392882  54.0442371  36.6969943  18.6087179
  54.5881510  38.0570030  18.2272530  45.7946205  22.1764803   0.6397710
  46.0524940  22.8375149   1.2822415  46.5744209  22.0510054   0.0990340
  71.0762869   3.4336557   3.6871099  70.4071270   3.6172666   4.3464613
  71.0073220   2.4916734   3.5317293  54.9813175  58.6316299  42.9895401
  55.1853514  59.5254612  43.2646132  55.3973675  58.5440922  42.1319437
  57.8160381   3.4124514  27.1215105  56.8724632   3.5668752  27.0762038
  57.9935169   3.2857099  28.0535340   8.0760110  45.8878179  43.0237866
   7.7553786  46.6202493  43.5500622   8.6734713  45.4181810  43.6057759
  51.3100958  49.4881010  18.2847917  50.5480337  48.9453363  18.0825710
  51.0587502  49.9697781  19.0728557  55.4147482  59.9582338   0.9411450
  55.7474709  60.5116987   1.6476902  55.4598141  60.5119753   0.1616757
  25.4701996  31.6975999   2.3252292  25.6400561  30.7732105   2.5065678
  24.5659161  31.8348241   2.6074934  17.4928058  47.8319784  56.1798275
  16.7172969  47.2968527  56.3485099  18.2193769  47.3189684  56.5335823
  65.8172356   0.9474172  65.6615543  65.2580987   0.6664743  66.3858891
  66.0816370   1.8374338  65.8943510  56.5595211  13.8440271  54.4385136
  55.8759750  14.0705105  55.0691474  57.1203960  13.2245918  54.9053658
  45.4054117  63.7874269   7.0487803  45.4992676  64.7399759   7.0572478
  45.7159042  63.5084963   7.9101896  24.6386933  48.5190868  23.9151740
  24.0394521  48.4977865  24.6612883  24.1629004  48.0753136  23.2130957
  43.7094749  23.7050434  64.8033730  44.4281210  24.2926737  64.5699865
  43.0119575  24.2874285  65.1042507  20.9503997  48.8631769  46.2761403
  21.8928922  49.0263792  46.3123656  20.5534805  49.6894499  46.5517522
  56.3480949  53.9999247   4.0254265  56.2632465  53.4060526   4.7713107
  55.5736542  54.5602036   4.0760574  28.6806072   5.4006191  45.1188970
  28.8970960   6.2418886  45.5209256  29.2704166   5.3352400  44.3678427
   2.5482386  72.9087067   8.2860845   2.0542258  72.1661234   8.6335903
   3.4627074  72.6291895   8.3290476  61.5748739  78.0245161  11.3102829
  61.6271162  77.5331688  12.1300900  60.6365967  78.1365299  11.1575568
  26.5196109  32.9446602  18.1089532  25.8472300  33.5504842  18.4205866
  26.0287571  32.1979761  17.7657914  28.7277751   8.0082502  21.7152238
  29.2932277   8.4845819  21.1072779  28.0833869   8.6560144  22.0005202
  14.9840772  55.8599520  13.8447917  15.1843238  55.6391287  12.9351926
  14.3178618  55.2236605  14.1046441  71.4104748  68.3414888   1.3647452
  71.8840647  68.5372353   2.1732184  70.6316280  67.8653479   1.6526911
  10.4791177  30.7781025  52.3271514   9.8784722  31.0143991  51.6203130
  11.1477579  30.2399584  51.9034136  29.5351328  22.2661205  49.7198988
  29.5438255  23.2232471  49.7278178  29.6886648  22.0327659  48.8043619
  75.3890522  66.8258649  20.3993273  75.5741080  67.4566156  19.7035266
  75.7319172  65.9959823  20.0677062  54.5906604  31.9301935  59.8617811
  55.0184501  31.5252252  60.6162555  55.1649059  31.7271992  59.1233588
  28.5498632  47.0856138  65.5859706  29.1102470  47.0997663  64.8100836
  27.8912843  47.7596517  65.4180858  11.8300837  68.7463617   5.9415048
  12.0581359  68.5907412   6.8580222  11.0149306  68.2616329   5.8118910
  59.3209137  24.7131964  65.2106336  58.4789146  24.9259420  65.6131489
  59.7827495  25.5503507  65.1646835  60.8438158  61.2280989  16.7051136
  60.1757097  61.8172216  16.3546824  61.5489244  61.8087769  16.9912386
  81.5643120  65.9040642  19.6233940  81.2500191  66.6898870  19.1762567
  82.3681450  65.6698418  19.1594744  73.9554644  74.1984177  23.1260347
  74.0252829  73.3194160  22.7535987  73.0673170  74.4810677  22.9080105
  57.0210229   2.4739923  22.2689295  57.2449194   1.7541685  22.8588080
  56.6625081   3.1511392  22.8426647  15.4958838  63.4613895  33.5785246
  15.6192988  62.6214838  34.0207505  16.2843341  63.9613771  33.7896824
  72.9395628  76.4972734   8.1230026  72.6906776  77.3605442   8.4532416
  73.8537359  76.5968990   7.8573102  56.8400158  16.5192600  54.9821258
  57.7117885  16.1443706  55.1074255  56.3541854  15.8431812  54.5097626
   8.3737781  73.7977058  48.3791376   7.5180032  73.9539844  47.9798079
   8.7342193  74.6726614  48.5232354  68.5277414  63.0179119  12.4498701
  68.9327574  62.7441645  11.6269159  67.7903509  62.4185371  12.5649250
  17.6966013   8.6675258  60.6094278  18.1393684   8.8100048  59.7728354
  18.3464779   8.2198664  61.1511774  75.0109005  62.1930313  20.8784056
  75.9175301  62.4266577  21.0775805  74.5430994  62.3239565  21.7031813
  61.0889959  27.5345874  16.0078061  61.0706997  27.3597455  15.0668883
  61.5673590  28.3597136  16.0888362  65.9509230  16.4441752  33.4164214
  66.2598801  15.5550110  33.2427454  65.1831388  16.3259959  33.9756823
  38.5382318  54.1710615   7.6366466  38.2213545  55.0577497   7.4645841
  37.7532887  53.6785126   7.8764111   1.4214017  57.1123010  65.4569975
   2.3240211  56.8938953  65.2250401   1.2430837  56.5926152  66.2408099
   1.4889539  62.2085152  17.3561049   1.4047421  62.8049252  18.1000376
   1.2285341  61.3550935  17.7026367   4.4126441  41.4835961  66.4536724
   4.0510585  40.8755660  67.0984895   3.6763408  42.0476119  66.2170822
  54.2713499  21.3056803  36.1449409  54.6104813  20.8707213  36.9272661
  54.8121548  20.9692430  35.4304004  31.2551570  51.0662031  13.9087522
  30.5226398  50.9684896  13.3003914  30.9126258  51.6219616  14.6087766
  32.2526026  51.7129707  20.3288293  32.5878072  51.2722254  19.5480549
  31.3090539  51.5533018  20.3075075   0.3160503  46.3955158  53.0605996
   0.9973552  45.7431382  53.2232690   0.4506852  47.0568079  53.7394214
  67.7279123  55.6625026  62.7316482  68.3803042  56.3297361  62.9447622
  67.6067313  55.1767999  63.5475153   2.9996612  48.9084417  27.4763108
   3.0085017  48.0865997  27.9669524   3.9173248  49.1789788  27.4456692
  63.4430075  16.6433895  17.5274467  62.5472593  16.4787412  17.8219867
  63.8331318  17.1663427  18.2278442  71.6983088  63.9408427  62.9024447
  70.9897765  64.0971404  62.2781152  71.3286265  63.3248335  63.5349799
  71.3662100  46.9827747  12.5247061  70.7583332  47.5674868  12.9772854
  70.8969164  46.1508226  12.4626601  39.5850158  46.5133715  30.5547142
  38.7563562  46.9667101  30.7097721  40.1591825  46.8166351  31.2579870
  15.6322969   6.6816183  61.2552179  16.0244526   5.8143802  61.1535192
  16.1964239   7.2611137  60.7431776  23.3103967  32.3040652   9.7927409
  22.4130011  32.1587539  10.0924098  23.7398100  32.7435112  10.5267179
  52.2204078  80.0568259  19.1751266  51.3364614  79.6943399  19.1162002
  52.5172485  79.8224880  20.0544477  45.6146860  55.3964424  14.0200067
  44.6883726  55.5761814  14.1808426  45.6445789  55.0842285  13.1156492
  31.6795934  11.0528990  65.8614368  31.2539543  11.2935253  66.6843361
  32.6113332  11.2036463  66.0206918  63.6510094  78.9421803  54.5048309
  64.5412906  78.9871937  54.1561115  63.1940397  78.3397824  53.9178658
  27.4939277  59.1694778  60.9981901  27.2114970  59.6306032  60.2083636
  27.9462077  58.3913082  60.6724090  83.4764012  63.5646516  68.7517404
  84.3285473  63.9357763  68.9805338  83.2168301  63.0655032  69.5261462
   4.0644719  79.2866975  43.1662536   4.0442254  80.1328427  43.6133123
   4.2952611  79.4990879  42.2618986  21.3701118  10.8713671  67.5169169
  20.6578554  10.3630968  67.9049616  21.6497625  11.4635273  68.2150388
  74.7910924   3.8570495  31.5837670  74.9631603   4.6259781  31.0402823
  75.6549711   3.5836693  31.8923259  65.7700491  54.1654158  10.9218168
  66.7032957  54.3781662  10.9260893  65.5520010  54.0628958   9.9954391
   3.9747836  59.5362550  32.8824235   4.1188934  60.4159886  32.5338054
   4.4048717  59.5440549  33.7375212  71.3462265  52.4423379  43.7961794
  70.7327946  51.7210847  43.9366508  70.9816321  53.1687576  44.3017650
  69.8396111  29.0789652   2.9755142  70.7077169  29.4573188   2.8359744
  69.2475700  29.6515250   2.4877690   0.7172849  62.6186401  23.0741025
   0.6036021  62.2987944  23.9690924   1.5082910  63.1564242  23.1106043
  70.0851925  45.2037924  50.2648509  69.5030888  45.9629810  50.2329076
  69.6317919  44.5327005  49.7546626   2.4040773  51.0883611  48.4764529
   2.6348617  50.6508583  47.6569653   2.4637630  52.0221120  48.2745171
  52.6574039  51.5795946   1.2958331  53.0958939  50.7289791   1.2756193
  52.9154634  51.9622231   2.1344230  25.4212059  79.4429943   8.9172840
  26.3451446  79.2615898   8.7450629  25.1669468  80.0617613   8.2326591
  57.1358633  34.6585131  14.8883438  56.9968748  33.7930274  15.2728546
  57.2775602  35.2344370  15.6396544  44.2431593  48.8575935   0.4917623
  44.5984411  48.4422016  -0.2940223  43.3150434  48.6234617   0.4876592
  55.4870558   4.8263049   9.1812027  55.9259033   4.0836981   9.5961493
  56.0531902   5.0582486   8.4450477  55.6713963  63.3946323  17.3925519
  54.9660873  62.8108501  17.1133339  56.3710117  62.8062916  17.6764977
  79.1455359  12.8327318  60.7288862  78.9266415  13.3075662  61.5306658
  78.3187933  12.4386545  60.4506201  28.1091798  19.9368997  56.1372793
  27.7133955  19.0989109  56.3767827  27.3960270  20.4321428  55.7343269
  38.0295112  72.0981413  66.9263998  38.2810619  71.1889917  66.7639104
  37.6552608  72.0893103  67.8073562  60.1710844  45.5759096  12.7136171
  60.5075455  45.2318716  11.8861759  60.3359652  44.8781967  13.3478391
  76.5423306  78.3873993  63.4630263  76.0716399  79.2170173  63.3829320
  76.1394747  77.8191096  62.8065324  23.0231155  74.5301698   7.4165273
  23.2437481  75.3236989   7.9042399  22.9564060  74.8191587   6.5064359
  22.4723842  72.7590257  46.4293981  22.0311477  71.9165260  46.3210536
  22.9077556  72.9109985  45.5905986  35.4152168   1.3201185  49.0981484
  34.5618404   1.7503115  49.0441633  35.5636037   0.9712549  48.2192255
  36.4612770  42.6266289   7.6908571  37.0136833  42.9648113   8.3956361
  36.3929725  43.3526039   7.0707506  11.9840553  77.9634768  62.5469500
  12.9124334  78.1797606  62.4599451  11.5605094  78.7996203  62.7411241
  19.7434534  24.5884796  57.2461880  19.7883047  24.9114271  56.3462282
  20.2435363  23.7724062  57.2330130  13.8728502  78.6383897  27.4494982
  14.1125896  78.2929760  28.3094073  13.7657859  77.8615004  26.9006682
  28.1240238  16.7000099  54.6036029  27.4402345  16.5071960  53.9621330
  28.6810077  17.3481651  54.1724432  12.1281697  34.3715680  60.6898612
  12.7032926  33.6658508  60.9855456  12.6521947  35.1661009  60.7915742
  81.3779458  64.5292956  67.0672614  81.7539938  63.8721281  67.6528811
  81.5262564  65.3621441  67.5151456  13.6284663  58.1876630  56.6288067
  12.7008559  58.2169110  56.3944829  13.8400724  57.2544593  56.6530502
  58.1901368  68.5407358  54.7672928  57.8249463  67.7379352  55.1392842
  59.0628990  68.6086994  55.1544631  52.1916342  30.9992790   2.4205646
  52.7435589  30.2932453   2.7569056  51.3743496  30.9193969   2.9123899
  11.3620736  54.3078417  35.1175452  12.1295383  53.7739462  35.3229356
  10.6621959  53.9383143  35.6559253  24.7469009  74.8142771  43.0856371
  24.7652210  75.7684375  43.1596231  25.6577695  74.5691178  42.9230356
  59.0261889  37.7408814   7.8011549  58.1362772  37.4981856   7.5454307
  59.5540142  37.5725842   7.0205754  45.7992887  73.5135460  34.8827839
  46.5861702  73.5283804  35.4276037  45.9619904  72.8177071  34.2459416
  66.9290794   4.6565815  40.7313777  67.1895660   4.3281694  41.5919138
  66.2570633   5.3120228  40.9185267  55.4043436  12.5499690  22.8760171
  55.2934027  13.4973943  22.7965784  56.1582136  12.4449289  23.4564352
   4.5179452   5.5407615  66.0886437   3.7120355   5.5423065  65.5721737
   5.0657786   4.8732372  65.6756953  22.7961982   3.2900997  38.1267644
  22.2947563   3.9085575  38.6580802  22.1494545   2.6497646  37.8302479
  71.8299055  66.3351107  16.1441290  71.2971163  67.0977879  15.9189737
  71.9067907  65.8463240  15.3247356  78.1583127  52.3215824  24.2455531
  77.3176774  52.7373975  24.0540600  78.0015524  51.8224662  25.0471402
   0.8805444  58.9627713  58.2221926   0.8118083  58.1223768  58.6752296
   0.0884082  59.4367975  58.4752763  20.5464103  47.4995190  57.8123129
  20.4085185  47.8832722  56.9463158  21.1185386  48.1216258  58.2616282
  72.1222860  48.2333994  45.0021267  72.3789650  47.3212481  45.1375246
  71.2580365  48.1809568  44.5940113  66.7602474  50.0210142  53.6785650
  67.3830670  49.3768644  53.3418274  67.1715349  50.8670568  53.5016870
  41.9617831  12.3814096  35.9534621  41.6700767  13.0621805  35.3470850
  42.0753609  11.6050043  35.4052567   0.6844497  51.1797857  36.9840002
   0.8421045  51.1872053  36.0399032   0.1870923  51.9805908  37.1500754
  21.3503718  58.4638262  23.6213136  20.5486393  57.9729748  23.8016605
  21.6515660  58.7551403  24.4819236  26.2134457  73.2546616  17.1153533
  26.1821437  73.2121372  18.0710959  25.3054523  73.4051704  16.8524337
  18.1031144  68.2031775   7.2459120  17.4096727  68.6410379   7.7395195
  18.7965357  68.0533361   7.8885204  58.9065939  41.0154533  63.7102127
  58.6812741  41.6559172  64.3849468  59.8561269  40.9172440  63.7807417
   5.4909980  52.3285341  44.0330648   4.7199014  52.0549726  43.5362720
   5.8003092  53.1140375  43.5819054  42.5933741  23.0849733  39.7524166
  43.2844232  23.6196603  39.3615174  41.9073104  23.0553808  39.0855789
   4.5217177  72.0033407  30.6973767   4.8104545  72.2850800  29.8293400
   4.7912040  72.7123547  31.2812519   8.1902111  63.8333511  55.2443790
   7.5813287  64.5619249  55.1232147   8.8675106  63.9747143  54.5829296
  44.5056200  72.8150988  20.4370070  43.9213800  72.0807076  20.2484250
  44.5807505  73.2813120  19.6043992  40.2196180   1.8266859  32.9198527
  40.0957369   1.2517538  32.1646452  39.4325291   2.3711004  32.9380774
  25.9852469   2.9996099  53.3875656  26.8579717   2.6365938  53.2365417
  25.4167404   2.2331800  53.4625816   0.4684447  58.8781309  37.5125933
  -0.1395074  59.5588207  37.2239971  -0.0555063  58.3148527  38.0821753
  20.7335161  13.6582174  35.2859116  20.1673846  14.4255247  35.3693032
  21.3328056  13.7207594  36.0296679  58.4181309  62.3225069  23.4068465
  58.6837482  61.5262270  23.8668585  58.6331511  62.1523476  22.4897623
  45.3321229  16.2409486  36.8459940  46.1396228  16.0631647  36.3637376
  45.3412007  15.6127538  37.5681615  14.5614897  12.1027937  44.6180010
  13.6969768  11.7060651  44.7250366  15.1697503  11.4473619  44.9595499
   8.2577664  67.0187855  53.3200693   8.6884272  66.3683987  52.7653074
   8.8583124  67.7641296  53.3257103  22.2992134  54.5777750  25.5166698
  22.6521492  54.3278265  26.3705969  21.4189696  54.9021196  25.7069397
  27.5429630  71.1056995  33.5490036  27.5386381  70.2083015  33.2159925
  28.1849432  71.0946417  34.2589140  72.0340341  24.4829535  17.2967100
  71.2558502  25.0268149  17.1747351  71.8237060  23.6610508  16.8534613
  68.7692696  14.8842275  16.7860985  68.7806934  15.3385818  17.6285148
  69.6859103  14.6639466  16.6203296   5.1690251  76.5427113   9.4518369
   4.4679964  75.9080267   9.3036157   5.9720242  76.0661554   9.2413121
   9.6157235  47.6601410  21.3342261   8.8841844  48.2720375  21.2525606
   9.5833558  47.3683691  22.2452974  12.0918858  72.4685240  40.1313543
  11.5737343  72.6574183  39.3490076  12.7174592  71.8013191  39.8489833
   6.0744447  59.7489691  65.2259970   6.1814773  60.6061888  65.6382465
   5.1278228  59.6081448  65.2084780   7.1407819  57.6393843  63.4418631
   6.9535983  58.5751200  63.5166407   6.4910215  57.2193623  64.0054464
   4.9684867  57.8809547  27.6428795   5.5899966  58.2252026  28.2843256
   4.1134417  58.1771231  27.9549909  48.1281423  13.2637968   1.8429427
  49.0338575  13.0483617   2.0654224  47.7245568  13.4951582   2.6794976
  13.3248913  67.5874424  45.4028893  13.4169936  68.5294056  45.5459070
  12.4146605  67.3984385  45.6308985  73.0023867  71.4227390  60.1044321
  72.1763510  71.8083763  59.8125792  72.7933961  71.0175610  60.9460878
  71.5402954  11.6701498  49.4498587  72.2696941  11.0915270  49.2275715
  71.6137521  12.3967065  48.8310289  71.8494593   1.8880357  37.6465154
  72.0296513   1.0281076  37.2666764  72.4808632   1.9713106  38.3611012
  11.5120161  78.1169844  15.4534066  11.6149294  77.3696470  14.8642337
  11.9972265  78.8248253  15.0294197  84.0124553  71.8661594  29.8148179
  83.4607735  72.3483324  29.1988730  83.9014463  70.9480810  29.5677638
  35.4230523  73.2629013  25.7501626  35.0669122  72.5910234  25.1688099
  35.6819296  72.7850914  26.5381432  49.1767894   5.2831258  37.7310395
  48.9505636   6.2002363  37.5762653  50.1092612   5.2995386  37.9465890
   9.0095615  44.7529650  50.0083399   9.1160154  44.8910141  50.9495354
   9.0345395  45.6330824  49.6328402  68.9859694  62.3683214  17.5997746
  68.8888365  61.8653202  16.7912030  68.5927838  63.2182884  17.4017954
  23.4275270  40.5324507  56.4299154  23.8437057  41.3722324  56.2355089
  22.4947166  40.7369041  56.4954472  36.8163513  39.9775781  30.7649517
  37.7258353  40.2719392  30.8141541  36.8412589  39.0707388  31.0703397
  17.5842810  44.4687319  20.0367546  17.9360437  43.7248230  20.5257201
  17.9194832  44.3511868  19.1479051  27.0255470  66.4242315  25.9694171
  27.5635219  67.1393633  26.3091230  27.3730731  66.2584972  25.0930667
  66.0425872  41.7059994   1.5536858  65.1821762  41.4823198   1.1988711
  66.5391296  42.0198011   0.7979059  24.7185922  71.2021589  23.0406094
  24.9812651  70.3086472  22.8195477  25.0924802  71.3539124  23.9086032
  48.5176360  12.5583734  11.0320401  49.2097794  12.1877660  11.5795970
  48.8620316  12.5031747  10.1406491  79.2618119  14.2752161  27.0842052
  78.5819041  13.6375894  26.8665242  79.7931706  14.3391027  26.2906003
  83.0903037  65.9527493  15.2479863  82.1679556  65.8841228  15.0014162
  83.1039226  66.6097355  15.9439874   1.1021857  11.0872926  11.2152958
   0.2566390  10.6386747  11.2108147   1.5518146  10.7431688  11.9870782
  81.7036930  73.7602949  13.5289025  82.2912455  73.9326191  14.2646456
  82.0772415  74.2588949  12.8022039  33.6962761  23.4012361  61.3335211
  34.4230331  22.8229757  61.5651888  33.8107313  23.5666319  60.3976924
  83.7847458  28.1503477  22.5068903  84.1974865  27.2878542  22.4623895
  83.9005553  28.5168066  21.6302323  37.4211192  67.8041983  12.0380223
  37.8200412  68.3234453  12.7362156  36.5128565  67.6863670  12.3162389
   4.6824607  71.9672775  18.1839180   4.3799767  71.7960215  19.0757740
   5.2321732  72.7468872  18.2630002  72.1100222   8.9933004  10.1476598
  71.1863982   9.2428388  10.1773620  72.2591864   8.5286703  10.9711277
  53.8820468   7.7103605  21.2125373  54.8375665   7.6697149  21.2520051
  53.6862289   8.6408605  21.1027622  80.3144008  60.4408598  15.5553865
  80.8083552  60.5190992  16.3715482  80.8538023  60.8905077  14.9049282
  10.8789003  78.5560989  54.1398191  10.6513381  79.0385914  53.3450603
  10.4928613  79.0687323  54.8500395  21.7046874   7.8627481  56.6170359
  21.3014536   8.4116354  57.2896147  22.4568825   8.3705320  56.3127422
  33.4451275  16.5458955  17.0562291  33.8949858  17.3295297  16.7403519
  33.5613667  16.5694704  18.0060530  29.0870905  70.8776331  35.7399178
  29.0421152  70.3522015  36.5387487  30.0177646  71.0755682  35.6355119
  22.9778402  27.9117860   2.6053849  22.6866179  27.9604330   3.5159093
  22.1685671  27.9207220   2.0942795  53.8212191  12.5603761  25.2018213
  53.6962544  11.6608324  25.5041862  54.4513928  12.4867811  24.4850969
  17.5863075  38.9034200   6.9131565  18.2550323  38.7075067   6.2569124
  16.7868018  38.5079336   6.5658665   8.3973515  45.3061104  29.0086913
   8.6360979  45.8721256  29.7427607   9.1882849  45.2645683  28.4711671
  81.7071208  50.6562662  37.4287844  81.7507708  50.3617382  36.5190697
  81.5403238  49.8586655  37.9310250  18.4967124  31.9847417  48.0829191
  17.9400218  31.8644691  47.3135948  18.3089721  32.8759432  48.3774471
   8.5646331  37.8122926  38.2319856   8.3117616  38.7105536  38.4450912
   9.3693107  37.9046106  37.7218843  77.6208538  33.6115503  17.1659064
  76.9342989  33.5173917  16.5055978  78.2096982  34.2749834  16.8062544
  60.6184918  63.3796120   9.9099863  59.8252755  63.8283873   9.6173453
  61.1262137  64.0572405  10.3563833  85.2077169  37.3414159   5.8179110
  84.3553756  37.5499249   5.4354584  85.1250534  36.4323378   6.1059666
  63.1650072  32.2339582  42.1421576  63.1097299  33.0371094  42.6599693
  64.0283853  31.8754053  42.3477077  73.1786337  49.4650948  65.5304525
  72.9206266  48.8011318  64.8910654  73.3148231  48.9760244  66.3419295
  52.6024014  55.7002068  21.9280124  53.4725457  55.5612564  22.3018765
  52.7567726  56.2500906  21.1598778  17.5878679  12.3269643   0.5992577
  16.7940854  11.8350877   0.3890316  17.4589061  13.1791391   0.1828461
  78.1287986  66.0644484  34.1219306  78.3962417  66.8701839  33.6797810
  77.1761906  66.0457516  34.0301681  18.2258856  77.8347111  38.3984280
  17.6282835  78.4162235  37.9283786  18.8284862  77.5164127  37.7262712
  77.4564260  32.7520490  51.3478327  76.9345117  33.1841254  52.0239592
  78.3477676  32.7521205  51.6967487  66.0804957  58.8345575  18.7309337
  66.7833215  58.8739204  18.0823052  65.2885181  59.0523958  18.2394552
  77.9447615  58.1929159   4.4414857  77.1356314  58.6972284   4.3566051
  78.0951476  57.8325081   3.5675719  53.7246472  54.6180201   7.5032079
  54.4696027  54.8111629   8.0723882  53.8939983  55.1225138   6.7075717
  62.1155645  26.9069334  46.9996930  61.9890274  26.6853138  46.0771394
  61.9185973  27.8422685  47.0505238  74.4420570  27.2265863   3.0225432
  74.4963211  27.8445625   3.7515101  73.6402029  27.4710560   2.5604853
  22.6076027  48.1826258  65.2264825  21.8015154  47.6817787  65.1015500
  23.3027323  47.5959402  64.9284456  40.1549053  29.2332006  49.8705578
  39.7432113  29.8771405  49.2942905  40.1107836  28.4114528  49.3816662
   0.7082277  56.4969158  27.7947116   1.2985811  55.8867788  27.3526168
  -0.0204498  55.9521151  28.0921268  68.1388301  48.4732628  17.4253392
  67.5074917  48.6743116  16.7345273  67.6020974  48.3179474  18.2025313
  28.6852264  38.6382890  31.1933589  29.4060159  39.1067266  30.7723355
  27.9007006  39.1193247  30.9299946  37.0984602  70.8248329   4.5713136
  36.6891122  70.0459862   4.1943920  37.6255751  71.1868525   3.8590473
  63.8879067  32.7223158   5.0087523  63.3757383  32.7521062   5.8168536
  64.6050698  33.3387375   5.1568568  29.4916701  47.4947691   3.3081582
  28.7691832  46.9155884   3.5506341  29.9929237  46.9954252   2.6634645
  69.1985625  12.1159291   3.5687593  69.6555096  12.9356182   3.7572840
  69.8710531  11.5477657   3.1930223  24.0422242  58.7096518  62.2839356
  23.9788853  58.0894953  61.5575576  23.1430300  58.8025361  62.5986642
  39.9424529  68.3946991  29.6709061  40.0920296  68.7665319  28.8016534
  40.8103180  68.3713675  30.0740099  46.9499750  17.0186420  58.6416150
  47.6691545  17.0481487  59.2725993  47.1026922  17.7703710  58.0690647
  58.7151944   6.2526693   9.5603299  58.4252249   5.9776868  10.4301178
  59.4451558   5.6683912   9.3553782  66.7445267  46.6641279  54.2365075
  67.2411640  46.2662836  53.5214568  67.4007852  46.8552061  54.9066175
   4.4909096  33.9250398  52.3914194   5.0340015  33.2280111  52.7594328
   4.1100889  34.3600202  53.1543112  80.3780544  40.1532030  12.2289371
  80.1896715  39.2147589  12.2369909  79.7723156  40.5246019  12.8703225
  60.2913748   1.0637369  43.8730812  61.1620270   1.4070787  43.6722898
  60.1846634   1.2157621  44.8120928  66.4984280  57.8329992   2.3042879
  66.6111285  58.4362841   1.5697266  66.6594809  58.3686733   3.0810428
  27.9622412  50.3309107  14.8519194  28.2924533  49.9112988  15.6463492
  27.1945643  49.8133087  14.6090353  59.8488294  15.1927175  45.8720112
  60.0301587  15.6979170  45.0794697  58.9674412  15.4615965  46.1310291
   2.5014713  64.7049427  51.6623259   2.7889940  64.8517704  52.5634384
   3.3134481  64.6311569  51.1608458  13.0663514  49.2838049  15.9665108
  13.6506808  50.0193167  16.1503839  12.2383428  49.5262861  16.3810432
  75.6434548  76.4212084  37.3880601  75.3354979  75.5571508  37.1145654
  74.8604947  76.9715309  37.3692966  76.2592752  14.2469831  67.9915126
  76.9447560  13.6290260  68.2454339  76.1178656  14.0783401  67.0599574
  13.6739226  79.4535237  59.3165780  13.8018104  79.5271856  58.3708239
  14.4792326  79.0466434  59.6361936  70.6514914  57.4555155  58.4822000
  71.4718683  57.7477785  58.8794327  70.8401663  57.4157949  57.5446201
  74.7965796  28.3612772  47.1427394  73.9500434  28.2239433  47.5678826
  74.5786972  28.5447212  46.2288976  83.6701050  74.9990421  59.6034182
  83.9881720  75.4828077  60.3656752  82.8188338  74.6561700  59.8754651
  53.8143284   9.7053715  65.9799550  52.9592640   9.3050476  66.1375634
  54.2887781   9.0588852  65.4572845  17.6759791  40.4266882  38.6784363
  17.0336461  40.0237036  38.0942774  17.2769630  40.3727961  39.5468330
   3.5474148  55.4029417  25.5424356   4.0040588  56.2349129  25.6670475
   3.8314378  55.1006985  24.6797609  11.1450493  14.3753195  43.2903194
  10.4845881  15.0464916  43.4622288  11.8673575  14.8498976  42.8788900
  66.8460375  34.1975498  23.1357265  67.5282532  34.4422650  23.7609696
  66.5768451  33.3197474  23.4063387  22.5070572  70.4184055   9.8601437
  23.3282733  70.8096170   9.5621705  22.7771115  69.6609354  10.3793192
  22.2363397  76.7981106  63.5562081  23.1298002  76.9305545  63.2393188
  22.2900876  76.9586497  64.4983179  21.6885376  49.8764658  68.5124445
  21.2083364  49.2010832  68.9915037  22.5599074  49.5028734  68.3806276
   3.5950696  54.1003895  50.7424879   3.9588997  53.8831758  49.8841858
   4.3543833  54.1271830  51.3246870  84.3449819  65.2912760  10.3773117
  85.0126728  65.3436613   9.6934432  84.7788655  64.8403406  11.1016285
   9.7147149  58.3951855  21.7015004   9.6601176  59.3400812  21.8444157
   8.8387960  58.1466103  21.4061880  48.3106118  35.7360196   8.2966381
  47.5797588  36.2155819   8.6866450  48.3817464  36.0879683   7.4093372
  42.6198149  46.3932610  26.0174012  41.8497992  46.7372847  26.4701200
  43.1840515  47.1560860  25.8910084  80.4521212  37.9639673  42.2073030
  80.3960866  37.6087952  41.3202047  80.0297660  38.8209867  42.1492910
  79.5430994  36.1505389  21.4086580  79.8333246  35.3898811  20.9052658
  80.3155911  36.4166713  21.9073176  38.1336665  78.3588314  17.0250297
  38.6850238  78.7539673  17.7003849  38.7376595  78.1575012  16.3102627
  31.3949633  77.1676064  38.4099913  31.6708922  77.1181011  39.3252206
  30.8686948  76.3794470  38.2755280   0.5563197  46.0153675  38.8052106
   0.0807831  45.5347443  39.4827795   1.4786741  45.8332348  38.9849949
  83.8551508  52.1849537  32.7391410  83.7342033  51.3449812  33.1819177
  84.4785926  51.9981289  32.0372486  17.4370801  57.0331287  14.5386136
  17.8636909  56.5347385  13.8415873  16.5505493  56.6746855  14.5812201
  16.2964213   7.0504975  10.3203166  16.8520951   6.3404030   9.9990314
  15.6916654   7.2262615   9.5994765  62.3878909  14.2461916  33.4000779
  61.8965675  14.3892713  32.5911523  62.2226221  13.3298059  33.6217857
  18.8711703  50.7823610  46.8787718  18.1312239  51.3152027  47.1699667
  18.9285970  50.9462690  45.9374619  47.8144617  20.1796099  64.6360464
  47.0765312  19.8214289  65.1294000  48.5178329  20.2582403  65.2804986
  79.8753184  44.1476774  12.6421583  80.2146578  43.7991762  13.4665537
  79.8082858  45.0909472  12.7904105  78.8530719  51.4412689  49.8194599
  79.1517961  50.9536648  50.5870819  78.9154524  50.8147049  49.0985203
  57.9812104  61.5297794  35.3590584  57.7627903  62.4577427  35.4451227
  57.1851784  61.0705280  35.6267381   0.7052482  11.6653724  69.0071124
   1.1186708  12.5067850  68.8138796   0.3965844  11.3495298  68.1578756
  33.0227890   6.4819135   9.2107153  33.1042828   6.9104280  10.0627542
  33.9253001   6.3660230   8.9136046   3.7063038  17.4487233   3.2954356
   4.3395180  18.0202770   3.7297142   3.9590737  17.4688828   2.3724334
  41.0045370  66.9393688  50.7254828  41.3618930  66.4651686  49.9747074
  40.1820000  66.4911705  50.9224213  13.2058799   6.9877297  54.1993856
  13.4597135   7.6000935  53.5088730  12.2595549   7.1028799  54.2856503
  44.4110964  30.3868812   0.1559066  44.5928035  31.2577242   0.5092382
  43.4789095  30.2497000   0.3245448  17.0346398  35.4999395  57.8416408
  17.4314613  35.9052177  58.6126888  16.9268603  36.2206217  57.2209705
  50.0939369  36.9927549   2.1983154  49.8893118  36.0761094   2.3830438
  50.2762794  37.3751378   3.0566651   6.4494884  70.4305220  15.3597665
   5.4947990  70.4007149  15.2972198   6.6495258  69.9861717  16.1836421
  67.3426813  55.0781679  32.4669838  67.7379447  55.2481413  31.6119361
  67.9191226  54.4307184  32.8728795  77.3872137  72.3247051  46.0496902
  77.1083701  73.2395840  46.0881615  78.0685765  72.2536755  46.7182207
  39.3103992  14.7608556  27.1158981  39.7336065  15.0774183  27.9139662
  39.1230272  13.8391485  27.2935939  21.1802530  78.4253359  19.1254413
  20.7994461  79.2158079  18.7428546  22.0037174  78.7202024  19.5142758
  78.4584708  74.7844396  51.0918665  77.7439804  74.8986415  51.7185211
  78.8384004  75.6581900  50.9999657  11.0270154  48.9323092  34.1675568
  11.6021788  48.8163757  33.4112644  10.6896365  49.8235416  34.0774989
  10.9191012  74.9833679  18.0732691  10.9509516  74.3782187  17.3323190
  11.7792904  75.4032421  18.0767369   8.3643526  59.7544765  12.7379274
   8.3329338  60.6599951  13.0465961   9.1267043  59.3778992  13.1775212
  81.0093779  26.5000912  67.9024701  80.3683109  27.1957870  68.0483333
  80.4815884  25.7176014  67.7431617  83.6760817  54.8424578  51.2549496
  83.1642306  55.0707865  50.4789925  83.3290949  53.9936781  51.5295362
  52.6901466  72.6964569   1.6345987  52.5428277  71.7520428   1.5835412
  51.8129593  73.0779457   1.5993573   5.6991369  63.4741116  19.6950889
   5.3117591  62.6174736  19.5152473   6.0872388  63.7411690  18.8618481
  77.5046754  60.8733892  47.7601624  78.3460242  60.5609751  48.0929708
  77.5295424  61.8203783  47.8973913  75.0548393  24.9474549  34.5819473
  74.6786815  25.6622243  35.0956011  75.1762706  25.3186274  33.7080383
  68.1767076  63.3381271  49.3747807  67.9519469  63.3046293  50.3046179
  69.1316706  63.2752371  49.3567896  72.7054614  36.9852352  31.9364333
  71.8518037  37.4123120  31.8649840  72.5498956  36.0880804  31.6412330
  22.5084519  37.8383994   2.2618032  22.4255204  37.4645948   1.3845211
  21.6668296  38.2658267   2.4205700  41.6699838  18.4532823  38.3200312
  41.5071665  17.5124635  38.3876920  42.4838220  18.5909738  38.8047361
  82.1796341  29.3830391  53.2286752  82.1131797  29.0798374  52.3232008
  82.7211113  30.1707550  53.1783593  13.6135674  39.9901843  20.9749937
  12.8283179  40.1934385  20.4667568  13.9571345  40.8443642  21.2368584
  19.5646490  17.6159187  67.4014709  19.4239009  18.3228966  68.0312357
  19.1968406  16.8406244  67.8255791  14.3558502  30.1052737  26.8613744
  14.1006505  30.6636047  26.1269546  13.9936268  30.5426502  27.6319122
  26.0776353  74.5662260   7.8631377  25.6577253  75.3998327   7.6509839
  26.0436726  74.0665007   7.0474458   5.6708956  67.2642851  19.6878231
   4.7827417  67.4160337  19.3647337   5.5577296  67.0737791  20.6190228
  81.7787272  65.8471727  37.2382832  81.1309952  66.3798475  36.7768359
  81.8974248  66.2893295  38.0789042  73.2251912  72.3251390   9.4302052
  72.4203330  72.8357267   9.3422550  73.5700554  72.5677681  10.2895260
   3.8752726  17.9670393  55.3285122   4.1424364  18.7180126  55.8585072
   4.4423398  18.0036354  54.5582342  43.6374771  10.2775564  14.2312360
  44.2780768   9.5729723  14.3283665  44.1123353  11.0694589  14.4834936
  24.6743512  40.3129530  16.0607433  23.7340879  40.3050470  15.8816516
  24.8678708  41.2232447  16.2846911  37.1415901  43.2235050  34.8911333
  36.8847203  43.9695597  35.4330301  37.4982309  42.5881195  35.5118799
   2.0137678  57.5248384   5.0038123   1.0908905  57.3378420   5.1757479
   2.0006207  58.1470680   4.2765626  25.6600165  77.9953718  22.3390341
  26.0325336  77.9783964  23.2206106  24.9255204  77.3827791  22.3775482
  62.0634228  54.7824860  41.3819647  61.7921001  53.9542818  40.9861231
  61.9785219  54.6367788  42.3241901  13.0421865  55.4792547  17.0863307
  13.8517594  55.2984285  17.5639546  12.5794363  54.6414423  17.0735013
  25.4073233  21.0918327  36.8196750  26.2608070  20.7478233  37.0832205
  24.7742171  20.5282636  37.2644210  84.5448212  41.6767359  21.1662221
  85.2124023  42.3583508  21.2434888  84.0280776  41.9330788  20.4023552
  74.8780209  65.4058027  13.8223493  74.7842938  66.1738634  14.3858469
  75.1835698  64.7140598  14.4091785  59.5162040  78.4174967  36.4493704
  58.6522013  78.1361532  36.1484098  60.0960833  77.6889992  36.2274241
  45.9058332  79.9169302   6.3932908  45.1160288  79.4417953   6.1350638
  46.1764956  80.3803062   5.6006652  45.0592371  78.0261284  57.4596120
  45.3571077  77.5296861  56.6973460  45.3629430  77.5166231  58.2108784
  19.2993259  63.8461685   8.4679681  20.0499630  63.8443232   9.0619159
  19.6823466  63.9608049   7.5982642  47.7397274   8.3884897  22.7410340
  48.4971105   8.6458578  22.2153306  47.3226653   9.2158689  22.9813313
  11.3380671  75.7522058  34.2676139  10.5933392  75.5882931  33.6890411
  11.7942107  76.4922857  33.8670611  76.8658698  50.4709816   4.9609020
  76.5619701  50.4234505   4.0544707  77.7991152  50.6717682   4.8904103
  73.7999493  60.0744724  11.4156532  74.5687288  59.7199821  10.9689486
  73.7321693  59.5603609  12.2202170   3.3947147  13.7483927  36.4420844
   3.4392131  14.6657320  36.7117811   3.4314431  13.7777658  35.4860402
  15.4015100  52.6950073  22.1063137  15.6086230  52.6428938  23.0393839
  14.7878408  51.9758081  21.9566560  52.2312228  24.3923708  54.8700321
  51.7374362  24.2008348  54.0727103  52.4731774  23.5326048  55.2142609
   3.3442092  51.9353437  39.0500855   3.1781298  52.0746660  38.1177568
   2.7736375  52.5644064  39.4916296   5.3360801   3.0136671  14.0646064
   4.4887786   3.3259287  14.3821037   5.9356647   3.7420931  14.2262042
  25.9951805  53.2875520  67.3663311  26.1971720  54.0228158  67.9449660
  25.0430240  53.2009727  67.4125195  19.4295490  16.2381375  34.8039365
  20.0002551  16.8904984  34.3977952  19.2202067  16.6046917  35.6630325
   8.1363970  50.6176853  14.8610985   7.9484755  50.1556587  15.6780756
   7.7695715  50.0559092  14.1784000  35.2372694  60.3642225   5.1310879
  34.5128727  60.9558535   4.9274832  36.0211825  60.9065437   5.0439018
  34.2680717  61.5636349  28.9738822  34.4006181  62.1881437  29.6870780
  34.0416074  60.7435846  29.4125915  75.5427432  59.1635990  14.7668362
  75.7259256  59.9568510  14.2634201  75.8365959  59.3698406  15.6541610
  49.9464918   3.2253834  68.3208141  50.1458443   3.6618610  69.1490536
  49.6224708   3.9248606  67.7533831  24.5209612  30.4674240  68.0903835
  25.1899255  29.9636408  68.5539771  24.9883093  30.8690306  67.3579008
  30.8941412  24.8456383  12.5523162  30.0606108  25.2042580  12.8570282
  30.7506371  24.6615815  11.6240048  36.1400318  60.8968735  19.6712089
  36.7443323  60.2944660  20.1049829  36.0437989  60.5439711  18.7866569
   5.8621252  41.0163164  18.6850786   6.0894513  41.6950035  18.0495143
   6.4584720  41.1658144  19.4187367   0.6643990  24.8145723  12.8354335
   0.7151037  25.4961348  12.1652591   1.4993656  24.3512034  12.7694559
  41.8638754  77.4369431  24.5468903  42.1291018  78.2978773  24.8704290
  41.3136435  77.0784521  25.2432847   4.8674926  67.0717144  25.9307075
   4.3766391  67.6604748  25.3574204   4.6991012  67.4014282  26.8134093
  33.8074226   9.3723532  59.0687907  34.5860238   8.8187548  59.0092970
  34.1056533  10.2364441  58.7848282  48.8009483  28.7716341  10.7268631
  49.0640384  27.9452515  10.3217638  48.1037837  29.1042280  10.1615524
  63.0801803  57.8959894  25.6327295  63.6559063  58.5985231  25.9347510
  62.3752695  57.8691816  26.2797332  45.3977198   7.3503156  67.4393421
  45.7666392   6.6921373  66.8503336  45.4375489   8.1667276  66.9412316
  72.4657518  55.6029654  22.9504395  72.7073842  55.2145147  23.7912440
  73.2659429  55.5580807  22.4270749  27.6375936   8.6375322  15.9112155
  27.7895435   9.5601835  15.7066596  27.0664660   8.6533727  16.6791964
  21.2249923  23.1016779  45.8262777  20.5406690  22.6004648  45.3827477
  21.7039990  23.5318828  45.1179647  29.7289727  21.3084688  18.0819952
  30.5947985  21.0505857  18.3983374  29.1641503  21.2460031  18.8522577
  55.4713150  23.7445970  50.2078784  55.3188417  23.4868999  51.1170412
  56.3643870  23.4538933  50.0230897  82.1606794  72.2601891   2.0567946
  82.7514616  72.2971821   1.3045713  82.7357104  72.1015024   2.8053862
  52.9501690  24.4317718  64.3641872  53.0365361  24.7366472  63.4609581
  52.0056112  24.3884512  64.5130689  27.7345131  54.4063133  17.8359413
  27.7446888  53.4613460  17.6837539  27.7033804  54.7897571  16.9594478
  43.3025311   0.7158365  27.2500062  42.7286362  -0.0497637  27.2227526
  42.9738318   1.2355699  27.9835343  16.3516344  16.2445541  57.4450446
  15.7156337  16.0319658  58.1280828  16.4898647  15.4187914  56.9810999
  45.6129240   8.6594858  16.7525458  45.9508561   7.8452482  17.1254456
  45.7725953   8.5767545  15.8123910  16.0470556   3.5011091  27.4325109
  15.9594547   2.5837984  27.6915383  16.8430923   3.7992849  27.8725696
   9.2787040  41.9731279  67.1790769   9.3525590  42.8846117  67.4618596
   8.3376993  41.7977949  67.1792631  18.2477092   8.4908571  27.8193331
  18.5182058   7.8069105  28.4319282  19.0367239   8.6849012  27.3133326
  78.9844352  46.8113613  10.5556476  78.4134787  46.3111639   9.9725175
  79.8703152  46.6099739  10.2541649  32.8161331  10.2679910  15.7578731
  32.2617124   9.6767034  16.2670159  32.5408917  10.1329984  14.8510933
  60.0388177  78.5774547  40.7472015  59.3617280  78.4495550  40.0828052
  60.3682526  79.4616634  40.5863238  72.3318131  44.7532793  59.1916657
  72.8476496  44.6776625  59.9944276  72.9652400  45.0158258  58.5237814
  36.3894134  18.2087412  43.7109756  36.5753954  19.0900983  43.3871746
  35.4638546  18.0701246  43.5100842   0.3215970  44.7593351  41.2170315
   1.1205853  44.7017809  41.7409969  -0.3783070  44.5062586  41.8189622
  25.0483537  62.5718451   9.7534847  25.0362945  63.5259056   9.6770161
  24.3333769  62.2772884   9.1893262  19.3468201  49.9092293  12.8237164
  18.8855660  49.0916538  13.0109119  19.9408352  50.0243425  13.5654223
  42.6419527  29.3301149  56.6568435  41.9032330  29.8759456  56.3874043
  42.2376246  28.5623451  57.0609177  34.1929722  32.4045563  33.1726360
  33.4490776  32.2500372  33.7548542  33.7959218  32.6358175  32.3329353
  61.8423225  35.8318516  24.7960473  62.0266248  34.9094721  24.9734688
  61.3723920  36.1358734  25.5725575  39.4592320  24.3088617  15.5641997
  38.9776157  24.8945894  16.1483252  40.3311454  24.2455854  15.9540641
  44.6707534  22.6590624  31.0652971  44.2884992  23.2544603  30.4206204
  44.3688427  22.9942693  31.9095206  81.6384634  59.7380257  32.7390528
  82.1997312  59.1012096  33.1814075  80.8329374  59.7471905  33.2560396
  18.2122004  32.1269832  68.9716876  17.8265333  31.2529693  68.9118191
  18.7334549  32.1043144  69.7741910  82.2370956  43.5148472   1.0828637
  82.9189942  43.0493873   0.5985164  82.6928733  43.8921493   1.8352889
  83.7258625  66.0856676  34.9196482  83.2412930  66.2390566  35.7307553
  84.3137856  66.8374395  34.8460627  35.8517432  80.2375031  16.3422394
  35.7045197  80.9332561  16.9829369  36.3796353  79.5897532  16.8091202
  33.2652736  69.1096878  32.7636433  32.9897308  68.9289379  33.6623311
  32.4558496  69.0768385  32.2537565   6.6498327  57.5601673  15.6284070
   7.5035232  57.9593706  15.7959712   6.0396075  58.2974625  15.6125820
  62.3847376  15.5935278  37.4311852  61.6814672  15.9808244  37.9523778
  62.0116269  14.7796335  37.0926499  45.2738224  14.3202200   6.2518573
  44.5136498  13.7695398   6.0644549  45.7615613  13.8364210   6.9184041
  40.4493224   2.2957410  36.5586424  39.7343921   1.7565431  36.2204480
  40.9259139   1.7162122  37.1529889  30.4368591  57.3253632  15.2176440
  31.2980342  57.5250721  14.8505950  30.5689406  56.5163994  15.7119775
  84.0966652  78.4668350  21.8467498  83.1605563  78.6060953  21.7034364
  84.5159011  78.8414335  21.0720563  44.8636913  55.3855228  19.0954328
  44.5974350  54.4734955  19.2118371  44.0446758  55.8563042  18.9411223
  39.0757632  21.6695857   2.3097487  39.1924787  21.6941500   3.2594886
  39.8964000  22.0152116   1.9585663  41.9515419  54.9667978  19.8740470
  41.4923334  55.2768993  19.0935397  41.2666607  54.8831606  20.5375028
  38.7929173  74.7450954  65.2812982  38.7702557  73.9020449  65.7340497
  38.6948331  74.5224982  64.3555225   5.1715350  76.0447407  35.6879306
   6.0797364  75.9093809  35.4175973   5.2365440  76.5176249  36.5176201
  72.7154862  46.5412321   2.9859638  72.7855765  46.9488992   2.1227580
  73.5584580  46.1064138   3.1146541  12.5860155  63.2267952  27.6874208
  12.7526033  62.7550316  28.5034585  12.3190403  62.5474262  27.0682192
  56.5149258  46.7823263  65.1388953  55.7424656  46.4425703  65.5906773
  57.1659301  46.8974634  65.8311147  66.9635934  63.1047487  36.2102294
  67.5936395  63.0145597  35.4952884  66.4644140  62.2881746  36.1940002
  58.6599398  66.5408945  29.5970011  58.8435173  67.2386980  28.9680290
  59.0672207  65.7625389  29.2168403  39.8144590  15.8635511  51.3524055
  39.4332134  15.2082338  51.9367409  40.7367753  15.6165685  51.2848425
  34.0594911   0.0948991   8.4625459  33.8832926  -0.3672514   9.2820585
  33.4872173   0.8616151   8.4921324  16.9789672  70.6960011  23.4614301
  16.7720497  69.8525572  23.0589175  17.2677600  71.2448978  22.7323580
  62.5170761  66.3725996   5.5233914  62.8492624  66.6115665   4.6580720
  62.3950416  67.2090483   5.9724861  77.8454529   3.6695470  40.5011368
  77.7287327   4.6184148  40.5485296  77.5684630   3.3509531  41.3602114
  23.9404035  29.1836929  45.7026052  24.1851139  29.0264273  46.6145372
  24.6373582  29.7437191  45.3607607   9.4019538  48.1440783  52.9936409
   8.9106137  48.6965322  53.6015940   9.7683549  48.7567139  52.3559427
  27.7830338  51.2679338  12.2136641  27.8829336  51.1018085  13.1510305
  27.2117805  50.5645037  11.9053006   8.7196177  43.2587671   8.1244558
   8.1971878  42.5172186   7.8188372   8.1402391  43.7290382   8.7239558
  15.2407372  56.4316559   6.8258178  15.4948306  55.5088282   6.8184471
  14.4653690  56.4621210   7.3862714  43.4188448  16.0450067  31.7082953
  43.7477158  15.4020109  32.3364949  43.6777436  16.8909826  32.0737052
  35.4310357  11.1082925  14.8744309  36.0335504  10.8277406  15.5632687
  34.5671110  11.0795965  15.2855778  30.1826453  56.1270094  11.9093561
  30.3672838  55.6999111  11.0728574  30.8148956  55.7449436  12.5180554
  24.9465036  76.3278580   5.8970231  24.5723295  77.1786737   6.1257988
  24.2456722  75.8767557   5.4263031  78.4780044  40.3829809  57.3947895
  78.9915151  41.1195799  57.7263845  78.3286948  39.8304411  58.1620217
  32.6881719  74.2216492  40.8103228  33.2718301  73.5088682  40.5504799
  33.0862260  75.0065088  40.4337740  39.9666463   0.6214990  30.4504824
  40.1729058   1.2968912  29.8043156  39.9407720  -0.1920042  29.9467230
  73.8620789  54.7365995  63.0053306  74.8035545  54.8771234  63.1058568
  73.6925144  53.9134546  63.4634907  83.3570614  77.3710108  27.1691847
  83.8748056  76.5943003  27.3810625  83.6063381  77.5872374  26.2706661
  40.9727240  69.3667984  27.2393847  40.7939672  70.2471876  26.9089413
  41.8655300  69.4158983  27.5810289  65.0121845  51.9422193  55.1677681
  64.5856459  51.1591383  55.5157471  64.4439043  52.2263952  54.4518531
  13.2083154  67.8227711  15.8743882  12.9794478  67.8319979  14.9449968
  12.7661657  67.0483541  16.2222588  62.1095477   9.6288290  13.7657464
  62.5719868   9.0475454  13.1620228  61.4128457   9.0858926  14.1346025
  53.3242427   3.3751669  13.7374675  52.6916324   2.7645292  13.3590984
  54.1508042   3.1629743  13.3038771  32.9346236   6.6362466  31.5412068
  32.3408409   6.2328233  32.1743751  32.6077520   7.5304594  31.4423347
  23.2936335  48.3845091  14.3082583  22.9389334  47.4955940  14.2926085
  23.0547523  48.7527132  13.4576166  35.3321648  69.4354343  25.6003809
  34.8602271  68.7346125  26.0502148  35.3957391  70.1362514  26.2492633
  66.5683895  71.0802221  50.1946783  65.8410615  71.2021637  49.5844698
  66.7624468  70.1438713  50.1519632  33.0388333  19.0206899  42.0163631
  32.5179898  18.7137689  41.2742376  32.4941282  19.6898164  42.4308395
  57.4476062  11.6461172   4.1229528  57.5363575  12.5964632   4.1950759
  56.6275154  11.4471807   4.5747340  32.1252370  69.3933201  19.9561954
  31.9660711  69.9637270  20.7082176  32.9193497  68.9106035  20.1855469
  17.5784779  25.9119248  35.9455514  17.1174824  26.3462114  36.6632652
  17.8828204  25.0858974  36.3214278  52.8864943  44.1599931   1.4139560
  53.5105764  44.7491731   0.9901449  53.4073912  43.6847772   2.0613162
  24.5807981  53.5274935  11.3365543  23.8360810  53.1643534  10.8572257
  24.6496868  54.4297028  11.0242999  34.2368995  28.5956850  40.5292034
  34.4391148  29.0101137  41.3680029  34.5642607  29.2108812  39.8730063
  79.4382424  62.7699705  62.6209862  80.2650518  63.2350393  62.7487451
  79.2957849  62.7902361  61.6746635  46.9118452  66.1452389  40.2735806
  47.5693321  65.7505131  39.7007489  46.8191624  67.0412970  39.9499774
   9.3270862  44.0186119  22.7707505   8.8229048  43.6383963  23.4901023
   9.6371621  44.8571920  23.1126094  44.2228400  18.4362783  16.6073942
  44.0725123  19.3375673  16.8925416  44.1725587  18.4756841  15.6523275
   1.9336960  21.5327454   3.7270531   2.3957789  22.1888638   3.2053044
   2.0983946  21.7889452   4.6345046  82.6521787  34.6688986   2.4534026
  81.9542560  34.0732956   2.1806508  82.9315396  34.3359232   3.3062309
  65.4996443  59.2491913  25.4843950  65.4150724  59.4339132  24.5490026
  66.3634109  58.8460827  25.5717897  18.9629257  51.8400717  33.8864160
  19.5389223  51.1879253  34.2853761  19.1921520  52.6608038  34.3224049
  27.8125811  65.0825310  33.1980658  27.0060086  64.5679569  33.2278037
  28.1970572  64.9756956  34.0681219  14.6736932  69.4226027  26.7722702
  14.8283446  69.8999119  27.5874352  14.6887839  68.5003662  27.0281672
  47.9771353  51.7233320  67.2370038  48.4075768  51.3301702  66.4778084
  48.1001718  52.6654573  67.1208484  66.0612093  17.3061456   5.1670009
  66.7424618  17.6550665   4.5922184  66.5274202  17.0494356   5.9626001
  51.5501796   2.6298036  21.2049651  52.3904835   2.2250166  20.9898496
  51.1728846   2.0577707  21.8732905   2.8367962  25.2829262  61.5987802
   2.7975691  24.6989723  60.8413560   3.7383498  25.2089926  61.9117749
  78.7163985  17.2259307  19.8955369  78.7678480  16.4905441  20.5061030
  78.9078152  17.9957950  20.4311681  28.6512303  79.1415977  41.5668297
  29.0892196  79.9699879  41.7621899  29.0414834  78.8530731  40.7417917
  26.3249207  67.7764463  14.0767264  25.8834553  68.5212708  14.4848609
  27.2124505  67.7986193  14.4345427  48.4537922   1.8979921  15.8400524
  48.7119209   2.7845468  15.5878198  49.2697131   1.4802732  16.1157537
  38.8424121  11.0283174  53.3490038  38.6037122  11.5956964  54.0820408
  38.0359482  10.5580225  53.1376457  35.1732253  21.1524667  33.8461113
  34.3250321  21.3292112  33.4392166  35.7447081  20.9159937  33.1155515
  63.4664475   6.1525716  24.7684765  63.8249289   6.5447702  25.5646586
  63.9616333   6.5591135  24.0573144  58.9459025  23.3110418  11.1763096
  58.5708844  22.4638929  10.9355974  58.7233864  23.4173669  12.1011949
  82.1220681  70.6651926  33.8611698  81.8255156  71.3930178  33.3147669
  82.2906035  69.9544573  33.2425594  30.9088371   4.4579878  25.6287837
  30.8338760   4.3116369  26.5717554  31.3849201   5.2848234  25.5518270
  75.4694092  78.8188601   2.4675903  75.1836973  78.1341696   1.8627743
  76.1214709  78.3912277   3.0227268  28.8530593  21.5075102   7.0580280
  27.9433303  21.3769426   7.3255593  28.8308196  21.4599981   6.1022663
   6.2049276  45.0384474  22.1827149   6.3677377  45.9660053  22.3540711
   6.8621820  44.7964525  21.5302682  65.7596766  13.9998617  36.4640665
  65.2714311  13.5952844  37.1811175  65.1544153  14.6431436  36.0951686
  26.6671658  31.7660499  66.6136694  26.4922786  32.5245285  66.0565710
  27.1727443  31.1725116  66.0583925  62.1513568  19.8016252   2.2043090
  61.9929849  20.1660051   3.0751550  62.6741372  19.0160265   2.3648360
  46.5195847  76.6868591   4.4458750  46.8528557  77.4038935   3.9064074
  45.6023932  76.5984249   4.1866907  31.1765688  16.3851442  45.3654194
  30.4965769  16.5145101  46.0265589  31.3636537  15.4468527  45.3946733
  53.0234254  38.7036463  63.6006010  53.3314435  38.8915344  64.4871981
  53.5810481  39.2379232  63.0350626   0.9547604  16.0898062  42.6711178
   1.0223616  16.7721983  43.3389497   0.8284296  16.5682407  41.8517447
  52.9054832  70.0435448  21.4607477  53.3201981  70.8864164  21.6446400
  52.5325727  69.7720432  22.2994709  60.4773341  42.9065367  54.8647667
  60.2825813  43.8312383  55.0172055  59.6492178  42.5341364  54.5618272
  26.2510061  68.9168692  54.9947119  26.0242629  69.6505451  55.5661440
  27.1446300  69.1043139  54.7074318  64.7157783  72.9059549  53.9063442
  63.7978185  72.7853151  53.6633862  65.1908011  72.2706457  53.3706523
  44.3230820  43.3909130   9.0867352  43.4164619  43.2209158   8.8310432
  44.5343828  44.2295694   8.6765659  23.3922648  74.0678644  40.8946323
  24.1380334  73.5171270  40.6564140  23.7514186  74.7021055  41.5150976
  64.3647109  27.4308004  43.7327051  63.5667859  27.3232355  43.2150412
  65.0454437  27.6201334  43.0869579   7.9415500  70.6865788  20.4855394
   8.7740296  70.2146339  20.4636645   8.1661391  71.5804911  20.2272582
  27.2557468  28.3557405   4.7928300  27.9573179  27.7198305   4.9330136
  26.4803921  27.8223219   4.6181014  55.3457737  64.6883535  43.4189415
  55.3584766  63.7409163  43.5547161  54.4721651  64.9590874  43.7013292
  18.8438201  60.3615856  35.5027080  18.6022639  61.1958313  35.9050941
  19.7570562  60.4776764  35.2404976  58.2060968  24.2045107  23.8783407
  58.2981931  23.3593549  24.3181729  58.1371557  24.8393526  24.5914030
   3.7386510  59.6824360   5.9729260   3.3799589  58.8216925   5.7568395
   4.6382731  59.6557045   5.6470466  82.6174159  21.6988989  53.9609373
  82.9401703  21.4989944  54.8396290  82.9371328  22.5835749  53.7838555
  14.7798789  75.5220413  39.7507453  14.6483278  75.7730484  38.8364577
  15.4286063  74.8191071  39.7151756  35.7788291  60.0253838  65.4113421
  36.4674380  59.5657939  64.9308974  36.2475844  60.5385405  66.0694984
  51.8721925  15.9020891  24.9768853  51.3355433  16.6579618  24.7383404
  51.6266047  15.2253427  24.3460679  72.5029599  15.7247533  21.4989448
  72.5347601  14.8593607  21.9067502  73.3965479  15.8777990  21.1918426
   3.4166341   5.9687700  22.3751569   2.7757173   5.3311624  22.6896691
   3.2681613   6.0116090  21.4305115  69.5588528   9.0932359   5.4231352
  69.2619692   9.9576845   5.7074326  70.4898774   9.0749159   5.6446815
  19.2023492  31.9864535  38.3255601  18.9127529  31.6679096  37.4706364
  19.6611869  32.8042817  38.1335759  75.6275021   5.8765497  29.9161434
  76.1497866   5.3844442  29.2826724  76.2280642   6.0452451  30.6421590
   9.4463014  13.8550272  11.2957835   9.4155609  13.0558576  11.8217301
   8.8057803  13.7084570  10.5997372  52.6956521  16.9237699   5.3342158
  53.2131659  17.6120271   5.7522053  51.7901813  17.1313371   5.5650198
   0.8419806  74.9951887  13.5871637   1.5910350  75.5602932  13.3979356
   0.4404759  74.8356724  12.7330077   6.3270431   1.1673059  39.4765449
   6.0128789   1.8358411  40.0853109   5.5829005   0.5755129  39.3658137
  10.3247905  73.5568285  15.8930695  10.2456510  74.3269110  15.3300941
   9.6436632  72.9610395  15.5810833  22.1322227  70.6953955  43.0463839
  22.7905560  71.2172508  43.5051823  22.6400423  70.0709867  42.5282431
   3.2717386  45.2108145  64.2928314   3.0646604  45.6260872  63.4556341
   4.2098299  45.3613186  64.4092941  74.2942940  17.5011434  26.6365194
  74.4238697  17.1375074  25.7606173  75.0819718  17.2501363  27.1189976
   6.6837186  59.9352884  23.4663844   6.5259320  60.5636883  24.1709733
   7.3646516  60.3421402  22.9306293  66.0089588  76.7010021  53.4599590
  66.1533785  76.1284161  54.2132950  66.4085913  76.2355137  52.7252150
  11.6619563  75.2826214  36.7611933  11.4690483  74.3695164  36.9739151
  11.3172841  75.4002953  35.8759904  27.8133297  59.4735336  37.4829578
  27.2968984  58.7064648  37.2357106  27.2881126  60.2194405  37.1931267
  47.1648407  67.4623632  48.5151958  46.6213131  67.3798847  47.7316093
  46.9688749  66.6771603  49.0263557   2.6600700   3.5085668   0.8769049
   1.7959743   3.1188478   1.0098703   2.8279309   3.9991655   1.6814961
  44.7025550  30.8983227  58.2169307  44.0348018  31.5044685  58.5377396
  44.2383350  30.3377052  57.5952840  78.5636282  71.8001175  25.2908683
  78.6139888  72.4068832  24.5522666  78.0280608  71.0749769  24.9690413
  26.8656778  56.8265820  36.5147686  26.9038939  56.2321901  35.7654548
  26.7294812  56.2529278  37.2688293  38.3222156  25.0652685  20.5951858
  37.5959664  25.4158106  20.0795221  37.9864209  24.2440405  20.9544349
   6.0638035  68.5270067  63.1334907   6.8297304  68.4396025  63.7008954
   5.7096852  67.6399370  63.0707968  28.5643382   3.6468591  24.6963859
  28.1669905   3.4676542  25.5485773  29.4376014   3.9790907  24.9043989
  53.6387110  80.3307915   9.3632877  54.0424204  79.6449709   8.8314098
  53.2953787  80.9571552   8.7260801  70.3906448  52.2886892   7.1198273
  70.6144924  52.6199385   6.2501097  71.2291975  52.2329756   7.5780345
  39.9846588   0.7299509   4.4935372  40.3679239   1.1282529   5.2750063
  39.0441142   0.7122984   4.6704429  33.8894486  77.6215649  21.8870711
  33.9836478  78.5602093  22.0492601  34.1048431  77.5158119  20.9604359
   8.3877290  26.6330477  56.8241347   8.3210481  26.2543913  57.7007199
   7.5573791  26.4103504  56.4032329  46.6777325  59.2903662   6.8017298
  46.7479801  60.1335192   6.3540727  47.1710491  59.4083500   7.6134896
   9.2832464  64.4719744  15.4835391   8.8148034  65.1192427  14.9564385
   9.0046793  63.6275625  15.1291323  52.4864435  75.1076555  11.3094890
  53.3970594  75.3513432  11.1432624  52.2331047  75.6318283  12.0692873
  51.1102234  40.9244718   4.2898211  50.6188880  41.0164537   5.1061296
  50.4626309  41.0780611   3.6018777  64.3515693  26.6130628  50.1607704
  63.4045111  26.5716638  50.2934170  64.6633469  25.7362070  50.3847122
  74.6162354   6.2295618   1.7851503  75.2245938   5.4995241   1.8999638
  74.8170458   6.8245592   2.5075665  71.7740237   7.8862085   3.1614545
  72.7233111   8.0088319   3.1687155  71.5726506   7.5244131   4.0244645
  30.1921082  59.2132187  33.4679770  30.1264262  58.5968876  34.1973948
  29.5046949  59.8576975  33.6363292  41.4057311  72.3975092  60.2057225
  41.9336816  73.0751067  59.7833932  41.9609662  72.0665842  60.9117205
  31.1319256  59.8492622  28.7572598  32.0848179  59.8990440  28.8330817
  30.8666253  59.2541456  29.4584632   4.4754319  30.8275404   9.5330459
   4.1803937  31.7291631   9.4055259   4.2931705  30.3955927   8.6985195
   2.6703553  40.7033338  17.5410891   1.8445783  40.8103552  18.0131817
   2.4218230  40.2894201  16.7145681  46.5347480  11.0884466  29.8877120
  46.6614603  10.4619589  30.6002331  45.7724892  11.6027059  30.1536751
  73.7642228  16.4775457  24.0142941  73.2944666  16.7449083  23.2243085
  73.5502612  15.5503359  24.1179323   5.2628648  70.0859976  21.9022918
   6.0637605  70.2914858  21.4200330   5.4836524  70.2580357  22.8176546
  59.7090192  59.2727514  62.3792113  59.9925245  58.6869093  61.6773254
  60.5133612  59.4872232  62.8517241  64.5971854  30.6542345  68.5683630
  63.9741696  29.9459644  68.7309734  64.2464728  31.1108633  67.8036929
  39.1041231  45.3197527  19.6802855  39.2592621  45.9486103  18.9755142
  38.7601519  45.8476257  20.4008842  16.1030197  56.3824224   2.8758958
  16.8617654  56.8516064   2.5289071  15.6220555  57.0416212   3.3762565
  12.7138257  19.4159961  17.2168124  13.1765771  19.2445350  18.0369914
  12.5543439  20.3597856  17.2245705  55.7552248  57.5165415  10.6268394
  55.0635153  56.8727732  10.4740942  56.5452367  57.1076870  10.2733541
   9.6791512  22.4461818  16.7452157   8.8134849  22.1064758  16.9720495
   9.5198584  23.3536267  16.4856005  25.6577416  45.6616747  66.3368321
  26.0965042  46.1597282  65.6471497  24.7908553  45.4697835  65.9791762
  11.5113759  53.5470057  29.1718984  11.2054360  53.7690210  30.0512981
  10.9741580  54.0833998  28.5888815  15.7519492  78.6230785  61.4771343
  15.8714720  78.4752566  62.4152685  16.5655120  78.3120924  61.0801012
  35.4764627  12.2036829  28.1092381  34.6969186  12.5976171  28.5008478
  35.2237504  12.0213213  27.2041893  58.5827392  10.6171795  68.2206253
  58.5616956  11.0781570  69.0592464  58.0095761  11.1301370  67.6508973
  52.8656085  63.7211901  67.2569070  53.2705196  63.8158613  68.1190661
  53.5723909  63.9068562  66.6386682  17.2629607  15.5983305  47.4569607
  17.9220736  14.9573302  47.7232695  16.4423442  15.1058030  47.4415922
  58.7465006  63.2521152  19.2412162  59.4273835  62.9117966  19.8215723
  59.2273933  63.6558962  18.5187674   9.5532018  73.3173275  11.8779910
   9.7511405  74.1732454  12.2580683  10.3535759  73.0700302  11.4148760
  20.9143662  65.4403687  34.8391318  21.0861135  64.5715380  34.4759870
  21.7209744  65.9304047  34.6795130  56.0381705  29.8318052   5.6381679
  56.2905079  30.4624343   6.3126040  56.1486942  30.3056240   4.8138431
  30.6022716  39.4917989  29.5922160  30.3341985  40.4086399  29.5308352
  31.5141749  39.4888949  29.3012643  55.4936105  49.6443176   8.4492707
  55.5469519  49.3314981   9.3523383  56.4004642  49.8313046   8.2066107
  80.4623520  34.3701744   4.8567608  80.8924913  34.7330117   5.6310749
  79.5919907  34.1158175   5.1633626   8.5214221  36.6002011  18.8763523
   8.1071192  37.4119210  18.5836172   9.1627914  36.8805718  19.5292449
  60.1374852  30.4961862   0.5156677  59.3284189  30.1801576   0.9178746
  59.9272310  31.3813772   0.2182369  22.9576201  19.2336460  63.4309620
  22.3160763  18.5261484  63.3668912  23.5452218  19.0920778  62.6887257
   4.3687618  10.2872717  43.2866526   4.0111786  10.7630873  44.0362978
   4.4982228   9.3952447  43.6087656   9.7300082  51.4929771  21.7708087
  10.4355538  51.2563944  21.1687589   9.2453372  52.1801901  21.3135719
   9.4855642  56.0636139   6.0095358  10.1314354  56.6494513   5.6147170
   9.6979779  56.0670996   6.9428629  21.1029649  53.4908009  14.2534053
  20.7569313  53.5230255  15.1452875  22.0507717  53.5699987  14.3612230
   7.6878732  50.0634384  46.5157652   7.3538375  49.2005682  46.7609358
   7.4786329  50.6227016  47.2638798   1.1360309   6.5660203  25.4694986
   1.9167846   6.6060340  26.0218167   0.4045253   6.6070086  26.0854959
  69.8872824   7.3233696  58.4049535  70.3901858   8.1005903  58.1615520
  69.5776029   6.9678922  57.5719071  55.5169469   8.4572172  35.4326344
  55.9644347   8.2128471  34.6225309  55.0008780   7.6848328  35.6635594
  11.5482987   3.0144020  56.3284314  11.5017260   2.4531408  57.1024132
  11.8819154   2.4422308  55.6373799  69.4619769  36.7513776  14.1128838
  70.2361780  37.0268321  14.6037710  69.4410366  35.7996511  14.2129230
  60.4903926  19.3595262  67.1293919  60.9159745  19.2316719  66.2815917
  60.4387347  20.3099628  67.2305465   3.2539877  18.9913201  34.5480037
   2.6619437  19.3873405  33.9085650   3.7445700  18.3388150  34.0482068
  32.6975702   0.4054823  13.7909770  33.1968569   1.0505094  13.2900906
  31.9281300   0.2260389  13.2506156  12.9242166  46.9569498  52.0602716
  12.2740682  46.2573504  52.1243048  13.6786719  46.6282737  52.5491477
  81.1655468  52.0676899  26.9232440  81.8642581  51.4204550  26.8277431
  81.1959586  52.5744677  26.1117744  10.1296104   7.0101877  59.9872292
  10.9300436   6.4930960  59.8969335  10.2238906   7.7119633  59.3431366
   2.3855616  28.0454874   3.2586801   2.1621206  28.7492800   3.8677648
   3.3378935  27.9700851   3.3187655  23.1259704  77.9443169  12.9750323
  23.8463998  78.4212399  13.3870471  23.1726098  78.1911039  12.0513701
  53.8683004   6.9710298  64.7094435  53.0025829   6.7138334  64.3922479
  54.2160959   6.1811729  65.1234437  81.9228167  30.7149645  45.4581166
  82.5003047  31.2095447  46.0396052  82.1065898  31.0628029  44.5854951
  14.2780316  31.9029164  15.4763854  14.0999258  32.5071311  16.1971033
  14.9706805  32.3294520  14.9718690  46.8363043  79.6917397  39.6801449
  45.9019931  79.6482354  39.4766665  47.2561725  79.1807014  38.9882041
  79.5680923   2.0123382  38.6697865  78.7320204   2.0049091  39.1357899
  80.1607270   2.4917646  39.2487240  20.4353137  15.2576824  69.6232736
  20.4958959  14.7951742  68.7874226  19.4954438  15.3609796  69.7722794
  18.2372439  72.4226904  21.7342305  18.1266332  73.3069277  22.0836902
  18.2777452  72.5434113  20.7855392  36.0993338  48.7300873  22.8316426
  35.8745480  49.6392870  22.6340008  36.3267279  48.7362671  23.7614202
  48.1077051  67.1643591  25.3885055  47.1818352  67.1762133  25.6311107
  48.2110548  67.9132175  24.8013449  28.1491012  18.2010933  50.1953555
  28.2142229  18.3207746  49.2479015  27.9010410  17.2830387  50.3043140
  78.5955210  24.0474220  61.0839344  79.4419951  24.3933101  60.8009625
  78.7066169  23.0968853  61.0645718  80.4505736  18.4761417   8.1527483
  80.1654911  19.2009521   7.5963229  81.3538221  18.3086514   7.8838217
  58.4707557  18.6849966  20.6577468  58.3410941  19.6218195  20.5101466
  58.0311858  18.5105505  21.4899588  24.7328329  35.7198668   1.0807522
  25.6007218  35.7964516   0.6843448  24.9059629  35.5920458   2.0134473
  41.2216075  72.2418696  66.2475351  40.3366073  72.2908217  66.6089348
  41.1415263  71.6535288  65.4967529  58.7371896  23.3223482  52.1853984
  58.7931592  23.7563320  51.3340712  59.6483419  23.1858536  52.4450195
  65.2607163  58.8135260  54.2063213  66.1199482  58.8729256  54.6239615
  64.7028144  59.3954438  54.7224117   3.9766273  45.8097172  16.0599244
   4.2362481  44.9022150  16.2188864   3.1726742  45.7421255  15.5448306
   5.3659656  69.8009783  52.3072053   4.6739890  69.3309098  51.8419767
   5.1861408  70.7250100  52.1338225  29.1368294  72.9682302   1.1397627
  29.1328287  72.0640993   1.4540301  29.8953438  73.3667564   1.5664519
  21.8223728  29.5179172  38.7045885  21.5900482  30.2165647  38.0929137
  22.0752967  29.9757381  39.5062519  21.9405365  40.9361553  33.5476446
  21.4629698  40.4189348  32.8990722  21.2857485  41.5360546  33.9048648
  28.4005785  62.8483677  27.7783966  28.2754731  63.0852938  26.8594599
  27.7117038  63.3226490  28.2439494  31.7841721  71.3491201   7.9981852
  32.0028877  71.5404558   8.9102077  32.2547603  70.5385160   7.8040141
  38.5589929  57.1262213  62.2195978  39.0800805  57.6506658  61.6116042
  37.7509851  56.9382902  61.7420626  43.4691688  74.2368776  66.0618008
  44.1050359  74.2535883  66.7770810  42.7435704  73.7112313  66.3986025
  59.1791932   3.7346598  68.9664440  59.7294630   2.9740902  69.1534449
  59.7606985   4.3454977  68.5137210  12.2972711  64.2665011  64.3459535
  12.0747217  64.8341018  65.0838781  11.4532944  64.0383178  63.9562518
   2.7193946  57.8636551  51.4840317   3.3489901  57.3450232  50.9831762
   1.9919124  57.2637081  51.6485405  11.0561359  51.7498398   5.4839623
  11.0735118  50.8725262   5.8663905  11.8091822  52.1953058   5.8721817
   3.2239786  77.9369783   2.2468452   3.8447437  77.9060888   1.5188833
   3.7550279  78.1832790   3.0041781  39.0148997  25.5073285  24.0226102
  38.3096766  26.1532187  24.0640616  39.1719437  25.3839254  23.0864811
  13.0365694  50.5105591   7.7325153  12.4993682  49.8327303   7.3224032
  13.9373612  50.2555466   7.5330818  12.2942257  62.2884846  10.1755714
  13.2155693  62.2011518   9.9311703  11.8786454  62.6797247   9.4071591
  46.5286454  79.6705085  61.0411031  47.4129208  79.5913154  61.3988978
  45.9556457  79.6255141  61.8065298  52.2034855  14.0147587  23.0221606
  52.5885517  13.1958338  23.3341218  51.5354104  13.7411447  22.3936368
  69.8093266  23.6761089  59.1008282  70.2904255  22.8629108  59.2540873
  70.2697916  24.0932175  58.3726645  53.0516084  79.9153620  60.9924377
  53.3195480  80.7722861  60.6605954  52.1385630  79.8273712  60.7188738
  78.2787032  13.4844871  22.3953534  78.6672468  14.1368862  21.8125678
  79.0055962  12.9058119  22.6255656   9.6945966   1.5083452  65.4592819
   9.3443645   0.6775661  65.7808084  10.4246272   1.2574907  64.8932779
  14.4671631  66.7164660   9.2247224  14.5983577  66.1251688   8.4835166
  15.1416862  66.4636850   9.8550802   9.8637414  59.8786688  49.8662806
   9.7094786  60.2540779  50.7331705  10.8162355  59.8782730  49.7714853
  37.7202352  79.0946847  47.7281643  37.1737214  79.0412360  48.5121895
  37.2188183  79.6416956  47.1235228  67.5583559  46.8300390   7.8547519
  67.0109803  47.3426533   8.4495920  67.5302297  47.3119259   7.0281774
  24.4450259  51.4154482   4.4608152  23.6202931  51.4044523   4.9465391
  24.8918128  50.6126070   4.7292620  28.6941528  68.0207014  45.8338976
  28.7743950  67.8600121  44.8936987  27.8044295  67.7412224  46.0495710
  64.5120383  19.8564478  46.8740464  63.9626707  19.4126125  46.2279511
  64.3671389  19.3705173  47.6859022  51.1951145  74.2599231  30.1580907
  51.1100777  73.3145076  30.2813268  51.9451650  74.3585092  29.5716286
  10.6531703  58.8012075  10.4282331   9.8370457  59.2758656  10.2705145
  10.7167554  58.7443256  11.3816226  27.9209232  45.0666904  25.0461984
  27.6351404  45.9195328  25.3736305  28.2340074  44.6043015  25.8236361
  34.8807354  16.4241644  49.9066222  35.2013726  15.7982488  49.2572737
  35.6293602  16.5753265  50.4836345  10.3253031  55.0243092  17.9081500
   9.8068297  55.1631689  17.1156001  10.6742644  55.8898973  18.1207907
  74.3842692  31.9917198  68.7015429  74.9491758  31.9473596  69.4729994
  74.8995454  31.5869470  68.0037741   6.6844940  68.0667925   0.3964830
   7.2168922  67.6472378   1.0723218   5.9822851  68.5015631   0.8803318
  58.1475671  71.7880112  41.7335892  58.2640203  72.2972327  42.5356889
  58.2929619  72.4173123  41.0271359  47.2943915   4.3881985  45.9955216
  46.5490503   3.9027353  45.6419326  47.0812662   5.3068968  45.8318186
  28.1225789  10.9320535  14.7920763  28.6954255  11.4576425  15.3505003
  27.4365683  11.5389528  14.5140469   4.7655183  42.9567385   5.8438247
   4.1824207  42.4127436   5.3143942   4.7794953  43.8013411   5.3936231
   8.2038146  57.5965548   4.1229892   8.5412234  57.1130848   4.8770764
   8.7638503  57.3264647   3.3952221  10.1867700  14.8427367  22.5705266
  11.0525703  14.6267569  22.2241545   9.6196365  14.8667824  21.7998052
  52.3216616   8.5909738  23.7843227  51.4467393   8.5464468  23.3986282
  52.8949009   8.8180723  23.0521631  83.4038170  38.7102604   8.1263769
  83.6232039  38.0497551   7.4692374  83.1665595  39.4852328   7.6171029
  43.6531973  62.9231119  12.8895283  43.4177065  61.9955397  12.9091609
  44.4947624  62.9469776  12.4340844  72.0237678  35.8795404  16.3391852
  72.6302749  36.6154814  16.4214742  71.1657125  36.2525749  16.5412188
  12.4125147  59.0798330  40.9021854  12.9606485  59.3391371  41.6428232
  12.1936774  59.9034262  40.4662561  33.1471348  10.3053582  18.8820088
  32.8154659  11.1604774  19.1558695  33.9237738  10.5057847  18.3596182
  25.1732111  78.9311981  14.9330819  25.0279236  78.0516481  15.2816737
  25.9239841  79.2630005  15.4255033  81.4954348  20.4552313  51.9467521
  81.0122867  21.1010738  51.4313067  81.8626304  20.9562059  52.6750565
  30.1103663  33.3525205   7.1500707  29.3276191  32.8197718   7.0096493
  30.5487061  32.9423118   7.8956038  25.2527679  22.6608702  34.7703458
  24.4468654  23.1762310  34.8042846  25.1474775  22.0059295  35.4604173
  24.5263060   6.3811578  18.5291302  24.7524848   5.4511537  18.5418332
  24.8582276   6.6969194  17.6886797   9.9378146  12.1258446  43.9077402
  10.3214825  12.9249473  43.5465408   9.3986357  11.7769857  43.1979395
  22.2092462  48.5323143  25.0588250  22.0335197  49.4393158  24.8084331
  21.3587260  48.1910658  25.3352237  38.3491850  41.4962721   5.5273628
  38.9522767  41.2826204   6.2393087  37.9906988  42.3512411   5.7655841
  78.5288507  64.2728615   6.3632894  78.7389594  63.4946823   5.8470333
  77.7677208  64.6529818   5.9246302  16.6357255  42.1993494  26.8975282
  16.4526570  41.8620062  27.7744079  15.7875872  42.5062895  26.5770912
  47.7043390  50.8440256   6.7821401  48.0305004  50.4009295   7.5654125
  47.6249933  51.7619276   7.0417404  14.8735034  32.9947233  31.7326975
  14.3240690  33.1862545  30.9726501  14.2594528  32.6933670  32.4022913
   0.2997912   9.3130775  50.2055932   0.9299983   9.2063471  50.9181107
   0.4340662  10.2099939  49.8994196  10.6582583  37.4336811  34.2799903
  10.5280222  38.3774992  34.1879059  10.6272281  37.0990463  33.3837271
  74.8695571   9.9555822  45.6765485  75.4933913  10.5419107  46.1046601
  74.9784250   9.1188045  46.1284185   8.7127173  61.1483622  21.7683911
   8.3779448  61.7833328  22.4016142   9.2189693  61.6728640  21.1480355
  47.6817282  72.1078902  55.4806114  46.8822905  71.6450673  55.2297581
  48.0523952  71.5797597  56.1876584  62.2218901  69.2685795  21.4195895
  61.6705233  69.7509289  22.0356798  61.6973430  69.2139673  20.6207800
  70.6526787  12.5514217  67.3043983  69.9952872  13.2431598  67.2297668
  70.5865390  12.0682712  66.4807338  13.5476971  28.6838460  19.0205121
  13.5449183  29.2293835  19.8070312  12.6236832  28.5962868  18.7864923
  53.4191044  47.8534865  65.9079850  53.7234982  47.9625928  66.8089134
  53.2397398  46.9166875  65.8275647  13.6681986  20.2064514  19.7250473
  13.3321297  19.3967414  20.1093102  12.9784465  20.8509851  19.8833251
  50.7246238  59.1793633   3.8642737  50.5030853  60.1082420   3.9301163
  51.0939246  58.9599943   4.7196838  69.3418331  34.0839144  67.0529178
  70.1215417  34.5883127  67.2850139  69.5063920  33.2109638  67.4094371
  64.5517906  52.6597208  49.9257136  64.3650087  52.2985774  50.7922698
  65.4360422  52.3535997  49.7241665  53.2745917   6.3503452  55.9590555
  52.9256711   5.5927225  56.4286209  53.9765267   5.9926983  55.4153562
  32.0598297  54.9461299  60.6326539  32.3068082  55.8656293  60.7314134
  32.6824161  54.5981342  59.9942828  66.9249577  18.8585277  65.3842840
  67.7866168  18.5287090  65.1293430  66.4165897  18.8524147  64.5732618
  72.3433155  43.5782957   1.4613530  72.4849409  42.7981424   1.9975755
  73.0144709  44.1949701   1.7537463  22.1291889   7.4095960  67.9980398
  22.3504604   7.9719587  67.2557331  21.1916317   7.2428175  67.9010663
  58.4609443  77.2378940   2.2792232  58.7895026  78.1009609   2.0274368
  58.1944058  77.3402626   3.1928477  76.2919695  19.8341556  45.9472085
  77.0571680  20.1740261  46.4110923  76.6173870  19.6204801  45.0727487
  14.0554118  41.0036564  11.5721464  14.5145953  40.6887245  10.7935572
  13.7583470  41.8824053  11.3359642  21.2729859  43.0816746  26.5509129
  20.8540869  43.3381748  25.7293510  21.0949826  43.8085985  27.1476793
  42.1590085   7.8619953  46.0361505  41.2576599   7.5928684  45.8590246
  42.6915903   7.3016640  45.4716898  44.2722554  59.7329660  52.0589054
  44.1795189  59.8213812  53.0074907  44.1322095  58.8011881  51.8903793
  79.9084984  10.3736200  19.4003236  79.6621691   9.4495763  19.3592119
  79.3547188  10.7386484  20.0904799  30.4095949  25.3790136  48.7106300
  30.4608024  26.1944099  48.2118893  29.4908155  25.1177498  48.6488414
  33.0289997   1.3570734  44.4399572  33.6909355   2.0249267  44.6189619
  32.2572960   1.8522926  44.1652513  15.7657683  61.9942188  23.5884166
  15.1961458  61.2357235  23.4601641  16.5442371  61.8001270  23.0663562
  35.4467726  43.1184292   4.4900930  34.6285820  42.9648161   4.9625334
  35.4781508  42.4230480   3.8330638  46.0099220  21.4887714   7.4197036
  46.1366701  21.6213751   8.3591634  45.3089142  20.8395600   7.3618782
  57.9841666   5.2833267  64.9187402  57.0652207   5.1346107  64.6959079
  57.9976777   6.1574932  65.3084654  59.1039507  15.8338257  49.0663982
  59.2675621  15.0124975  49.5299531  58.1532900  15.9411140  49.0974594
  74.4315667   8.1501337  49.5943905  75.0960917   8.8104482  49.7909034
  74.0263946   7.9589506  50.4402733  24.8001112   0.9332939  48.6498237
  24.7628368  -0.0207094  48.5811163  24.2384399   1.1417909  49.3963361
  36.0180879  57.2532558   3.7711826  35.9711099  57.7662754   4.5779249
  36.9541287  57.1914387   3.5808167  68.9799555  78.8305050  34.3945575
  68.5940655  78.4978658  33.5842062  68.9047154  78.1029206  35.0119663
  23.0738510  22.9285045  14.9452639  22.8193630  22.0271965  15.1430321
  23.7512077  23.1330629  15.5899144   4.2832190  61.3021326  19.9386132
   3.6091214  60.7555580  20.3424454   4.6703574  60.7451344  19.2632532
   8.8276607   1.5700197  41.5043068   8.5165685   0.6757393  41.3638926
   8.6867046   1.7288715  42.4376488  35.5001354  19.0679097  11.9440198
  35.8282518  19.6949267  11.2994885  35.7524157  19.4392598  12.7894104
  30.2512612   4.6774091  52.9086542  29.4724480   4.9710550  52.4359465
  30.1143715   4.9792089  53.8066578  51.0270370   8.0821653  64.9509586
  50.0760682   8.0793472  64.8419491  51.1594303   8.0895658  65.8989296
  24.1273046  62.7680826  28.1583834  23.8446379  62.4991274  27.2843170
  24.9512196  63.2325840  28.0112958  83.8771749  28.5405993   4.7535372
  83.0582219  28.2170129   5.1288241  84.1105519  29.2914915   5.2993649
  38.6482204   5.1403137  67.5118344  37.7034486   5.2527328  67.6167121
  39.0028919   6.0274835  67.5698662  49.5075735  54.3198603  57.8003550
  50.4238399  54.0961641  57.6371134  49.2357191  53.7226516  58.4972537
  69.5629597  28.9526582  25.1578832  69.9024916  28.1560731  24.7499609
  70.3160238  29.3275809  25.6145668  71.9029196  61.1269742  69.2303768
  71.5135201  60.4845267  69.8235555  72.8002985  61.2318164  69.5465271
  39.0595198  17.8869689  -0.2125810  39.4625735  18.2191336   0.5895687
  38.1905270  17.5925362   0.0601754  54.7950506  22.5473972  65.8870751
  54.8858825  21.9212766  65.1687766  54.4416694  23.3355470  65.4745517
  84.2132547  21.1710668   8.5130501  84.9463337  21.4260483   9.0732390
  83.4985688  20.9872818   9.1227055  40.2035904  39.2145586   1.3584062
  40.7781553  38.7752151   1.9853730  40.6310225  40.0541878   1.1894013
  69.8247881  39.1157623  68.2391383  70.5740578  38.8647600  68.7793486
  70.1531525  39.0761371  67.3408965   2.2063282  49.4562626   4.2996940
   1.7620441  49.9435949   4.9934894   1.7284891  48.6287022   4.2445481
   5.7255536  30.6403613  12.2999609   6.5963769  30.5365968  11.9163823
   5.1677692  30.0526857  11.7903078  79.6814328  55.3773451  41.6359663
  79.6457344  55.5173635  40.6897402  79.2734766  56.1586618  42.0092630
  37.5971532  58.1562853  11.8506205  36.9473696  58.8110971  12.1060383
  37.6593590  58.2390738  10.8990383  82.2814770  11.7429300  66.6903923
  83.1565995  11.8976780  67.0459858  82.3949094  11.8000456  65.7416547
  32.7294827  64.0260458  36.0430789  32.7537012  63.4243536  35.2990270
  33.1722140  64.8141623  35.7282877  34.5757961  40.9023380   6.8789494
  35.2774978  41.4311552   7.2586882  34.1845274  41.4667749   6.2122011
   5.3257502  27.5735231  68.9086677   4.8895873  27.8774353  68.1126574
   4.8130668  26.8149944  69.1879973  40.6937838  47.9447746  27.0863771
  40.9130383  48.0556631  28.0115080  40.0590706  47.2283697  27.0748591
  48.9644657   4.4211568   9.2305589  49.1525995   5.1384916   9.8357612
  48.7667691   4.8540868   8.4000623  27.2850204  74.1287851  42.6148939
  27.6467013  75.0051928  42.7465153  27.8654861  73.5529041  43.1125402
  25.6212568  49.1262722   4.9282250  25.2586722  48.4403133   4.3676713
  25.5620742  48.7680340   5.8138841  33.5970759  34.9983025  13.4228837
  33.7906241  34.5614147  14.2522824  33.0682325  35.7570577  13.6695516
  77.1781821  40.1168867  39.1205049  77.3628635  39.4626995  38.4465933
  77.9166574  40.7240911  39.0736390  31.3344765  52.3350811   1.2303314
  30.4998589  52.3129368   0.7621935  31.4540243  51.4405155   1.5492371
  78.9758885  38.9099860  21.6082716  78.0212241  38.9578986  21.5577555
  79.1691160  37.9724956  21.6058183  70.3573723   7.8663822  54.9886251
  69.9268730   7.1184965  55.4028309  70.1580806   8.6057373  55.5629707
  58.5992241  55.9968615  38.7435365  59.3292713  56.5093708  39.0908170
  58.2641029  55.5146790  39.4994640   5.5450047  32.5414892  54.8799766
   5.3616251  33.4803959  54.9125422   6.0856808  32.3761221  55.6523467
  72.5155110  26.7071815  50.4631675  71.8348009  26.7772146  49.7938681
  72.9197783  27.5745388  50.4853047  31.9229245  65.4302740  21.2078762
  31.0365391  65.0761986  21.1359119  32.3938489  64.7903681  21.7417145
  56.6031238  37.5557085  65.2671344  57.5051169  37.3230358  65.4873720
  56.5862379  37.5697800  64.3101872  55.1289606  61.2161207  34.0205812
  55.2871227  62.1225643  33.7568021  55.2303505  60.7107830  33.2139921
  43.8504267  55.9836578  39.5958686  44.3089771  56.7416382  39.9583936
  44.0706730  55.9934473  38.6644053  15.6380224  55.3761482  30.3405070
  16.0485458  54.8683786  31.0404158  14.7203553  55.4477739  30.6031609
  77.6437163  54.2787743   9.3958074  77.2150916  55.0256920   9.8136950
  77.0676094  53.5372829   9.5815969  55.6979179  39.8242474  13.3155119
  54.9173069  39.3072605  13.1164932  55.6602764  40.5598593  12.7042127
  72.3584729  46.8311930  54.9745035  72.7133042  46.7344761  54.0907764
  72.5565666  45.9992743  55.4045105  56.2467957  68.2346296  22.7235007
  55.3682899  68.5401821  22.4974513  56.3471174  68.4574413  23.6489868
  25.1540875  70.0703669   5.7459277  25.6775951  70.2231741   6.5325803
  25.7880044  69.7845078   5.0881541  23.8759470  78.7592840  20.4332376
  23.2216692  78.7468767  21.1318040  24.7123671  78.6538029  20.8865666
  45.5187654  64.9623156  18.3628321  44.7283077  65.4923439  18.4652221
  46.1224699  65.3025436  19.0231466  21.6154981  62.0993090  48.2449961
  20.9738374  62.8094339  48.2599735  21.4083672  61.5730143  49.0172291
  22.2493196  27.3831129   9.3523401  21.9650316  28.0915737   9.9298304
  21.4992166  26.7897224   9.3140495  82.1177655   0.3170381   5.2719188
  82.7915253   0.7463101   5.7991809  81.2971401   0.5188038   5.7214701
   0.4040730  48.7813377  33.8427925   1.2223493  48.5958433  34.3034959
   0.6095652  48.6317635  32.9199529  47.5595926   0.4352464   8.5490578
  46.6438173   0.6170931   8.7600577  47.5206744  -0.2624045   7.8948462
  13.1067289  39.9178549  48.2232261  13.6413063  40.5473181  47.7392555
  13.0020441  40.3093000  49.0904284  71.9539446  71.6669559   5.6026220
  72.4805218  72.3125267   6.0739893  71.6667575  71.0527468   6.2782735
  34.1703939  51.3372469  32.0839119  35.0452471  51.0383844  32.3319936
  34.0593028  51.0318041  31.1835814  68.2154881   6.0331049  12.9436195
  68.2082378   6.7776861  12.3421466  69.1404187   5.9035577  13.1532693
   9.8204745   0.7199426  48.1981302   9.5069994   1.3804766  48.8159156
   9.1954697   0.7535787  47.4739266  58.0210044  47.1729608  55.2569569
  58.0024641  48.0641504  54.9081445  57.1538070  47.0486208  55.6426240
  84.1562529   6.7313047  63.3230687  83.4885235   6.5106388  62.6737023
  84.9327440   6.9440885  62.8053654  69.3366200  56.0649443   8.2285571
  68.4683532  56.1842060   8.6134195  69.9262756  56.5363026   8.8170791
  25.5712628  31.7726040  37.1011639  26.3473392  32.2089911  36.7497349
  25.8610034  31.4040160  37.9356837  66.5198011  16.0330339  58.7171639
  66.1570258  15.3629728  58.1378127  67.2213597  16.4369722  58.2063997
  21.4857841  50.3604650  14.9044681  22.0100617  51.1611795  14.8896158
  22.1284366  49.6525192  14.8592496  23.6087669  42.6762052  52.9092062
  24.3996538  42.1905466  52.6749767  22.9961218  42.0052858  53.2104684
  85.1471300  38.4336515  55.0253761  84.8286934  37.7880665  54.3944646
  84.6051307  39.2073007  54.8706747  22.0457233  12.0905157  65.1751400
  22.9880203  12.1443697  65.0157461  21.9683136  11.5877815  65.9860010
  51.8241119  73.4112453  69.7402859  52.1243477  74.3054724  69.9029350
  52.4121189  73.0809975  69.0610075   8.9324522  73.0887699   8.1098706
   9.3333381  72.2203159   8.1460029   9.6735692  73.6931372   8.0684251
  76.1960347  32.1585890  35.8776165  76.2175758  32.7257534  35.1068450
  75.4065485  32.4247833  36.3488746   5.9684509  26.4032221  15.8388817
   5.4576319  26.8455315  16.5168643   5.7899195  25.4724932  15.9734154
  51.5037966  68.5040379   7.7770227  51.0598087  69.1266346   7.2012752
  52.2178507  69.0070868   8.1685579  75.9780033  41.8721052  54.7741306
  75.6818993  41.6816183  53.8840366  76.6884656  42.5033804  54.6602560
  19.7103607   3.3785619  14.2513096  20.4173486   3.2707872  14.8875368
  19.5504009   4.3220224  14.2285335  79.5537133  45.1691290  49.1177178
  80.0254936  45.7485529  48.5194517  80.0116582  45.2630373  49.9530018
  76.2168807  54.7300196  41.9812965  76.7036837  55.3666019  42.5047684
  75.7797861  55.2553034  41.3110304  36.7328704  18.1422373  69.1518847
  35.8548797  18.4077593  68.8782754  37.3117174  18.8053985  68.7758678
  42.0837784  70.6671619  12.9108882  41.3984346  71.3245964  12.7912378
  41.9944668  70.0876427  12.1543097  66.7381478  26.8220373  68.8450137
  66.5558017  26.5276285  69.7373731  66.5957333  27.7682205  68.8711634
  26.9349731  33.9551969  64.4135619  26.2617601  34.3680092  63.8726366
  27.5727810  34.6506067  64.5743138  12.2533715  70.7729530  13.2710540
  12.3131931  71.2024021  14.1244161  11.4157939  70.3101683  13.2940054
  42.7490472  12.6279344  27.3954558  43.3635854  11.9559183  27.1005440
  42.7935647  13.3057489  26.7210603  62.0665844  52.4232644  66.9684011
  61.4374527  52.8532153  66.3891194  62.8967389  52.8654438  66.7907674
  33.7746204   6.3248535  59.3951429  33.5458053   7.2508474  59.3150867
  33.2039369   5.8819576  58.7671292  53.4298404  53.0579978  53.6454499
  53.8023265  53.4952635  54.4111431  54.1884645  52.7168268  53.1718219
   0.0888423  68.8482571  23.5553384   0.9811086  68.5031796  23.5234761
  -0.2392565  68.5848856  24.4151163   2.5844301  19.2597624  53.2240153
   2.6743353  18.8307615  54.0749586   1.6429008  19.2548319  53.0515862
  46.9274187  61.7431688  39.5933342  47.8169870  61.4418745  39.7780561
  46.9222879  62.6591873  39.8710394  18.4777761  55.9729767  16.8822491
  17.9120326  56.4668798  17.4757373  18.3564436  56.3930225  16.0307360
   0.9012725  68.3624226  34.4665886   1.6014840  67.7751881  34.7513581
   0.3767421  68.5090953  35.2537251  40.3929710  67.4490499  14.3116403
  39.9980307  66.6106749  14.0720904  39.7850394  68.1058788  13.9721954
  40.1782608  72.8920269  26.1631799  40.6981611  73.5562563  25.7107067
  39.6074533  72.5314474  25.4846597  58.0802011  70.1193810  28.6903787
  57.1578074  69.9499798  28.8820028  58.2098627  71.0371399  28.9294195
  46.1223125  35.8680081  10.8602715  45.5883217  35.0737667  10.8438993
  45.5068588  36.5658140  11.0850251  25.2816892  30.1683211  20.2486491
  24.8432636  30.6509757  19.5478928  25.4046345  29.2882895  19.8927557
  66.9326865  10.2367868  46.1374712  66.9300162   9.3735399  45.7239008
  67.8540455  10.4047670  46.3352346  73.0415257  77.5315386  62.8760446
  72.2552451  77.1509677  62.4846876  72.7568778  77.8359061  63.7377674
  24.6573353  78.3976316   0.5209219  24.6780920  78.7180328  -0.3808234
  25.5673242  78.1745529   0.7168479  35.9133458  52.9652023  26.7895889
  34.9769258  53.1598806  26.7515302  36.1022401  52.8788280  27.7239823
  27.6785254  52.3295021  22.2715926  27.5609827  53.2256937  22.5866461
  26.7882442  51.9948435  22.1637177  30.5729771  69.3438053  43.1662464
  29.9773884  68.6076450  43.0263281  31.0005999  69.4702482  42.3192596
   8.5301984  28.3938928  64.0951491   8.5040797  27.4387689  64.0378047
   9.2180122  28.6519571  63.4815169  71.1119516   8.1701990  69.2665444
  70.5016322   8.5409351  69.9039579  71.5438230   8.9309212  68.8779283
  40.6879377  73.6793423   5.0533062  39.9331141  73.5465860   5.6267571
  41.2403488  72.9121017   5.2030271   5.4050768  21.3158985  61.1023921
   4.5154728  21.6556593  61.1993272   5.8458317  21.5632435  61.9152821
  56.2204968  11.7454710  13.5505700  56.5073549  10.9703245  14.0333760
  57.0134961  12.0679845  13.1223559  47.1760559  52.5052738  28.8438916
  47.2891331  52.3536539  27.9055643  47.2295523  53.4560299  28.9410400
  18.9562416  34.2088866  16.4739335  19.5567334  34.9220467  16.6908264
  19.4741726  33.6173487  15.9279823  42.8930378  71.9220495  15.1794171
  42.7086830  71.2144279  15.7970858  42.5584793  71.6019440  14.3416619
  72.9731924  22.3615070  41.7419124  73.4915693  21.6857382  42.1787763
  72.8268762  23.0246349  42.4165130   8.8444835  44.6782780  11.7898917
   8.3862036  45.0880671  12.5235713   8.1677091  44.1776323  11.3343060
  23.8277078  57.9072428  16.8116057  24.5227242  57.2499418  16.8453312
  23.1318545  57.4940205  16.3004613  63.4916592  57.8355360  48.7375593
  63.6941385  56.9309950  48.9763737  63.3803844  57.8131437  47.7871132
   9.3263859  63.9211082  18.0115199   9.2838478  63.9896297  17.0577240
   8.8367063  64.6801329  18.3282578  64.0053988  56.8605328  31.2133145
  64.4356585  56.5246916  31.9996452  63.0760717  56.6781950  31.3523841
  50.7622576  74.8177767  21.1943936  50.6152534  73.8921165  21.0000324
  49.8833752  75.1913404  21.2595510  77.2730025  75.0282460  46.4022661
  76.6824873  75.7114130  46.0847665  78.0313405  75.5049831  46.7397237
  23.5751033  77.3391533  25.8438230  23.7786746  76.9848204  24.9782395
  23.3372569  76.5732002  26.3662958  14.0020120  48.9452219   3.9083445
  13.0960524  48.6464405   3.9870733  13.9321327  49.8298931   3.5495901
   0.4213370  17.9023739  55.4462517   0.3026856  17.2332712  54.7721148
  -0.4482352  18.2865091  55.5581117   6.1825097  62.4707270   6.0698569
   5.9577149  62.4913740   5.1396561   5.4480255  62.0174646   6.4837587
  78.0683536   4.9816604  68.3522076  77.5849147   5.6690355  67.8939059
  78.1169934   4.2624470  67.7224476  31.2100077  61.0662842   4.6991798
  31.7099452  60.8913422   5.4964817  30.2949905  61.0344648   4.9783999
  80.2886410  48.5560842  59.9088801  79.5378370  48.4157034  60.4857863
  80.9869666  48.8526960  60.4924822  78.9726229   6.6779228  65.8617330
  79.3763037   7.1667190  66.5789146  79.4582600   5.8536573  65.8304927
  14.7601962  54.0187025  11.7324460  15.4765332  53.6162519  11.2413955
  14.2426455  53.2789898  12.0505691   2.4592770  17.4134966  67.5149643
   1.9503702  17.2627731  66.7183912   1.8378533  17.8117748  68.1244229
  49.4108868  33.8572121  17.7850318  50.2737284  34.1187525  17.4635756
  49.4356775  32.9003334  17.7862406  54.6286739  17.0503851  67.3063221
  54.9867214  16.1922308  67.5334906  54.6695865  17.5504061  68.1215124
  52.3476362  40.4043484  20.5735421  51.7787600  41.1732817  20.5367613
  53.2238579  40.7459211  20.3952217  55.4224682  63.1172132  21.4166021
  55.8310843  63.9738894  21.2926054  56.1390829  62.5485563  21.6982532
  29.3200278  72.3376179  52.1974468  28.4687567  71.9017887  52.1571493
  29.6337676  72.3344564  51.2931299  71.9540222  24.5754906  39.3945981
  71.7824693  24.6457382  40.3336764  71.9710381  23.6337658  39.2240167
   9.0628266  71.5557003  28.7954950   8.2877409  71.5328503  29.3566990
   8.7438637  71.2825298  27.9353356  71.6132350  18.3105083  63.2989479
  72.3960144  18.2135912  62.7566434  71.9483025  18.5545536  64.1617358
  29.7785306  56.3610888   1.4428446  28.9396453  55.9673691   1.6826102
  29.5501471  57.0498228   0.8185672  63.3865627  75.5777031  59.0446449
  63.0479940  74.9091607  58.4491134  63.9996131  76.0845071  58.5121489
  13.6905550   5.1952924  29.8749375  12.9917263   4.6450414  30.2286291
  13.7877916   4.9054136  28.9678860  23.8287176  17.1121307  56.4669514
  23.4664072  16.7603632  55.6537963  24.1636003  17.9758688  56.2260307
   8.1798209  40.1376673  57.5938345   8.0139531  39.9013658  58.5064567
   8.8755621  39.5423647  57.3149312   0.9935241  61.7240906  50.9605503
   1.6240640  62.0521212  51.6016769   0.5040051  62.4999762  50.6874132
  48.7180424  43.5174370  14.5908225  49.1794205  44.3516111  14.6775210
  49.0648174  42.9770184  15.3006995  69.6454246   6.5497108  52.5176669
  69.6804078   5.5933853  52.5387407  69.8004050   6.8150898  53.4241915
  34.9159408  45.5762053   8.6033690  34.9413586  44.6395636   8.4077048
  33.9842701  45.7958031   8.6028349  16.5398490  70.5190086  28.8169503
  17.0603061  70.5947781  28.0171919  16.7402160  69.6447229  29.1511774
  31.5209838  10.3327837   8.3970779  32.2997679  10.0059690   7.9466152
  31.6745304  11.2730779   8.4892827  83.9164562  22.6384970  67.4774835
  83.1578298  22.7761169  68.0447378  84.5563359  23.2866855  67.7718275
  36.7122626  35.4116821  19.7079611  37.5010562  34.8959088  19.8753345
  37.0346403  36.3002443  19.5570922  35.5678285  11.4160915  24.5053244
  34.8857225  11.4687820  23.8358594  35.9205736  12.3043485  24.5582867
  75.2791196  53.6623526  29.5494246  74.6674401  54.2864752  29.9399972
  76.0951227  54.1537571  29.4551325  67.4795754  28.3036133  54.8767293
  67.2734399  29.1794773  55.2032281  68.0780001  27.9395243  55.5290771
  41.4173841  12.7930880  38.9948845  40.5565405  13.2055736  38.9239097
  41.6637039  12.5958502  38.0911946  17.3141818   1.5247144  21.1910915
  17.5524144   0.7690897  21.7282271  17.3677974   2.2701540  21.7891502
  28.3532643  73.5508394  21.7732596  28.7309647  72.9546595  22.4199033
  28.9059401  74.3312263  21.8153906  70.8986889   5.2648534  10.9730256
  70.6050812   4.4316854  11.3416147  70.2292811   5.4901113  10.3269732
  49.1518175   6.8957605  10.4511046  49.3339549   7.8281965  10.3343976
  48.3642672   6.8717470  10.9946299  64.9979342  46.6116854  49.4494415
  64.8433567  46.1868234  50.2931417  65.6318040  47.3026605  49.6417940
  42.8868055  77.3996592  21.9189620  42.6479578  78.3135986  21.7643642
  42.3177671  77.1214962  22.6366329  37.8220714  20.2764698  67.9557126
  37.0001663  20.3909107  67.4786361  38.3526815  21.0321375  67.7034076
  68.8036927  75.3212863  56.2490833  68.0589827  75.0396281  55.7177556
  69.3873747  75.7598025  55.6300152  34.4223142  77.9501867   5.3578424
  35.3601027  77.7710485   5.2893013  34.3579912  78.9047527   5.3278363
  48.1156944  36.0139837  19.6623540  48.7975322  36.2452783  20.2930951
  48.5697066  35.4951563  18.9983344  44.7279263  68.1724739  27.6903486
  44.0554857  68.8471079  27.5958920  44.3675947  67.4100685  27.2374415
  60.7409059  49.4829263  20.6473780  60.6656777  49.8156347  19.7530210
  59.9539386  48.9526167  20.7726359   5.8106142  39.4086909  21.0343051
   6.6260576  39.8956680  20.9154058   6.0082161  38.7755251  21.7244411
  27.6154273   2.8907766  15.7256567  27.1233045   2.7986326  16.5414739
  27.6347766   3.8338174  15.5628157   6.5595675  70.8892536  10.0870669
   6.3924211  70.4744339  10.9333646   7.2948676  70.3980446   9.7206235
  79.4777913  48.7197634  63.9681173  79.1363902  48.1489511  63.2797456
  79.0227337  49.5516153  63.8370681  69.1963339  75.2788258   0.7816307
  69.3864679  75.9048414   1.4803341  68.3174610  75.5127144   0.4831101
  27.2521019  38.1615162  11.6342580  27.2132468  37.4504232  10.9946716
  26.5708137  38.7728715  11.3543928  65.1112707  29.4946571  62.6769549
  65.8380426  29.8091694  62.1392590  64.9134637  30.2250334  63.2631797
  84.7214560  65.9728003  24.9984884  84.6773518  65.8235884  24.0540195
  84.5175318  65.1213074  25.3852749  28.6530362  23.6272516  16.9920599
  27.6961998  23.6533155  16.9880033  28.8671118  22.7296915  17.2465801
  23.8420439  36.2835050  12.0829511  22.9666305  36.2919807  12.4700081
  23.8701439  37.0692277  11.5369833  23.3657945  19.8716923  66.4392681
  22.9463876  19.1853233  66.9581375  22.9081644  19.8500105  65.5988306
  77.3200404   3.7032499  43.4830618  77.8425871   3.4462061  44.2427349
  77.1911990   4.6458234  43.5888243  42.4828971  15.9117409  40.2830411
  41.9314064  16.3136907  40.9542537  41.8888439  15.3417965  39.7946859
  37.4440949  24.0934934  59.0963078  37.5331520  23.9052667  60.0305843
  36.6826140  23.5831823  58.8206959  23.6774596   1.6701784   9.5546228
  23.1604623   1.7594423  10.3552341  24.0242880   2.5478258   9.3943828
  21.1589111  29.5123907  45.1972271  21.4558042  29.1457744  44.3643523
  21.9260706  29.4633051  45.7675672  65.5563307  62.8161955  18.4079325
  65.7073879  62.2408390  17.6580155  65.9588671  63.6475611  18.1568837
  41.8283510  72.2738171   8.0889904  41.0188341  72.4962807   8.5488009
  42.1841764  73.1171036   7.8088385  37.3788357  65.7539940  35.8475876
  38.2181883  65.7059622  35.3899741  36.7297244  65.8381176  35.1491547
  42.5700235  15.9097373  11.0862899  41.6972876  15.6782055  10.7685566
  42.4427366  16.7331851  11.5574193  43.0005380  64.3962246  45.2810765
  42.3032852  64.5679003  44.6481467  43.4606822  63.6339956  44.9296404
  14.7447660  71.9442636  53.3754981  13.8922431  72.0798331  53.7890947
  14.8483684  72.6936823  52.7890933  71.4469941   6.7153211  45.9419394
  71.6093607   7.4015995  46.5891553  72.1919138   6.1208769  46.0311580
  56.3774681  32.4617004  24.9849176  56.8873501  33.1937766  25.3317833
  55.9457541  32.8172731  24.2081141  69.4157405   4.3189474  65.0959334
  69.8267860   5.0937172  64.7125149  69.1292865   3.8022896  64.3427790
  17.5318599  77.2084332  17.0915973  17.6176119  76.4624357  17.6852000
  17.4178934  77.9627228  17.6697779  15.8893503  30.0175949  65.3939668
  15.6966652  30.5569692  64.6270362  16.4723981  29.3333479  65.0651915
  43.2941723  25.5724788   2.9108754  43.4621572  24.9932575   2.1675600
  43.1047440  26.4226747   2.5139910   4.5057310   9.5486017  21.8876696
   4.1078104  10.3579708  22.2083140   4.2300190   9.4922396  20.9727717
  22.3627925  61.1739302  20.5124474  21.9836879  60.7055330  19.7687304
  23.2196259  60.7668495  20.6403279  42.0495272  54.1005611  26.3978219
  41.8543577  54.8636198  26.9417739  41.6836452  53.3608341  26.8827581
   9.9624075  24.0399929  49.2768956   9.8737444  24.9023720  49.6826995
  10.8582772  24.0247246  48.9401246  33.9311075  44.2023325  14.7651958
  33.2464075  44.0862513  14.1064537  34.7448635  44.2325211  14.2620826
  75.0492377  32.8613420  59.2419422  75.1291687  32.2571083  58.5038746
  75.6696017  32.5298258  59.8911536  80.3430314   0.0056978  55.5519725
  80.2719946   0.8186432  55.0516713  81.2843079  -0.1579861  55.6105948
  29.2856960  11.3685312   9.2075461  29.8858771  10.7439317   8.8002485
  29.8050368  11.7868414   9.8942310  62.6124144  47.0969963   5.4555666
  62.2577858  47.7731800   4.8782906  63.4047794  46.7946243   5.0117695
  25.7530798  12.1492525  38.3217288  26.1481060  12.3897453  37.4836660
  26.4933170  11.8867679  38.8688851  55.6476315  54.2666322  65.3775865
  55.8179983  54.3363517  64.4382537  55.3012761  55.1246971  65.6225241
  12.5198663  23.5956999  49.0423895  12.9625763  22.8149267  49.3750072
  13.1148113  23.9437290  48.3782030  31.0499204  26.1899563  63.6037946
  31.5235628  27.0213457  63.5775334  30.3469957  26.2944027  62.9625303
  72.0058402  65.5990845  28.0706025  71.3267239  65.2897793  28.6700726
  71.5249308  65.9084493  27.3029805  46.4806938  32.2720408   1.1266275
  46.6832542  33.1568503   0.8227973  47.3338413  31.8458962   1.2089609
   2.4523944  49.6912718  15.4580379   1.5808600  49.3810368  15.2122295
   2.4702471  50.6051779  15.1739872  40.9074068  63.7736988  13.5864544
  40.7922220  63.0051613  13.0276072  41.8358278  63.9919996  13.5051239
  59.7102769  80.3294617  63.5182542  59.7926196  79.4547468  63.8981599
  59.2101964  80.8258635  64.1661227  78.3343763  15.2571054  52.5170363
  78.0529446  15.8953520  53.1725276  78.3678479  14.4260641  52.9908312
   1.5306867  16.2489649  63.6300707   1.4711703  17.1267982  64.0070320
   2.4196685  16.1989494  63.2787228  22.2064651  20.9806772  43.5342026
  21.8736185  20.8282610  44.4186330  22.9766573  21.5348669  43.6603428
  52.7145004  76.6663980  20.4040194  52.6230955  77.5505781  20.7591248
  51.9367504  76.2022972  20.7137752  57.2088814   9.7450918   0.2095604
  57.1712971   8.9047706  -0.2472547  57.8329468   9.6030778   0.9213234
  29.4405675  26.4333439   4.8352095  29.1916823  25.5280566   5.0216043
  29.7570992  26.4136171   3.9320761  25.4599190  66.2709141  11.9335365
  26.2584448  66.4726686  11.4458060  25.6021762  66.6588259  12.7969694
  35.6792665  17.7315092  34.7713828  34.9661827  17.1549118  34.4970155
  36.1730647  17.9002690  33.9689398  60.9992870  56.3336605  48.6156417
  61.8551620  56.6158420  48.9382578  61.1622485  55.4761845  48.2226897
  72.1415901  28.6868143  22.6631498  71.3984394  28.2853889  23.1135058
  72.8953075  28.1594419  22.9277539  36.2949204  64.5107603  18.5677350
  35.8673048  63.7192917  18.2407057  36.4734077  64.3232298  19.4892585
  20.7132721  68.8991404   0.3762915  21.0876775  68.8457680  -0.5030292
  21.4716768  68.9751387   0.9553230   4.1160453  15.5461117  56.7502118
   4.1172780  15.1109167  55.8976651   3.7842811  16.4256426  56.5696753
  30.1072038   7.7509971  67.8217835  29.7416080   7.7458425  66.9371680
  31.0441269   7.8986069  67.6928737  25.1419258  51.0428667  22.8590488
  24.3264532  51.2684631  22.4114490  24.9821782  50.1723051  23.2235169
  30.9134316  72.8041601  13.4579873  30.8828592  72.0995665  12.8108060
  31.1091161  72.3621798  14.2841780  24.7445822  45.7360792   4.5018995
  24.2136455  45.7005692   3.7062377  24.1620970  46.1119413   5.1619506
  17.1943166  77.4802166  65.3990237  17.6114347  76.6394287  65.5869565
  16.2752177  77.2622925  65.2441034  18.4297479  25.1455828  59.6170337
  18.7319006  24.8656936  58.7529743  19.1761173  25.6131836  59.9918914
   1.6035331  24.1805931  49.4280077   2.4678148  23.7935396  49.2885829
   0.9889639  23.4917303  49.1750122  19.0030265  76.7321634   2.9085281
  18.4757864  75.9496403   3.0694902  19.3695092  76.9542742   3.7644422
   7.5395859  29.0354105  51.3386703   7.1046723  28.5531040  50.6354893
   6.8341030  29.5168110  51.7708529  84.4088359  47.8777262  41.3962389
  84.8622055  47.0812078  41.1201144  84.1756744  47.7159353  42.3104025
  28.7297739  22.9327246  67.1627589  29.6826805  22.8463360  67.1899309
  28.5692609  23.8639685  67.3152398  39.0514994  62.9260492   8.2505524
  38.4282446  63.5304928   7.8475261  39.2586493  62.2985888   7.5580108
  28.1155944  56.6293430  26.8443274  27.3459005  56.1681461  26.5110111
  28.2796097  57.3181963  26.2002635  78.0748089  66.2915116  65.7220722
  77.4591645  67.0108205  65.8628184  78.1391629  65.8610541  66.5745968
  84.4418855  12.7322813  57.4689699  84.2843337  12.5334545  58.3919418
  85.3548474  13.0182501  57.4380232  79.6060276  38.4897995  27.2581553
  79.5266628  38.4135413  26.3073039  79.6471930  39.4322777  27.4202418
  39.3257059  32.4026247  52.9317618  39.0026678  33.1808945  53.3858264
  38.5520328  32.0373293  52.5025583  29.2138160  20.8234402  52.1374071
  28.2659877  20.9144541  52.2352267  29.4000639  21.1783453  51.2681640
   6.3844551  21.0409685  50.9584380   7.2889866  21.3507028  51.0044623
   6.1641539  20.8100410  51.8608642  54.8395096  21.0014238  17.8660023
  55.3935205  20.3058328  17.5117910  54.9669491  21.7373647  17.2673559
  26.9107771  55.1447773  38.8932586  26.6455126  54.3040228  39.2660761
  27.8438234  55.2128887  39.0957952  78.6690386  44.4995639  63.3550215
  77.9091891  44.3118820  63.9060563  79.0368231  43.6392215  63.1530947
   4.7270644  79.0408659  10.8077443   4.0419948  78.6602402  11.3573217
   5.2990735  78.3039618  10.5932534  81.9505067   3.9475437  69.4276569
  82.2716112   4.8151394  69.6734163  82.2130127   3.8452717  68.5128552
  60.2755974  13.6432119  53.3267236  60.9207974  13.3932682  53.9881445
  59.9606929  12.8113981  52.9729534  39.1419478  67.4081236  21.4082814
  39.7397192  67.3660046  20.6618691  39.7134706  67.5312287  22.1661950
  50.3939398  71.0782772  54.1255499  50.6794675  71.4551812  53.2932938
  49.5923790  71.5546995  54.3417788  81.2317070  68.9516115   7.4778384
  81.4362162  69.8782969   7.3527181  80.4621136  68.7999821   6.9292343
  81.5403838   3.2387443  27.4674893  81.0316415   3.4433552  26.6829205
  82.3971434   3.6344000  27.3073340
  85.2430803  85.2430803  85.2430803 109.4712190 109.4712190 109.4712190
