
38615  0.0000000e+00
  62.3971081  56.8799257  44.8670387  61.7737007  56.1448908  44.5650673
  62.0214319  57.3983574  45.6481981  63.2642746  56.5701437  45.2819586
  62.8093910  57.7900410  43.7698364  63.3070469  58.5929394  44.3137121
  63.9038801  57.2675228  42.8363085  64.3404198  58.0560923  42.2233772
  64.8269415  57.0774651  43.3839798  63.6115074  56.0458040  41.9725943
  63.3869886  54.8092508  42.5747681  63.5089064  54.5958567  43.6264372
  63.0697775  53.6712170  41.8665886  62.7788687  52.7637291  42.3747587
  62.8381634  53.8033819  40.5104828  62.2749758  53.0131960  40.0363255
  63.1077909  55.0363302  39.8499656  62.9141331  55.2155638  38.8026977
  63.5038900  56.1751270  40.5918407  63.5596514  57.1673489  40.1690054
  61.6019487  58.2868910  42.9829216  60.5091810  57.7331734  43.2341385
  61.7636442  59.2829418  42.0940924  62.6517868  59.7636938  42.1075583
  60.7211399  59.9728298  41.2934399  59.7423506  59.8494911  41.7569780
  60.9001160  61.5122938  41.2024879  61.9248152  61.6212749  40.8472204
  59.8110437  62.1826077  40.2991056  60.2589655  62.9133701  39.6257091
  59.3726254  61.3995218  39.6805072  59.0835476  62.7370405  40.8919477
  60.9789896  62.2522974  42.5283384  59.9945879  62.3747921  42.9800510
  61.5674400  61.7469501  43.2941389  61.6155815  63.6565685  42.2683430
  60.8891773  64.3267679  41.8086910  61.8291235  64.1116905  43.2354879
  62.5205564  63.4919691  41.6835117  60.6678915  59.3878317  39.8324060
  61.5188217  59.5342445  38.9876223  59.5846033  58.6350012  39.4901156
  58.9220715  58.4490347  40.2294159  59.3800020  57.9471111  38.2217050
  60.3860569  57.8015375  37.8283072  58.5710144  56.6098022  38.4032273
  57.7732801  56.8502522  39.1060114  58.0355215  56.0271168  37.1158409
  58.8748789  55.8896208  36.4341688  57.6199293  55.0270796  37.2395921
  57.1975040  56.5797472  36.6910768  59.3920183  55.5055571  39.1938853
  59.9905348  55.8427858  40.0401449  58.7073898  54.7264290  39.5290756
  60.1613998  55.1363134  38.5157943  58.7756491  58.8756418  37.0743203
  57.8019619  59.6275806  37.3831773  59.3358088  58.9208031  35.8536553
  60.0742340  58.2817173  35.5959916  58.9414024  59.6398640  34.6451449
  59.8838854  59.5301676  34.1086817  58.1911230  59.0395689  34.1305280
  58.6426067  61.1057615  34.8714042  57.6962519  61.6557503  34.3549442
  59.3972874  61.7205191  35.8108473  60.2227640  61.2924528  36.2051249
  59.2686129  63.1001043  36.1508417  60.1050138  63.4451866  36.7586637
  59.4162226  63.6560345  35.2249622  57.9884911  63.6234808  36.8123865
  57.7897358  64.8569155  36.8925047  57.2013807  62.6861143  37.4342489
  57.4838877  61.7225266  37.3256731  56.0008144  62.9696846  38.2372880
  56.0945177  63.9162779  38.7695384  54.7167873  63.0073166  37.4114442
  54.8453712  62.1402121  36.7636061  53.7928534  62.9029608  37.9802585
  54.5832586  64.1714096  36.4913034  54.7389412  65.1275682  36.9909286
  55.2853680  64.0128660  35.6727624  53.2205009  64.1487312  35.9227133
  52.8753662  63.1630087  35.6107187  52.5234413  64.5191097  36.6743994
  53.2126570  65.1628637  34.7741055  53.9406919  65.9364748  35.0182199
  53.5817862  64.6802330  33.8691664  51.7964125  65.6978750  34.6000576
  51.2385893  65.8733320  35.4235601  51.8460655  66.5602922  34.0767264
  51.2829685  65.0659323  34.0024614  55.7251120  62.1232891  39.4399476
  55.3158712  62.6860094  40.4671621  55.9524822  60.8181190  39.3996692
  56.3414335  60.3227997  38.6100602  55.3976297  59.9592733  40.4880667
  54.6379519  60.5098534  41.0429096  54.5732737  58.7498093  39.9168372
  55.2606344  57.9758978  39.5752287  53.8836336  58.3614063  40.6662703
  53.6670351  59.1291904  38.7814331  52.4345636  59.8010254  39.0302205
  52.0745039  59.8823357  40.0451803  51.6187286  60.1883268  37.9758453
  50.6128740  60.5349636  38.1616235  52.0215797  60.1037073  36.6549468
  51.2292862  60.4823685  35.6451011  50.3766823  60.8042383  35.9468913
  53.3219624  59.5156813  36.3611484  53.6247540  59.4502926  35.3265214
  54.0681887  59.0332174  37.4491858  55.0033808  58.5514975  37.2047400
  56.4671612  59.5971727  41.5299559  57.2980452  58.7142181  41.3060379
  56.5069485  60.2649832  42.6634312  55.7897472  60.9163046  42.9489374
  57.4389458  59.8923016  43.8003778  58.4384203  59.5828915  43.4947205
  57.7254105  61.0945129  44.7611904  57.9268026  61.9115114  44.0683317
  56.8591309  61.1480236  45.4205847  58.9299536  60.8624506  45.6144238
  58.6307526  60.1414919  46.3752127  59.7956753  60.5434179  45.0340414
  59.2945433  62.1693230  46.2539482  59.4294024  62.9158401  45.4712486
  58.4662390  62.3941565  46.9258642  60.5326128  61.9669724  47.1578074
  60.4785252  60.9874296  47.6328564  61.4205885  62.0345116  46.5292883
  60.6083488  63.0366659  48.2551861  61.4290094  63.0424976  48.8439083
  60.5566645  63.9225721  47.7729034  59.8246622  62.9440165  48.8855505
  56.9192839  58.7088776  44.5632553  55.8593988  58.7255001  45.1678514
  57.5606966  57.5520468  44.5405674  58.4299898  57.4812651  44.0312338
  57.1002150  56.2590456  45.0945139  56.1275911  56.1061049  44.6268415
  58.0320120  55.1290607  44.5893192  59.0307522  55.5642366  44.5542002
  58.0702448  54.3895674  45.3891850  57.6579571  54.5008612  43.2692051
  56.6828966  54.0254593  43.3757544  57.4323082  55.5062675  42.1312237
  57.1254587  55.0106955  41.2101650  56.6001415  56.1658812  42.3772383
  58.3432007  56.0227919  41.8286037  58.6231852  53.3678389  42.7690411
  58.6126947  52.6491737  43.5885000  58.2162046  52.8003073  41.9321537
  59.5886278  53.8042355  42.5129604  56.9561100  56.3731575  46.6944551
  57.8122139  56.9639254  47.3549271  55.9682941  55.6618118  47.3094082
  55.3231192  55.1639605  46.7127562  55.6688738  55.7805634  48.7952995
  56.2077188  56.6372585  49.2000532  54.1479111  56.0948181  49.0407896
  53.6405468  55.2109241  48.6542320  53.7639618  56.2149096  50.4949808
  52.6893377  56.3942909  50.5283213  54.1075563  55.3089619  50.9942865
  54.2616749  56.9819498  51.0883093  53.6840630  57.3149014  48.2197905
  53.8645124  57.2548199  47.1465111  52.5959253  57.2534943  48.2029819
  54.0257120  58.2747221  48.6072493  56.1572170  54.5464563  49.5287371
  56.6505003  54.6486855  50.6934977  55.9228325  53.3603477  48.8635015
  55.5349112  53.4031534  47.9319525  56.0397387  51.9980431  49.4676304
  57.0935774  51.7448282  49.5834303  55.3736258  51.8025589  50.8618641
  55.5236244  50.7694960  51.1755180  55.8872080  52.4973440  51.5264034
  53.8263035  52.0440006  50.8519745  53.5578108  52.9885626  50.3788805
  53.2373953  51.2660265  50.3661394  53.2416677  51.9448805  52.3544216
  53.3889723  50.9406614  52.7518415  53.8300753  52.6108503  52.9855824
  51.8196344  52.2918272  52.3304367  51.6144896  53.2290411  52.6461077
  50.8224583  51.3975811  52.1343470  50.9738064  50.1024723  51.9148159
  51.9312048  49.7809649  51.9033909  50.1222754  49.5709085  51.8032980
  49.6474457  51.8865061  52.1692514  49.4044971  52.8123331  52.4916220
  48.8969469  51.2824345  51.8660164  55.4451752  50.9013891  48.5030937
  54.5179701  51.2136126  47.7509260  55.9459448  49.6774673  48.5533047
  56.6486883  49.4774294  49.2506123  55.3006411  48.5371399  47.8849268
  55.1882505  48.6480093  46.8064165  56.1369133  47.2333145  48.0319738
  57.2114706  47.4147797  48.0543756  55.9751511  46.8915224  49.0542793
  55.8546066  46.0723591  47.0286226  54.7756100  45.9256554  46.9802761
  56.2351227  46.4399719  46.0756445  56.6395092  44.8045444  47.2981024
  56.5750217  44.2274809  46.3756418  57.6971006  45.0322390  47.4313784
  56.1663914  44.0788651  48.5346317  56.1259079  44.8129702  49.3393373
  55.1623869  43.6607027  48.4623814  57.0594692  42.9870987  48.9065838
  57.8281212  43.3065271  49.4786406  56.5340996  42.2775269  49.3970966
  57.4623919  42.5216055  48.1059170  53.8864517  48.2601357  48.3699608
  53.5708380  48.2128906  49.5795345  52.8799057  48.1058073  47.5045013
  53.1090021  48.2697439  46.5345812  51.5192223  47.7075911  47.8265047
  51.2063360  48.0111647  48.8255262  50.5486488  48.2455778  46.7032909
  51.1412668  47.8957367  45.8579969  49.2269468  47.5123262  46.3766623
  48.5772324  47.8111219  47.1992779  48.7498808  47.8689384  45.4637861
  49.4086599  46.4385796  46.4229965  50.3598881  49.7564459  46.9071865
  51.2385702  50.2745533  47.2913551  50.1101923  50.1972246  45.9420633
  49.1740847  50.1883698  47.8112507  49.5178843  51.0556650  48.3748913
  48.2929993  50.4700184  47.2346497  48.9289570  49.4065142  48.5300779
  51.4984465  46.1511135  47.9252720  51.0956764  45.5880642  48.9140940
  52.0599508  45.4651022  46.9258690  52.3306465  46.0512066  46.1491346
  51.8690968  44.0297890  46.8124151  52.1649504  43.5332441  47.7365446
  50.7963991  43.9448738  46.6385889  52.6776791  43.4792948  45.6358957
  53.2341051  44.2168999  44.8633766  52.6696873  42.1583748  45.4228640
  52.2368097  41.5898609  46.1366653  53.4865284  41.5734005  44.3959522
  53.7425613  42.3061800  43.6307192  54.7274542  41.0350609  45.0809813
  55.1317263  41.7660427  45.7812166  54.4845772  40.0787640  45.5442333
  55.7132483  40.7836533  44.2029047  56.0603476  41.5251160  43.7015486
  52.7816820  40.5495262  43.5808849  51.8403196  39.8812127  43.9259338
  53.3981133  40.2605104  42.3620415  54.2484760  40.7327223  42.0899916
  52.7711010  39.4747972  41.3021231  52.1428013  38.7201142  41.7751884
  52.0896149  40.0455666  40.6713295  53.7679625  38.6972022  40.4436350
  54.9769640  38.9775229  40.5283260  53.2672501  37.8408790  39.6027279
  52.2816277  37.6249242  39.5578933  54.1147184  37.1547294  38.6405945
  54.8310709  36.5500093  39.1966987  53.2738733  36.2038088  37.7772188
  52.6022291  35.6261468  38.4122777  52.6240683  36.8657684  37.2047973
  53.9473343  35.3461766  36.9710684  54.4947910  34.6765542  37.3876023
  55.0616169  37.9906988  37.7914166  56.1417627  37.5335884  37.4206638
  54.5720387  39.1789627  37.3467731  53.6229897  39.4355607  37.5782013
  55.2703762  40.2486181  36.6114473  55.7621288  39.7385597  35.7831192
  54.3318796  41.3754654  36.0510492  54.8203659  41.9338226  35.2524757
  53.3805323  40.9535885  35.7269287  54.0326977  42.3210669  37.2450304
  54.7168112  43.5733032  37.4136186  55.5230570  43.8038301  36.7330074
  54.3817759  44.4330788  38.5300756  55.1094198  45.1823711  38.8048339
  53.3367062  44.0244389  39.3975616  53.1810760  44.5433331  40.3318739
  52.6439667  42.8147459  39.1713786  51.9629240  42.5115728  39.9528313
  52.9688835  41.9456530  38.1198716  52.3732567  41.0667276  37.9220724
  56.4654970  40.8333063  37.3920703  57.3710775  41.3138008  36.7526627
  56.4045048  40.8806372  38.7259579  55.7733440  40.3740788  39.3302202
  57.3024702  41.7626810  39.5270300  57.9498911  41.1057234  40.1078510
  57.9351139  42.4801302  39.0044093  56.3768530  42.4944830  40.5505514
  55.6442642  41.7682171  41.2472248  56.3966560  43.8182783  40.6297064
  57.0753384  44.3562746  40.1100445  55.9633064  44.4204760  41.8384743
  55.4122257  43.7445784  42.4923658  57.1073914  44.9681759  42.6881742
  57.6078272  45.7062912  42.0613956  56.6851425  45.3759432  43.6066151
  58.0690956  43.8444805  43.1409073  57.5598335  42.8339863  43.7065744
  59.2589617  44.1677523  43.0220938  55.0440454  45.6617880  41.6946650
  55.3797150  46.5620327  40.9366655  54.0635729  45.8201647  42.5925303
  54.0534973  45.2596188  43.4326410  53.1339169  46.9669342  42.7561426
  53.1057215  47.4288845  41.7692757  51.6692352  46.4491510  43.0754232
  51.6029263  46.3414192  44.1580582  50.7191658  47.5763178  42.5637531
  49.6785831  47.5115633  42.8817272  51.1101913  48.5528183  42.8494883
  50.7147169  47.5923824  41.4738798  51.2000084  45.1204443  42.4181890
  51.3798523  45.2287054  41.3485909  51.9005156  44.2899847  42.5061035
  49.7701597  44.6237135  42.8733873  48.9732313  45.2845144  42.5322723
  49.6048737  43.5964298  42.5486183  49.6906757  44.5350170  43.9568615
  53.5956526  48.0489492  43.7467384  53.7621260  47.6653099  44.9018669
  53.8528538  49.3074942  43.3719635  53.7359571  49.6519423  42.4297380
  54.0227890  50.3384829  44.4068146  54.1316271  49.9071693  45.4019165
  55.2794266  51.0712099  44.0600586  55.2588940  51.3401604  43.0039597
  55.3278160  51.9695330  44.6755075  56.5624285  50.2724361  44.2976856
  57.0467377  49.3042850  43.3914614  56.5348434  49.1986132  42.4463701
  58.2666206  48.6594439  43.6980009  58.6483192  47.9652071  42.9640055
  59.0033150  48.9422464  44.8558617  60.2585888  48.5121441  44.9029875
  60.2400208  47.6685953  44.4450808  58.5854292  49.9669981  45.7034826
  59.1199732  50.2063894  46.6108751  57.3329401  50.5429554  45.5091190
  57.0388174  51.3713837  46.1364937  52.8481054  51.2765932  44.4933414
  52.1439981  51.4723444  43.4970856  52.7928543  51.9954634  45.5791426
  53.3799076  51.8480968  46.3876915  52.0686817  53.2421827  45.7133055
  51.1608648  53.2755280  45.1109266  51.6087484  53.4080791  47.1210098
  50.8427715  52.6454782  47.2618198  52.4745941  53.1631994  47.7361870
  50.9556437  54.6755791  47.5612688  51.6539955  55.5109310  47.5102854
  49.7591162  54.9792624  46.6599989  50.1877880  55.3172302  45.7165384
  49.0572214  54.1708994  46.4550734  49.1661215  55.7542324  47.1456766
  50.4990482  54.5007849  49.0854073  49.9829102  55.4019022  49.4165945
  49.7879362  53.6758184  49.0423679  51.2607765  54.1957617  49.8029327
  52.9873991  54.4035292  45.3470135  54.1827011  54.2433310  45.6012344
  52.5280237  55.4909706  44.7076559  51.5703678  55.5363750  44.3899536
  53.2637024  56.6427851  44.4108438  54.0046263  56.8397045  45.1856661
  53.8892508  56.5419054  43.0054855  54.3424797  55.5506563  42.9949808
  53.0659342  56.5501356  42.2912073  54.5120907  57.3990202  42.7494955
  52.3654604  57.9053640  44.4099998  51.1193037  57.7924299  44.4413328
  53.0344296  59.1016817  44.4946909  54.0305281  59.0005636  44.6275854
  52.3853540  60.3863621  44.6978235  51.3157082  60.3080034  44.5033503
  52.5000095  60.7638550  46.2030077  52.0852947  59.9938726  46.8535852
  53.9749384  61.0423851  46.6548729  54.5164299  61.7793083  46.0617161
  54.0005445  61.3724613  47.6933813  54.4670439  60.0712204  46.7074633
  51.6320658  62.0148802  46.5465355  51.9792128  62.9197025  46.0476494
  50.6688690  61.7810965  46.0929966  51.3844872  62.2614193  48.0573034
  50.6782246  63.0666351  48.2595921  50.9425306  61.4423323  48.6246347
  52.3598003  62.5988245  48.4080505  52.9820156  61.4647961  43.8150311
  54.1586304  61.5879440  43.6409616  51.9971752  62.1556282  43.1812429
  51.0303640  62.1410084  43.4730768  52.3444128  63.0802155  42.1097088
  53.0357981  62.5015783  41.4971256  51.0715914  63.2163000  41.2718534
  50.6657600  62.2236347  41.0768890  50.3021049  63.7592936  41.8206263
  51.2116957  63.9543104  39.9663281  52.0727777  64.7627544  39.7851634
  50.3786612  63.6915588  38.9835882  50.4602003  64.3710041  38.2407475
  49.4682837  63.2742023  39.1144633  52.9428387  64.3992424  42.6446342
  52.2675228  65.2074909  43.2867289  54.1542482  64.7569895  42.2630119
  54.6126318  64.1154575  41.6318083  54.8190641  65.9245253  42.8268766
  54.5723534  65.9617615  43.8879395  56.3489294  65.8613873  42.6291656
  56.9208241  66.5283585  43.2742882  56.8744946  64.5141697  43.0813599
  57.9615307  64.5807457  43.0364370  56.6597271  64.3769836  44.1411495
  56.5444136  63.6364174  42.5257444  56.7554379  66.1955214  41.2229490
  56.2865686  65.5619240  40.4700804  56.2960100  67.1428156  40.9407091
  58.2666874  66.1330605  40.8489132  58.3772182  66.7277241  39.9421310
  58.8626957  66.5264606  41.6723871  58.5699034  65.1135826  40.6105280
  54.1532707  67.2146845  42.3588419  54.2964077  68.1942272  43.0842161
  53.4579325  67.2106123  41.1900759  53.4842587  66.3596821  40.6466341
  52.8691101  68.3858252  40.5983448  53.4594822  69.1989136  41.0207701
  53.1497812  68.4050465  39.1633844  53.0204773  69.4159746  38.7768435
  54.5108747  67.8633308  38.6728597  54.7766399  66.8980932  39.1038823
  54.4518995  67.7867746  37.5871468  55.3082800  68.4862041  39.0781689
  52.1951008  67.5076199  38.5170031  52.0856285  66.6009140  38.8128018
  51.4556313  68.7906647  40.9972858  50.9776688  69.9264479  40.6693935
  50.6829357  67.8650331  41.5656900  51.0101271  66.9149256  41.6673803
  49.2691517  68.1172466  41.7363358  49.1185904  69.1652632  41.9953632
  48.4939623  67.9874134  40.3849030  47.5052500  68.3803129  40.6219101
  48.9627361  68.6196756  39.6308494  48.3845758  66.6057920  39.8829627
  48.7366581  65.6541061  40.5994225  47.9902267  66.4281750  38.6757159
  47.7827311  65.4801702  38.3958364  47.4943590  67.1847105  38.2264137
  48.5727930  67.2580338  42.8848600  47.3660278  67.4662924  43.1428242
  49.3510675  66.3423300  43.5411501  50.2957964  66.1888313  43.2186270
  48.8781357  65.3852415  44.5198250  49.7825623  65.0196791  45.0061178
  48.3809328  65.9129763  45.3337002  47.9791164  64.1881990  44.1546917
  47.4735212  63.5639191  45.0826740  47.8675175  63.8281631  42.9271889
  48.0703831  64.4896364  42.1913958  47.2946119  62.5068760  42.6410341
  46.2965250  62.5737762  43.0739832  47.1893501  62.2609425  41.1782455
  46.7589808  63.1607103  40.7385921  48.2002544  62.2309494  40.7717085
  46.4053202  61.0070086  40.6730175  47.0151758  60.1810217  41.0389614
  45.4739475  60.9096670  41.2308455  45.9875631  60.8877516  39.2221308
  44.8509169  60.4416561  38.8855147  46.7498732  61.2016106  38.2436419
  47.9699802  61.2913465  43.2478619  49.1741228  61.3613033  43.4414625
  47.1943712  60.2328396  43.5770321  46.1876345  60.3062487  43.5425329
  47.8031731  59.0004921  44.2011404  48.8797426  59.1710615  44.2028809
  47.1441221  58.7530899  45.5295753  46.1697483  58.2904768  45.3724527
  47.7099466  58.0118227  46.0939026  46.9693518  59.9588346  46.3719368
  47.7298832  60.7111597  46.1629009  46.0176611  60.4199076  46.1077166
  46.9318867  59.6721363  47.9022837  45.8556557  59.6959400  48.5339260
  48.0299759  59.5556545  48.4525490  47.5168180  57.8140640  43.2856798
  46.4159775  57.6409960  42.6943541  48.5475826  57.0491123  42.9442692
  49.4202280  57.1745920  43.4370708  48.5502958  56.0844755  41.7740154
  47.5208855  55.8752537  41.4830732  49.2805767  56.6547680  40.4583788
  49.1890526  55.9184074  39.6599460  48.6523914  57.9749918  39.9789739
  48.8344479  58.8092566  40.6564379  49.1229010  58.2700300  39.0410590
  47.6045322  57.7923727  39.7407508  50.7570744  56.8359661  40.6724405
  51.2901735  57.2508764  39.8170090  51.0001993  57.6280308  41.3807011
  51.2763405  55.8960438  40.8595467  49.3312645  54.8007727  42.1338844
  50.2204370  54.7341728  43.0389977  49.1499424  53.7517500  41.2834072
  48.5496998  53.9617682  40.4987335  49.8748398  52.4670124  41.3230610
  50.3878641  52.3492050  42.2775412  48.7979412  51.3945055  41.1296129
  48.4673405  51.0086918  42.0939541  47.9505539  51.8207741  40.5926371
  49.2423010  50.6092739  40.5180120  50.8825254  52.5060749  40.1865768
  50.5324793  52.8330946  39.0533280  52.1061563  52.0260572  40.6134748
  52.1700668  51.7676163  41.5877533  53.3043671  51.9130945  39.7020030
  52.9483700  52.2278833  38.7210464  54.3628216  52.8824806  40.1354694
  54.8810863  52.5811863  41.0458136  55.5253363  52.7705574  39.1065621
  56.3608789  53.4377432  39.3183064  55.8557940  51.7324018  39.0728831
  55.1978683  52.9400969  38.0808330  53.8647032  54.3001366  40.4746008
  54.7312546  54.9589872  40.5302763  53.1129932  54.6384478  39.7614527
  53.3221531  54.1105080  41.4007711  53.7670517  50.4309654  39.7263527
  54.3158627  49.9543142  40.7164383  53.5328531  49.7194099  38.6224818
  53.1622124  50.2439260  37.8429914  53.9524031  48.3835649  38.4263372
  53.9549017  47.8119612  39.3544412  52.9834509  47.6181555  37.5138283
  53.0104733  48.1211996  36.5472269  53.3437252  46.6099834  37.3091364
  51.5635967  47.3624039  38.0878258  51.6207790  46.6565323  38.9164209
  51.0680246  48.3143950  38.2781458  50.7460785  46.6233063  37.0785332
  49.7213745  46.7687750  37.4204707  50.9186316  46.9890070  36.0663152
  51.0579777  45.0280857  37.3173118  52.1065903  44.9136496  37.0427036
  50.8702230  44.8420572  38.3747840  50.1819277  44.1433477  36.4854598
  50.1885462  43.1498098  36.6669416  49.2148972  44.3095112  36.7249322
  50.3887749  44.1582823  35.4969811  55.4290867  48.3423281  37.9054904
  55.6901598  48.8966942  36.8189025  56.3955116  47.7017021  38.6636877
  56.1683083  47.4192619  39.6064019  57.7519894  47.5926495  38.3129382
  57.8551531  48.0673456  37.3371696  58.6847639  48.2054090  39.4240689
  58.3695173  47.7498245  40.3627682  59.7255945  48.0207396  39.1582274
  58.5518217  49.6357632  39.6848273  57.5069237  49.6674347  39.9935126
  59.5421648  50.1679420  40.7408810  59.5651388  49.4468975  41.5579939
  60.5333996  50.1307392  40.2890301  59.4414330  51.2031507  41.0669088
  58.7784672  50.3702688  38.3668733  59.6183252  49.9110746  37.8454494
  57.8764534  50.2320337  37.7707434  59.1358328  51.3670444  38.6253858
  58.1671619  46.1175919  38.0807018  58.2591963  45.3003645  38.9841270
  58.4634972  45.9311962  36.8194652  58.5191584  46.6884756  36.1534786
  58.6885691  44.5809793  36.2907219  57.8270102  43.9982367  36.6166568
  58.7166882  44.6880960  34.7604108  57.8057814  45.1805258  34.4200325
  59.5446157  45.3303003  34.4600582  58.6595535  43.3622122  33.9328861
  59.4090891  42.6156282  34.1953945  57.6951981  42.8640509  34.0326643
  58.9812279  43.7754965  32.4977016  58.1337023  43.6649513  31.5997195
  60.1197433  44.1947126  32.2219443  59.9623728  43.7898254  36.9315672
  60.8484650  44.4320393  37.4290323  60.0629616  42.4379826  37.0187664
  59.3093491  41.8498802  36.6927004  61.2552643  41.7161655  37.4589109
  61.4230347  41.7118835  38.5359144  60.9261274  40.2748823  37.1579933
  59.9336004  39.9670339  37.4869633  60.9771776  40.1292467  36.0789728
  61.9014931  39.3803024  37.7324438  61.9614267  38.5477853  37.2581768
  62.4763823  42.1839142  36.5486884  62.3305941  42.2409630  35.3756618
  63.6705160  42.4871731  37.1034193  63.7440252  42.2825241  38.0897379
  64.8861170  42.9789782  36.4120770  64.6763992  43.8488913  35.7896924
  65.9871531  43.3131838  37.4315071  66.0536432  42.4188137  38.0510116
  66.9052505  43.5566807  36.8968081  65.6244183  44.3867540  38.4162593
  64.8972368  45.0468636  37.9434347  65.0927258  44.0420628  39.3031597
  66.8719578  45.2305746  38.8354969  67.3306704  46.0640812  38.0863309
  67.4439335  45.1403046  40.0481462  68.2128763  45.7851410  40.1622534
  67.0953369  44.4858217  40.7338810  65.4403067  41.9760227  35.4518270
  65.5327272  40.8303308  35.9179664  65.6664419  42.3017645  34.1792679
  65.3338385  43.2209682  33.9252138  66.4849281  41.5584993  33.1473970
  66.6628790  42.2165823  32.2968912  67.8032589  41.0659266  33.7596536
  67.5977707  40.6000137  34.7233963  68.4217548  40.4465723  33.1100726
  68.7797403  42.2265720  34.0794730  68.8027620  42.8507328  33.1861687
  68.2758331  42.7507782  34.8915005  70.2453041  41.7939901  34.4987774
  70.3052282  41.8232012  35.5867362  70.4676390  40.8340168  34.0328145
  71.4254570  42.7461195  34.1769981  72.3519039  42.2141933  34.3934512
  71.4082909  42.9929543  33.1154537  71.4350939  43.9939356  34.9935007
  71.3823891  43.8459110  35.9912038  72.2789764  44.4876432  34.7400975
  70.8842516  44.7509480  34.6145511  65.7856607  40.3720427  32.6058698
  66.4666176  39.5042086  32.0046854  64.4677782  40.1917553  32.7826858
  63.9832592  40.9958458  33.1552219  63.7753010  39.0537167  32.2987700
  64.1231585  38.1910515  32.8670192  62.3052359  39.2229152  32.7244377
  62.2622061  39.4564152  33.7882614  61.8017006  39.9774718  32.1201229
  61.8362761  38.2524157  32.5622511  63.8842630  38.6740613  30.8048296
  63.9130974  39.5967865  29.9696732  63.8401127  37.4119687  30.3895092
  63.9084864  36.7854524  31.1787510  63.8246870  36.8889761  28.9584637
  64.6286869  37.3918819  28.4210849  64.0463066  35.3504539  28.9564610
  64.9853325  35.0900507  29.4448423  63.1691456  34.8741007  29.3943763
  64.2476320  34.8954725  27.5000453  63.3193254  35.0316978  26.9452572
  64.9391651  35.5720830  26.9979715  64.8854589  33.5274386  27.2627306
  65.2730989  33.3359241  26.2621522  65.6925201  33.4952354  27.9946613
  64.1338730  32.3329830  27.6275587  63.1550598  32.4060917  27.8656411
  64.5894051  31.0699868  27.6657391  65.7534504  30.7620120  27.4264097
  66.3143349  31.4876652  27.0033979  66.0946798  29.8114753  27.4143815
  63.8621569  30.0530791  27.9440093  62.8636408  30.1268125  28.0768061
  64.3464279  29.1773224  28.0805111  62.5635052  37.2203851  28.1926036
  62.6540279  37.5770450  27.0192409  61.4238882  37.1694684  28.8749552
  61.4667559  36.6157746  29.7185707  60.0886917  37.7189088  28.3471823
  60.0935745  38.0842042  27.3202276  59.1406393  36.5574813  28.1608438
  59.5767593  35.8494329  27.4561715  58.9607716  36.0848665  29.1264462
  57.7360249  36.9483709  27.7402854  57.3920631  37.5193620  26.5547085
  56.0509920  37.7197361  26.7237806  55.4323149  38.1631136  25.9575820
  55.5729485  37.1968365  27.8583670  54.6141672  37.1981454  28.1759191
  56.6455317  36.6684175  28.4942770  56.6282082  36.0924411  29.4077063
  59.5188618  38.8709259  29.2064285  59.1626596  38.6268377  30.3595734
  59.5215845  40.0770378  28.7144566  59.9948692  40.4555845  27.4206209
  59.4397354  39.9494028  26.6308737  61.0629368  40.2576303  27.3303890
  59.6600389  41.9219351  27.2604346  58.6434793  42.0500660  26.8885565
  60.3719473  42.4312449  26.6109061  59.7638083  42.3645258  28.7155175
  59.2972183  43.3280754  28.9203954  60.8053446  42.3147297  29.0330482
  59.1317797  41.2444401  29.5526791  59.5862055  41.2950373  30.5421448
  57.5640917  41.3277578  29.6266770  56.9069862  42.1548414  28.9798212
  57.0359802  40.5381107  30.5453372  57.6631880  39.8456168  30.9289575
  55.6235361  40.4367924  30.7636380  55.1779556  39.8948884  29.9294305
  55.3004646  39.5158792  31.8962550  55.6529760  39.9000406  32.8534698
  54.2216349  39.4234633  32.0214725  55.7761908  38.0385017  31.8385243
  55.3261185  37.5026083  31.0028481  56.8596172  37.9661679  31.7433667
  55.3928995  37.3273587  33.1145883  54.2395449  37.4554515  33.6368012
  56.3104916  36.6919875  33.7585616  56.2222958  36.5317607  34.7518635
  57.2445059  36.8249774  33.3979607  54.8512840  41.7783976  30.8919120
  53.7871408  41.8495512  30.3238726  55.4113913  42.8034878  31.6001105
  56.3942051  42.6738787  31.7934513  54.7080994  44.0891075  31.7175865
  53.6539745  43.8311529  31.8194366  55.1751280  44.7745132  32.9843879
  55.2017069  44.0243149  33.7747025  56.1614037  45.1161146  32.6702785
  54.3827105  46.0658693  33.3915806  54.2782831  46.7222357  32.5276494
  52.9948473  45.6156349  33.9766645  52.3158360  45.3036737  33.1831074
  53.0854368  44.8099899  34.7052479  52.6125479  46.5182257  34.4533944
  55.2700806  46.7974520  34.4060445  55.4606962  46.2291908  35.3164577
  56.2039614  47.0541430  33.9059639  54.8604727  47.7678585  34.6864676
  54.6429873  44.9324846  30.4273653  53.6205292  45.6418228  30.1091576
  55.6207180  44.8111296  29.5358896  56.4763689  44.3535089  29.8161483
  55.4518318  45.1911545  28.1568146  55.2807331  46.2676048  28.1472826
  56.7366171  44.8130989  27.3031402  57.6304913  45.0043106  27.8968787
  56.7860556  43.7331724  27.1637535  57.0122910  45.6427336  26.0847235
  56.9285965  46.7027617  26.3243961  58.3348083  45.3417778  25.3778291
  58.3032703  44.3715000  24.8821712  58.4882975  46.0224676  24.5404530
  59.1482019  45.4035854  26.1007857  56.0069227  45.3044462  24.9825096
  56.1914635  44.3566513  24.4768095  54.9754429  45.3419733  25.3328657
  56.1612511  46.0207748  24.1755700  54.1841650  44.6708918  27.5619721
  53.3256531  45.4718256  27.1200299  54.0455484  43.3401918  27.4890947
  54.6753931  42.7613020  28.0260181  52.8202820  42.7342463  26.9409084
  52.7179766  43.2552433  25.9889650  53.0570650  41.2134933  26.7694020
  53.6003780  40.8551884  27.6437783  52.2243309  40.5212307  26.6452003
  53.9725113  40.8930683  25.5584311  53.3912897  40.4600000  24.3406773
  52.3287868  40.3052282  24.2243314  54.2293596  40.1632690  23.2164264
  53.8395405  39.7441268  22.3005843  55.6045818  40.2402782  23.3936238
  56.3203382  39.8695922  22.2793865  57.2703171  39.9960446  22.3354816
  56.1988878  40.7200575  24.5474386  57.2753763  40.7525778  24.6281958
  55.3777742  41.0147238  25.7012510  55.9352493  41.1833525  26.6107488
  51.5430355  43.1521225  27.6137161  50.5295610  43.4379435  26.9670296
  51.4635897  43.2896090  28.9384532  52.2942686  43.1368971  29.4923067
  50.2197218  43.6723042  29.5820260  49.3692827  43.1183624  29.1845274
  50.3541183  43.2048225  31.0613346  50.7461739  42.2022963  31.2325954
  51.0725451  43.9059973  31.4859748  49.1010857  43.4691238  31.9180727
  48.7723207  44.4894552  31.7207575  48.3359718  42.7300596  31.6803956
  49.3938589  43.2994318  33.4738922  48.4194851  43.5880852  34.2414093
  50.5263519  43.0489397  33.9366031  49.8891306  45.1748466  29.3623853
  48.7482548  45.5471897  29.1582751  50.9459734  46.0196686  29.5071030
  51.8766022  45.6711149  29.6874881  50.8426571  47.4114132  29.1408467
  50.0568151  47.8002310  29.7884417  52.1261835  48.1883812  29.4411421
  52.4595118  48.1465483  30.4780817  52.8882265  47.9063797  28.7145972
  51.9175005  49.6004105  29.1685915  52.7373886  50.0571728  29.3704772
  50.3547239  47.5817108  27.7126956  49.3766260  48.3156872  27.5225782
  50.9223366  46.8907642  26.7052507  51.7134047  46.3028526  26.9258618
  50.3693151  46.8759060  25.3904748  50.4524279  47.8323603  24.8743486
  51.0844088  45.7770634  24.6230841  52.1641588  45.8605623  24.7466540
  50.8769274  44.7891712  25.0343370  50.8255243  45.7989407  23.0446839
  49.8576641  45.3655338  22.7926874  51.0213327  46.7773867  22.6060414
  51.8775082  44.8700809  22.4739885  52.8619814  45.3201580  22.6017976
  51.9910431  43.8834429  22.9231691  51.6723204  44.6166611  20.9815645
  50.7233381  44.0980434  20.8452916  51.6901588  45.5712128  20.4556227
  52.8316641  43.7329912  20.4422355  53.7508154  44.0412045  20.7255507
  52.6552916  42.8004313  20.7876682  52.7586651  43.8170004  19.4383848
  48.8757181  46.5479088  25.3244996  48.1092405  47.1055079  24.5464277
  48.4042501  45.5803871  26.0817289  49.0840101  45.1357985  26.6820312
  46.9545889  45.1261377  26.1425185  46.5752220  45.1037359  25.1209092
  46.8469381  43.7002134  26.7454982  47.5796413  43.0229473  26.3066912
  47.0400667  43.7466812  27.8172469  45.4983664  43.2238960  26.5542078
  44.8576450  43.7591696  27.2549701  45.0114822  43.2813835  25.0832629
  45.8466387  42.9399872  24.4716549  44.1057205  42.6756191  25.0559282
  44.6023655  44.2299891  24.7356057  45.2811623  41.7630243  26.9778109
  45.5640125  41.6109657  28.0194283  44.2462492  41.4499235  26.8398809
  46.0317039  41.1977053  26.4253616  46.0438776  46.1423731  26.8773961
  44.9812269  46.4895344  26.3860011  46.4875650  46.7205143  28.0097866
  47.2907209  46.3467646  28.4949183  45.7164431  47.7882767  28.6994958
  44.7403145  47.4111414  29.0045238  46.4333153  48.2000017  30.0543094
  47.5086689  48.3319235  29.9346709  46.1404276  49.2379904  30.2120852
  46.2480831  47.3321629  31.2967443  47.3864460  46.9645834  32.0265651
  48.3785200  47.1671057  31.6508293  47.2325468  46.1067820  33.1236434
  48.0209398  45.6889677  33.7321448  45.9739542  45.6161547  33.4269524
  45.8309555  44.7870970  34.4998384  46.7278576  44.4974470  34.6822262
  44.8756218  46.0303736  32.6817226  43.8922787  45.6846952  32.9644775
  44.9956274  46.9182730  31.6111398  44.0940619  47.1594000  31.0675931
  45.5570841  49.0504885  27.8925109  44.4837952  49.6430922  27.8869057
  46.5829659  49.4230747  27.1368098  47.4463940  48.9179468  27.2762489
  46.4684105  50.4699421  26.0687876  46.2512302  51.4058971  26.5834951
  47.8627920  50.6942749  25.4800677  48.5011721  50.9045935  26.3381672
  48.1248856  49.7837687  24.9411917  48.0462646  51.8350840  24.4445157
  49.0451527  51.7343092  24.0200520  47.2352600  51.6404772  23.7427354
  47.9825544  53.2244539  25.1012444  46.9947481  53.3624268  25.5409050
  48.7301683  53.2220316  25.8944464  48.1829691  54.3005991  24.0541530
  48.4488630  55.2435637  24.5318699  48.9383507  53.9097786  23.3724284
  47.0034122  54.6275663  23.2510972  47.2911072  55.3600883  22.6180530
  46.6530991  53.9793539  22.5602961  46.1895323  54.9402380  23.7609410
  45.3041363  50.1779652  25.0661445  44.5021439  51.0308981  24.8272705
  45.1844883  48.9551926  24.5229650  45.7897854  48.2172823  24.8534369
  44.1160250  48.4408236  23.7236834  43.9835024  49.0277290  22.8147912
  44.4624853  47.0147038  23.2003474  44.8583651  46.4968920  24.0739918
  43.1995249  46.2750864  22.7559853  42.5020266  46.2147379  23.5914278
  42.8323603  46.6953135  21.8196630  43.3675575  45.2329540  22.4842691
  45.6510448  47.1876144  22.2387576  45.3328466  47.7793932  21.3804746
  46.4512682  47.6982117  22.7745128  46.1484385  45.8230066  21.7447948
  47.0392656  45.9787941  21.1363029  46.3753080  45.2649546  22.6532078
  45.2926016  45.3704071  21.2440038  42.8049564  48.5218096  24.5210743
  41.9372892  49.1099167  23.9194870  42.6792860  47.8697634  25.7215858
  43.5434580  47.5092030  26.1001372  41.4127302  47.8662777  26.5175653
  40.6023932  47.4737740  25.9032393  41.5383720  46.7911196  27.6707864
  42.0893574  47.1663618  28.5331726  40.5464792  46.6816807  28.1092858
  41.8909121  45.3444481  27.3820138  42.7760935  45.3444815  26.7459702
  42.1369886  44.5476532  28.6620235  41.2704515  44.5706892  29.3228388
  42.4968195  43.5400581  28.4537506  42.9261875  45.0092173  29.2555118
  40.7366037  44.6752644  26.6958165  39.8609233  44.9072933  27.3019862
  40.5068827  45.0989151  25.7181406  40.9865093  43.6207628  26.5789127
  40.8611679  49.2128134  27.0450854  39.6669936  49.2234421  27.3472905
  41.7444706  50.1757479  27.0894122  42.7032948  49.8643351  27.0279479
  41.3892221  51.4866972  27.5965977  41.5087605  51.3781118  28.6745715
  42.5629425  52.4317312  27.2855282  43.5203695  51.9857597  27.5548553
  42.6586342  52.7856064  26.2590146  42.4502039  53.6909866  28.1344557
  43.2775307  54.3362236  27.8389859  41.4815521  54.1896772  28.1010580
  42.6505995  53.3968782  29.5690227  41.6305733  53.3133698  30.2420068
  43.8111734  53.1402636  30.0930095  43.7582588  52.6465464  30.9725213
  44.6152210  53.0966473  29.4833302  39.9555826  52.1314430  27.4212956
  39.3325448  52.1711636  26.3622975  39.4534636  52.6659107  28.5850430
  40.0708055  52.6555872  29.3843436  38.1354713  53.3365393  28.7494969
  38.2043648  54.0054846  29.6073246  37.9046583  53.9898443  27.9080606
  36.9595861  52.3370361  29.0408731  35.9942460  52.8409290  29.5557117
  37.1039844  51.0506344  28.8235116  37.9915047  50.8260918  28.3969164
  36.1940837  49.9975252  29.2730117  35.2886271  50.2477884  28.7201858
  36.5132689  48.9868593  29.0185118  35.8476734  50.1029778  30.7933354
  36.7381191  50.4923010  31.5628672  34.6036267  49.8108387  31.0773540
  34.0155649  49.2795467  30.4512453  34.1504169  49.9636889  32.5037813
  34.4416642  50.9052563  32.9693174  32.6775622  49.7766161  32.6495647
  32.3870492  48.8691378  32.1202350  32.1933007  49.7247219  34.0951705
  31.1398029  49.4493818  34.0458035  32.6371431  48.9722490  34.7470045
  32.3206973  50.7023668  34.5600224  31.8723965  50.8455276  31.9198871
  30.7977486  50.7015419  32.0316434  31.9967127  51.8789101  32.2435594
  32.1500778  50.9006643  30.8672929  34.9092579  48.8957548  33.2834268
  35.1698136  47.8017521  32.7706075  35.5361938  49.3440056  34.3564582
  35.5283809  50.2905750  34.7086644  36.4254355  48.4486246  35.1504254
  36.5935040  48.7846804  36.1736155  35.8207726  47.5417376  35.1566601
  37.7950835  48.0268574  34.6645045  38.2127166  46.9330359  35.0019479
  38.4580898  48.9953423  34.0464640  37.9662943  49.8457813  33.8119602
  39.7056675  48.7224722  33.3313203  40.2346325  47.8814554  33.7796402
  39.4666505  48.5309696  31.7953610  38.8010430  49.3204117  31.4462900
  40.7926702  48.7608910  30.9704757  41.4873075  47.9303217  31.0958958
  40.5022526  48.7787104  29.9200249  41.2994766  49.7227049  31.0489130
  38.6366725  47.2640944  31.3600230  37.6771426  47.2353601  31.8763375
  38.4322000  47.4296951  30.3022575  39.3595767  45.9265852  31.4518857
  39.5892072  45.6202173  32.4724293  38.6316419  45.1901531  31.1114693
  40.3363037  45.9146595  30.9681892  40.6348562  49.9724436  33.6733389
  40.1980352  51.0577774  33.3657837  41.8237114  49.7771263  34.2473865
  42.4343443  48.5452652  34.5711446  42.5137043  47.8968382  33.6985922
  41.9169426  48.0112743  35.3681731  43.8809252  48.7799644  34.9521756
  44.4955444  48.6900520  34.0564847  44.0660048  48.0267429  35.7180119
  43.8728857  50.1559830  35.5143452  44.8163033  50.6498289  35.2815700
  43.5832548  50.1830769  36.5648055  42.7210808  50.8757210  34.7329473
  42.1302414  51.4700317  35.4299426  43.1516171  51.8941593  33.6506629
  43.6768389  51.6210794  32.6264715  43.0275488  53.1952238  34.0698647
  42.6450586  53.4611559  34.9660182  43.5567236  54.1911888  33.2683825
  43.3873415  54.0015173  32.2084594  42.9212189  55.5875921  33.5592937
  41.8429518  55.5984020  33.4001398  43.0551863  55.7376671  34.6305704
  43.4742308  56.7581797  32.7388716  44.4931412  57.5547934  33.2353783
  44.6038771  58.5137606  32.3710847  45.3100061  59.3264008  32.4570823
  43.6915445  58.4424639  31.3576269  43.6639261  59.0391064  30.5431628
  43.0618906  57.2223520  31.5599537  42.2241688  56.8522358  30.9875560
  45.0390053  54.2369270  33.5320854  45.5239296  54.1669083  34.6508169
  45.7858658  54.3946981  32.4714231  45.2479267  54.3508863  31.6177201
  47.2259855  54.5928001  32.2693110  47.7077770  54.3274641  33.2103586
  47.8051472  53.8634682  31.0567808  47.2703266  54.3108845  30.2189946
  49.2585135  54.2029333  30.8838677  49.3145657  55.2840853  30.7571197
  49.9379683  53.9274549  31.6904354  49.7362423  53.8163137  29.9836445
  47.4735308  52.3561001  31.1252689  47.7767611  51.8615627  32.0480824
  46.3877344  52.3092556  31.0418701  48.0542946  51.5478182  29.9847364
  47.7766323  51.9491816  29.0101051  49.1432619  51.5912056  29.9655509
  47.7945471  50.4936743  30.0817823  47.4677181  56.1041307  32.3077869
  46.9725800  56.7812634  31.3886404  48.2893610  56.5571356  33.2498407
  48.6520290  55.9692812  33.9867282  48.7910938  57.8969383  33.3233356
  48.0869484  58.5281372  32.7812386  48.9281559  58.2895279  34.8493266
  49.8147964  57.8433228  35.2997375  49.2303610  59.3315315  34.7444320
  47.7881718  57.9652023  35.8459425  47.4546528  56.9290018  35.7897854
  48.1302929  58.0236483  36.8792057  46.6853523  58.9546347  35.4425192
  47.1061087  59.9601507  35.4427218  46.2711525  58.6932564  34.4687533
  45.6396627  59.0300941  36.4381409  45.6888962  59.7091103  37.1842074
  44.8727083  58.0439997  36.8077421  44.5998478  56.9653702  36.1208153
  44.8203373  56.9903183  35.1354909  43.9590216  56.2503672  36.4342022
  44.2828274  58.0187798  37.9782915  44.4165087  58.8505077  38.5354853
  43.5365152  57.3724461  38.1912827  50.1821518  58.1793785  32.6814866
  50.5303192  59.3540287  32.4445939  50.8985186  57.0919847  32.3619413
  50.4482603  56.2015533  32.5184488  52.2691536  57.0830774  31.8164325
  52.2516584  57.6204014  30.8682370  53.2262611  57.8443289  32.6860237
  52.8093386  58.8495445  32.7478456  53.3453417  57.5277376  33.7222171
  54.5735073  57.9461813  32.0503187  54.9004364  58.8979673  31.2020922
  54.2611837  59.7190523  30.9129858  56.2433577  58.8292456  30.9020400
  56.7847109  59.5428658  30.4353666  56.8108988  57.7945805  31.5849972
  58.1401491  57.3549747  31.5469122  58.9065218  57.9165936  31.0334301
  58.4854937  56.3480186  32.4014473  59.5518875  56.1858416  32.3474264
  57.5705719  55.6508398  33.1997442  57.8782415  54.8140287  33.8092518
  56.2561464  56.1981058  33.3107185  55.5031586  55.7406425  33.9353323
  55.8255005  57.2671747  32.4369311  52.8187704  55.6522417  31.6210222
  52.3844004  54.7937202  32.3536611  53.7794542  55.3557014  30.7130933
  54.2192173  56.0598183  30.1378274  54.3964958  54.0088654  30.6699204
  54.2323732  53.5362434  31.6383195  53.7485266  53.2521486  29.5354676
  52.6745558  53.1126595  29.6588707  53.8518620  53.8455009  28.6269760
  54.3438959  51.8817854  29.1014004  54.6002626  50.9231472  30.0785637
  54.3047667  51.1054945  31.1012220  55.4019833  49.8068380  29.7157049
  55.6175709  49.0044260  30.4056764  55.8922911  49.6129179  28.4426260
  56.6367674  48.5889149  28.0720425  57.1632814  48.8729715  27.3212481
  55.5343914  50.5444098  27.4463725  56.0255718  50.5348015  26.4845777
  54.7400236  51.6941118  27.7932286  54.6212196  52.4529219  27.0339537
  55.8539438  54.1549444  30.2651596  56.1408043  55.0557613  29.4924545
  56.7947674  53.3357477  30.8005047  56.4837170  52.6337481  31.4566636
  58.1130552  53.3724165  30.2540493  58.1641245  53.3613968  29.1653013
  58.5107803  54.2861938  30.6955433  59.0409851  52.2761393  30.7679152
  58.6341524  51.1343575  31.0209489  60.3492355  52.5743103  30.8761215
  60.6040907  53.5289812  30.6669688  61.4378977  51.5977526  31.1891413
  60.9331703  50.7437754  31.6408920  62.0932245  51.0136652  29.9522638
  61.2725449  50.6269169  29.3480968  62.6341629  51.8243027  29.4640517
  63.0268526  49.8139238  30.2193689  62.7626276  49.3784952  31.1830521
  63.0305099  49.1139269  29.3838453  64.4705868  50.1574469  30.4287648
  64.8277092  51.2334299  30.8173037  65.4020214  49.2242050  30.2958274
  66.3440990  49.4377899  30.5907369  65.0991201  48.2931042  30.0480342
  62.4514627  52.1789598  32.1628547  63.0803251  53.1569958  31.8068814
  62.6351404  51.6099501  33.3307076  62.2989845  50.6594944  33.3918238
  63.7140179  51.9804382  34.2937803  64.0526915  52.9504108  33.9296818
  63.1673098  52.1100140  35.6870246  62.5964785  53.0376482  35.7287192
  62.5759745  51.2275124  35.9312010  64.2361498  52.3298311  36.7547941
  63.6614323  52.6614285  37.6195765  64.7447777  51.3894081  36.9669175
  65.2531242  53.3928251  36.5852308  66.1992121  53.3931780  37.3809814
  65.0409365  54.2736673  35.6744862  64.8066568  50.9237337  34.2634749
  64.4691992  49.7963238  34.5879602  66.1173248  51.2702131  34.0160728
  66.3568830  52.1798897  33.6483741  67.3215342  50.4633951  34.3533444
  68.2276392  51.0402679  34.1681623  67.3341608  50.2593946  35.8623290
  67.2767830  51.1802435  36.4427137  66.4701319  49.6813059  36.1899972
  68.5498095  49.4746208  36.2378550  68.6939859  48.5510397  35.6772232
  69.3591642  50.1488924  35.9578514  68.6820555  49.0698862  37.7269864
  68.7570143  49.9617529  38.3491325  67.7675867  48.5905981  38.0764556
  69.9314213  48.1095409  38.0952048  70.8837366  48.6110115  37.9228234
  69.9367666  47.8274298  39.1480517  69.7905159  46.8474340  37.3946691
  68.9261055  46.4052629  37.6728439  69.6728945  47.0298243  36.4082599
  70.5699587  46.2195349  37.5299859  67.4483728  49.1605043  33.5923672
  68.4460783  49.0700102  32.8290200  66.4921761  48.2513905  33.8289237
  65.6765699  48.6008120  34.3114066  66.4505720  46.8493176  33.2623863
  66.6359425  46.9377661  32.1919107  67.5083208  45.9574413  33.9094687
  67.2220755  45.7845640  34.9469066  67.4887228  44.9788094  33.4298825
  68.9811659  46.2731600  33.7164259  69.7110367  46.3526106  34.6929145
  69.3820143  46.3402653  32.5638103  65.0100327  46.2339544  33.4557796
  64.8515081  44.9631453  33.3053303  63.9419889  47.0012522  33.5876870
  64.1155863  47.9960775  33.5709596  62.5996637  46.5921164  33.7936735
  62.4332619  45.7040834  33.1839061  62.4090576  46.2942982  35.2794385
  61.3483334  46.1101675  35.4499173  62.8354454  45.2941656  35.3570962
  62.9586458  47.3825598  36.2118292  64.2513943  47.3533344  36.7713833
  65.0058079  46.6986847  36.3606572  64.5300913  48.2092524  37.8270125
  65.5074501  48.1875086  38.2860351  63.6236286  49.1598225  38.3370709
  63.9362907  49.8997927  39.4237924  64.2661619  49.2925501  40.0901556
  62.4535179  49.3435287  37.5840282  61.8343449  50.2043104  37.7891493
  62.0734596  48.4626770  36.5386748  61.1768103  48.5299540  35.9404349
  61.6673470  47.6162434  33.2589865  61.9961405  48.8155222  33.2916212
  60.5357122  47.1282101  32.7600598  60.4529333  46.1447144  32.5456166
  59.4198513  48.0265665  32.5139403  59.8667574  48.8675547  31.9837379
  58.4696579  47.3446417  31.5566158  58.0803394  46.4480925  32.0390368
  57.6164293  47.9496765  31.2499523  59.1718197  47.0485449  30.2535057
  59.7524357  47.9247093  29.5558643  59.2553854  45.8524609  29.8707628
  59.9927568  45.8057213  29.1821408  58.9007044  45.1068449  30.4524541
  58.7007952  48.6818695  33.7419581  58.8382816  48.2370234  34.8859930
  57.9224777  49.7119665  33.5097647  57.8391504  50.0282669  32.5541925
  57.2836685  50.6867552  34.4309664  57.0999098  50.3136158  35.4384923
  58.2560062  51.8693113  34.5068383  58.3772755  52.3328066  33.5277724
  57.7437449  52.8302193  35.5711889  57.6048470  52.4186754  36.5709114
  58.5075760  53.5809946  35.7736826  56.8161726  53.2893324  35.2292538
  59.6524429  51.3710022  34.9238396  60.2658939  52.2563267  35.0911427
  59.6958160  50.8416510  35.8756852  60.0739717  50.8446693  34.0674591
  55.9801102  51.1469841  33.9201331  55.8622932  51.7764330  32.8585172
  54.9232435  50.8305788  34.6516848  55.0673819  50.4799223  35.5878282
  53.5348797  51.1743355  34.2634058  53.6325884  51.8023491  33.3778787
  52.8435850  49.8652411  33.7934661  53.3631706  49.4936895  32.9102445
  52.8971386  49.1681719  34.6297288  51.3320017  50.1644707  33.4662366
  50.8887243  50.6913233  34.3112445  51.1937904  51.1058950  32.2312903
  51.8624592  51.9627047  32.3141694  51.3000965  50.5761099  31.2846494
  50.1629448  51.4593410  32.2542667  50.5514240  48.9437819  33.0192018
  49.7183704  49.1814947  32.3576784  51.3658810  48.4273005  32.5112486
  50.2668905  48.3588076  33.8938117  52.8287935  51.9254446  35.3638196
  52.8355789  51.3893938  36.5267539  52.3478270  53.1384087  35.0235295
  52.4900341  53.4742737  34.0816855  51.8032885  54.0141392  35.9908962
  51.9011116  53.6342335  37.0078540  52.3997259  55.4108238  36.1096740
  52.1868992  55.9528160  35.1882362  51.7360067  56.0603857  37.3220611
  50.7520247  56.4347553  37.0397305  51.5135956  55.4466391  38.1949568
  52.4129677  56.8709373  37.5919485  53.9674902  55.4604006  36.3597631
  54.4572639  55.0444937  35.4792857  54.4186115  56.4382792  36.5281248
  54.1482925  54.8685408  37.2570419  50.2765560  54.1821146  35.7610941
  49.9087811  54.7230530  34.6953511  49.4368982  53.5799170  36.6281915
  49.8525047  53.2362700  37.4821711  48.0045652  53.3633089  36.5061688
  47.5786209  53.9601183  35.6996369  47.9570484  51.9087696  36.0074306
  47.0487595  51.6632509  35.4571247  48.7736368  51.7326689  35.3072429
  48.1347990  50.8864498  37.0879006  48.7255239  51.2149143  37.9430342
  47.1616697  50.6203079  37.5005603  48.7891340  49.2455864  36.6021085
  47.3696136  48.5414839  35.7192206  46.6359758  48.3688402  36.5066695
  47.0132446  49.1853094  34.9151158  47.7279902  47.6666307  35.1767302
  47.1130514  53.6420250  37.7163196  47.5635433  54.1181326  38.7710762
  45.8113194  53.4499502  37.5481820  45.5673838  53.2678127  36.5851545
  44.7615433  53.6963797  38.6397481  44.8436022  54.7585011  38.8705420
  43.3534575  53.2984734  38.2408881  43.4214878  52.2720814  37.8803468
  42.8111792  53.2705355  39.1860080  42.5334215  54.2357922  37.3060322
  42.7216768  55.4516554  37.3905277  41.9123173  53.6725569  36.3523602
  45.0019455  53.0256033  39.9484372  45.3164196  51.8421650  39.9964929
  44.9906349  53.7812281  41.1087751  44.7135925  54.7515965  41.0671663
  45.0595236  53.1355429  42.4674034  45.7374477  52.2947311  42.3205948
  45.7134533  54.1334391  43.3555651  46.7587948  54.1956425  43.0530739
  45.2136707  55.0999737  43.2913446  45.7739258  53.8121891  44.8169088
  44.7815275  53.5325575  45.1705408  46.7565107  52.7125406  45.1754332
  46.5136290  51.7180586  44.8011017  47.7469587  52.8452587  44.7401190
  46.9685125  52.7305937  46.2444639  46.3431644  55.0109673  45.6002712
  46.4481401  54.7959280  46.6636801  47.3293209  55.3049898  45.2409077
  45.6923485  55.8826637  45.5317974  43.6934233  52.5217485  42.8437853
  42.9039621  53.1191635  43.5646486  43.4810781  51.2895679  42.2725391
  44.1404772  50.8988619  41.6147900  42.2066164  50.5457258  42.4807930
  41.4326859  51.1800909  42.0486927  42.2959852  49.2777681  41.6087341
  43.0702162  48.5995293  41.9674349  41.4284420  48.6676407  41.8601656
  42.4437618  49.4535971  40.0446129  43.3542633  50.0305271  39.8826265
  42.6881742  48.1446218  39.2892814  43.6553097  47.7033281  39.5301270
  41.8921757  47.4317217  39.5043993  42.7539444  48.3358431  38.2182026
  41.3049746  50.1424932  39.3489385  40.3789282  49.5780087  39.4580054
  41.0397243  51.0006714  39.9664092  41.4622879  50.5121899  38.3356833
  41.7866707  50.2050447  43.8803053  42.5962830  50.4343843  44.8096848
  40.5587912  49.6592140  43.9916229  40.0677252  49.5689392  43.1136656
  40.0029087  49.1563797  45.3255796  40.2540874  49.8640537  46.1156511
  38.9211011  49.1808558  45.1944637  40.5872250  47.7245951  45.7131243
  41.6122150  47.2468662  45.1478243  39.8463821  46.9459248  46.4958715
  38.6525655  47.3629951  47.2463036  37.7865720  47.6003027  46.6283655
  38.8541484  48.3483171  47.6665497  38.3671451  46.2059355  48.2000065
  37.7559328  45.5401611  47.5906897  37.8059292  46.5230465  49.0789700
  39.7542524  45.6513834  48.4433222  39.7228408  44.5882225  48.6816645
  40.4413700  46.2701750  49.0204334  40.2554274  45.6566381  47.0614147
  41.3345480  45.5031776  47.0682430  39.8495746  44.4314671  46.1390448
  38.6946368  44.2689419  45.6852627  40.8056355  43.5867643  45.8299637
  41.6376352  43.8273144  46.3495874  40.6010103  42.1734524  45.2985144
  40.3754187  42.2102308  44.2327452  41.7485476  41.2530661  45.4444408
  42.5992918  41.7947578  45.0310421  41.9848776  41.1425209  46.5027571
  41.5973282  39.9956441  44.8585939  41.4699650  40.1720476  43.9235735
  39.4218612  41.5177536  45.9148359  39.2595434  41.5599632  47.0794821
  38.6135483  40.9092617  45.0753593  38.6973119  40.9893370  44.0720272
  37.4890137  40.0271225  45.4101467  36.7800260  40.6394291  45.9673882
  36.7078519  39.7516131  44.1236067  36.3531351  40.6790066  43.6739159
  37.4056149  39.3818402  43.3722782  35.5055833  38.7968969  44.1700125
  35.9850788  37.9216170  44.6082640  34.4023371  39.2530322  45.1744032
  33.9062762  40.1578522  44.8232222  33.6804199  38.4552717  45.3490829
  34.8524046  39.4798017  46.1408997  34.9730229  38.5407495  42.7842999
  35.7045746  37.9839778  42.1986914  34.0202308  38.0113649  42.7904940
  34.8328090  39.4743514  42.2394800  38.0675602  38.8270426  46.2232637
  37.3158646  38.2860255  47.0481920  39.2575788  38.3639908  45.9808779
  39.8721313  38.7661910  45.2875805  39.8866606  37.2543693  46.8153572
  39.2659283  36.3628697  46.7258120  41.2180281  36.8545938  46.2342501
  41.0159254  36.1679769  45.4121685  41.7152548  37.7378464  45.8333397
  42.1581745  36.0852671  47.2462368  43.1813812  35.9324598  46.9030094
  42.1020079  36.5528345  48.2292557  41.7073488  34.6559215  47.4984980
  40.8260059  34.0380573  46.8211555  42.3350334  34.0427661  48.3973169
  39.9159384  37.6601696  48.3052492  39.4319129  37.0174837  49.2196512
  40.4055166  38.8459730  48.5130739  40.6618977  39.3341923  47.6669025
  40.3998852  39.4969869  49.8094988  41.0059404  38.8401484  50.4334879
  41.2588120  40.8280087  49.8972607  40.6456137  41.6746044  49.5884466
  41.4239931  41.0426807  50.9530687  42.5725555  40.9622431  49.2134905
  43.2155228  40.0820446  48.6866665  42.9366779  42.1825504  49.1345882
  38.9887190  39.5159316  50.4643869  38.7730217  39.0658951  51.5947294
  38.0066586  39.9874902  49.6684742  38.2788444  40.3676987  48.7732315
  36.6001034  39.9794579  50.1060867  36.5111685  40.5875731  51.0062981
  35.7844996  40.7639265  49.0458345  35.8468032  40.1901913  48.1211472
  34.7118354  40.7622671  49.2394733  36.2348413  42.2298384  48.7342119
  37.2386980  42.2338581  48.3095312  35.3807116  42.7271509  47.6429653
  35.8753872  43.6166239  47.2527981  35.2017331  42.0177794  46.8349695
  34.4679499  43.0369902  48.1518555  36.2917376  43.0847645  50.0290871
  37.1054387  42.7500248  50.6724691  36.4314723  44.0866804  49.6232080
  35.3383255  43.2071161  50.5430269  36.0367656  38.5666180  50.4807043
  35.3087640  38.3860922  51.4599848  36.4663911  37.5458908  49.6887589
  36.9330883  37.7170730  48.8095617  36.1790037  36.1529064  50.0172472
  35.1051021  36.0773301  50.1879025  36.5230012  35.3112292  48.7967205
  35.9853244  35.6536627  47.9125595  37.5861788  35.4962230  48.6433268
  36.2221169  33.8704944  48.9109850  34.9288750  33.4628344  48.8637733
  34.1300201  34.1859245  48.7904644  34.6192431  32.0879388  48.7402773
  33.5862947  31.7783427  48.6805630  35.6947637  31.1434746  48.7156868
  35.5088019  30.0928760  48.5481787  37.0197392  31.5538335  48.8032103
  37.8409243  30.8524609  48.8148069  37.3018432  32.9723048  48.9099693
  38.3141160  33.3403587  48.9889717  36.8030453  35.6644559  51.3119459
  36.2109971  34.8236394  52.0157290  37.9614305  36.1612678  51.6894436
  38.3597445  36.7904162  51.0070801  38.6563611  35.8064342  52.9539013
  38.5249329  34.7282982  53.0458593  40.1357126  36.2096024  52.8113031
  40.5057621  36.1244154  51.7895842  40.0913000  37.2693086  53.0625916
  41.0658550  35.4100823  53.7062025  40.8799267  34.2316651  53.8965464
  42.1587181  35.9296274  54.2602730  42.7270269  35.4141378  54.9170828
  42.2557831  36.9327426  54.1936541  37.9506969  36.5576792  54.1781902
  37.8176641  35.9818482  55.2272797  37.4700570  37.7615523  53.9899683
  37.6312399  38.0320168  53.0302954  36.4917946  38.4660935  54.7844172
  37.0041680  38.7266660  55.7105255  36.2209415  39.8607731  54.2572498
  37.1849465  40.2831984  53.9737844  35.6589818  39.8689079  53.3233118
  35.3774762  40.7342815  55.2072668  35.9789300  41.4049292  56.2832642
  36.9945574  41.2880659  56.6314650  35.1809287  42.1774197  57.1247196
  35.7037354  42.5902653  57.9748011  33.7891102  42.3366880  56.8824387
  33.1927681  43.0355310  57.4502325  33.1905818  41.5892315  55.7996559
  32.1414661  41.7093086  55.5730677  34.0046072  40.8156776  54.9850750
  33.5700536  40.2286053  54.1895199  35.1825070  37.7037120  55.0954294
  34.7601438  37.6229930  56.2207842  34.7145367  36.9337344  54.1144371
  35.0253439  37.2921133  53.2227707  33.5562730  36.0109305  54.1059303
  32.9070139  36.4381981  54.8701286  32.8392005  36.0549569  52.7518749
  33.5037708  35.6419611  51.9930029  31.8780971  35.5792332  52.9469633
  32.4672151  37.7615738  52.3248863  33.6792278  38.0828476  51.8636894
  33.7506604  34.6012092  54.6266699  32.7717066  33.8409424  54.5159101
  34.9484992  34.2444372  55.0577497  35.7360888  34.8516083  54.8812532
  35.3468704  32.8467703  55.6152773  36.3706708  32.8516436  55.9893179
  34.4750643  32.5766611  56.8552208  33.4650326  32.2448945  56.6146612
  34.9305630  31.6977906  57.3115158  34.4481421  33.6212111  57.8465271
  35.3520060  33.6486530  58.1688261  35.3071880  31.7928696  54.5304728
  34.9804187  30.6086516  54.7916651  35.5902791  32.2119379  53.3338547
  35.6554365  33.2133317  53.2195568  35.8360195  31.4318824  52.0701027
  35.9394193  32.2217536  51.3261127  37.1953297  30.6393361  52.2309875
  37.2255850  30.1151276  53.1861782  37.2097373  29.8148823  51.5181255
  38.4287286  31.4696550  52.1006012  38.3778977  32.0049906  51.1524773
  38.2130075  32.1348000  52.9367542  39.7022605  30.7226944  52.0913744
  39.8162127  30.0459194  52.9381847  39.6818042  30.1074028  51.1918783
  40.7950020  31.7267227  52.1540642  41.0356426  32.1112156  53.0564833
  41.4015055  32.3785639  51.1270189  41.0476780  32.2151136  49.8984003
  40.5233288  31.4020443  49.6084404  41.4750433  32.7647519  49.1667175
  42.3455667  33.2417202  51.2937212  42.9582739  33.2406163  52.0966434
  42.6099968  33.7316585  50.4510260  34.6022224  30.5703402  51.7017841
  34.6502090  29.3481636  51.6960382  33.4777808  31.3343334  51.4463663
  33.5734391  32.3162842  51.6625452  32.1054077  30.9523702  51.1235905
  32.1372581  30.3698921  50.2028275  31.6061664  30.1120257  52.2618008
  32.0160127  29.1020513  52.2529030  31.7795014  30.6327033  53.2035780
  30.0650311  29.9340701  52.3953962  29.9021864  29.2853522  53.2560635
  29.6545768  30.9162998  52.6296043  29.3049002  29.3328357  51.2558889
  29.5293117  29.9719501  50.4019165  29.6275330  28.3072805  51.0763025
  27.9090047  29.2903996  51.5362692  27.6126575  29.4819832  52.4826193
  26.9128895  29.1298437  50.6255674  27.1707582  28.7057829  49.3919134
  28.0740738  28.4113097  49.0492630  26.3665700  28.7084126  48.7808657
  25.6999207  29.4668579  50.9306955  25.5385470  29.7559261  51.8848944
  24.9260116  29.3501663  50.2923012  31.2936902  32.2196770  50.9133148
  31.3189960  33.1724524  51.6930819  30.5521512  32.2706461  49.7970963
  30.7233024  31.5742016  49.0859222  29.5288944  33.2706237  49.4075060
  29.3367887  34.0173221  50.1779842  30.0206351  33.9539838  48.1507158
  30.0868440  33.2174349  47.3499584  29.2888761  34.6795559  47.7955055
  31.1964512  34.9404478  48.1569910  31.4783621  35.7749438  49.2205095
  30.8535075  35.7831502  50.1013613  32.5275278  36.7033577  49.0352154
  32.7373791  37.4533510  49.7834682  33.3404684  36.6734743  47.8741646
  34.1918826  37.3157477  47.7039242  32.9509163  35.9052205  46.8041468
  33.5268331  35.8760929  45.8909798  31.8796134  35.0936794  46.9500923
  31.6108179  34.5570302  46.0522318  28.1819725  32.6609945  49.0239859
  28.2165885  31.5980077  48.4315348  27.0854902  33.4454155  49.3304634
  27.3062611  34.2817616  49.8518848  25.7409906  33.1240845  48.8970709
  25.4307413  32.1870875  49.3595505  24.6498680  34.0543175  49.4128990
  23.7083721  33.8737178  48.8941669  24.5101070  33.9433122  50.9611559
  23.8943434  34.7435379  51.3717222  24.0058398  33.0054140  51.1938810
  25.4544544  34.0627527  51.4922285  24.9877834  35.3617716  49.1145229
  25.8440876  35.4652405  49.5359945  25.6444716  32.9932904  47.4114275
  26.2573552  33.6971045  46.5833902  24.8998499  31.9644976  46.9698668
  24.4878507  31.3505864  47.6579523  24.6200657  31.6988039  45.5453968
  25.5033374  31.3832998  44.9900627  23.5533929  30.6152248  45.4345131
  23.9534211  29.7721934  45.9978771  22.6913357  31.0022879  45.9777880
  23.0602908  30.3878593  43.9505816  22.3405695  29.5694780  43.9315701
  22.6430202  31.3115740  43.5496616  24.3050098  29.9494219  42.6218224
  25.0492358  28.3794928  43.2570648  25.5111098  28.6189747  44.2148876
  24.2371440  27.6534152  43.2947350  25.8437085  28.0432034  42.5908661
  24.1185164  32.9914737  44.8149347  24.5365953  33.2612419  43.7055540
  23.3378220  33.8189816  45.5115700  22.9329967  33.4043789  46.3388157
  22.8815699  35.1656866  45.0393057  22.3196220  35.1323938  44.1059208
  22.0941544  35.8826828  46.1799526  21.2470126  35.2336359  46.4017344
  22.7061844  36.0695982  47.0623255  21.5794754  37.3286462  45.7076979
  22.4510956  37.9811716  45.7585526  21.1178041  37.3251891  44.7203016
  20.5879354  37.9146075  46.7001724  19.7093272  37.2695470  46.7067671
  21.0236168  37.9371476  47.6990557  20.3263545  39.3609285  46.1809063
  21.2776041  39.8727655  46.0351467  19.9457431  39.2206359  45.1692009
  19.3905640  40.1105785  47.0558405  18.4405923  39.8389411  46.8463755
  19.5186377  39.9190879  48.0392170  19.4039905  41.1092949  46.9059086
  24.1250777  35.9821796  44.7299242  24.1394520  36.5534997  43.6711502
  25.0652075  36.1220884  45.6588602  25.0498939  35.3938866  46.3585711
  26.3468599  36.9392276  45.5235958  26.0877824  37.9801655  45.3301382
  27.2536564  37.0499945  46.7717695  27.3845196  36.0173631  47.0952606
  28.6499882  37.6386523  46.4838457  29.1238070  37.0991492  45.6637716
  28.4928083  38.6751127  46.1852741  29.3520355  37.5760484  47.3152924
  26.6362286  37.7500963  47.7459574  26.9168282  37.3734188  48.5832024
  27.1794391  36.4039040  44.3283176  27.6132441  37.2324276  43.5233641
  27.2808814  35.0715756  44.1943502  26.8366742  34.5369577  44.9271250
  27.7963567  34.4120550  42.9849434  28.8129497  34.7921944  42.8842640
  27.7921629  32.8796887  43.2063627  26.7461491  32.6614904  43.4216452
  28.1372571  32.0114303  41.9709063  29.2138100  31.9560337  41.8094587
  27.7321100  31.0149479  42.1469116  27.7734447  32.3111415  40.9880924
  28.6664128  32.5590849  44.4877768  28.5440278  33.2203388  45.3456020
  28.4509230  31.5131259  44.7060251  29.7344398  32.5152397  44.2744684
  27.1189499  34.8067760  41.7020750  27.7402782  35.2498627  40.7333040
  25.7723713  34.6244049  41.5768623  25.3067994  34.4293690  42.4516821
  24.8795795  35.0570512  40.4376745  25.1795459  34.4282937  39.5993519
  23.4498119  34.6700549  40.7559824  23.2292914  35.1558089  41.7065144
  22.8070855  35.1582098  40.0233793  23.2414150  33.1317759  40.8613253
  24.0454507  32.6913619  41.4509583  21.9812012  32.9593849  41.7008209
  21.1939931  33.4110665  41.0971737  21.7656851  31.9015288  41.8511534
  22.1438622  33.5415053  42.6078892  23.1207180  32.5208879  39.5021176
  22.1952224  32.6654577  38.9447498  23.9795351  32.7728057  38.8799667
  23.2084131  31.4548469  39.7117877  25.0560045  36.5137196  39.9850869
  25.3417683  36.7045569  38.8225913  24.9638629  37.4496436  40.9510612
  24.7123742  37.1342182  41.8769979  25.0957918  38.8842487  40.6840706
  24.5469999  39.1842747  39.7913647  24.6490932  39.6878672  41.8910599
  25.1297116  39.3693924  42.8160906  24.9659181  40.6855392  41.5871334
  23.1314301  39.6248341  42.1509600  22.5912213  39.5063448  41.2116861
  22.8668833  38.7926555  42.8033352  22.5598645  41.1817980  42.9325390
  23.3988237  41.2102985  44.5101452  23.2629251  40.2492619  45.0061703
  24.4419551  41.4983416  44.3797302  22.9183793  41.9278526  45.1752710
  26.5685868  39.2564774  40.1477480  26.6771412  39.9982262  39.1401720
  27.5803685  38.5984111  40.7647038  27.4832010  37.9446387  41.5284061
  28.9881921  38.6742616  40.2244711  29.2171240  39.7217679  40.0284624
  29.9103761  38.1861591  41.3583469  29.4311643  37.2716618  41.7078543
  30.8896184  37.9017472  40.9732437  30.0824022  39.1021228  42.6058722
  29.1194749  39.4914031  42.9365206  30.9742141  38.3901811  43.6396122
  31.8817496  38.1631112  43.0802202  31.1913013  38.9818382  44.5289469
  30.6034160  37.4655104  44.0818691  30.9139466  40.3021383  42.2708368
  30.8394504  40.9775114  43.1231403  31.9567561  39.9908018  42.2098780
  30.5274868  40.7437181  41.3522768  29.2177224  38.0462408  38.8614583
  29.9364352  38.6292672  38.0687523  28.6135483  36.9273663  38.4889197
  28.0081344  36.5351176  39.1958261  28.7207842  36.3291597  37.1734834
  29.7131419  35.8803654  37.1297503  27.7373028  35.1391053  37.1045184
  27.7181220  34.5184684  38.0003643  26.7186117  35.5054355  36.9773316
  27.8752828  34.5719433  36.1839795  28.5333800  37.3573613  36.0527444
  29.2909360  37.3615909  35.1073551  27.4396467  38.0826783  36.0511804
  26.9799423  38.0109501  36.9476318  27.0497251  39.0214825  35.0511289
  26.8029118  38.4484768  34.1573453  25.7289505  39.6942997  35.5261493
  24.9099374  38.9752817  35.5443883  25.8591342  39.9971437  36.5651107
  25.3409529  40.8459759  34.5620036  25.5405259  41.9755793  34.9704218
  24.9097371  40.5293798  33.3998680  28.0928040  40.0788927  34.7551060
  28.6069942  40.2489328  33.6964989  28.6153984  40.7059097  35.7748890
  28.1555080  40.5797243  36.6652155  29.7009516  41.7047405  35.6846213
  29.5782900  42.4743176  34.9225140  29.9705672  42.3885870  37.0617962
  30.1378465  41.6135645  37.8097677  30.9236240  42.9148436  37.0085573
  28.8586783  43.3648729  37.4734688  28.4765983  43.8383961  36.5690923
  28.0001736  42.8704929  37.9280591  29.2130160  44.5331573  38.3735633
  30.1895452  45.2604151  38.1692481  28.5560012  44.6921015  39.5026445
  28.9006853  45.3419876  40.1947021  27.7752519  44.0911341  39.7248316
  30.9639025  40.9848356  35.2322555  31.7097592  41.5273523  34.3841434
  31.2945652  39.7899246  35.7792616  30.5975056  39.2711496  36.2941241
  32.5421667  39.1026354  35.2904725  33.3920312  39.7602606  35.4731131
  32.7598763  37.7487350  36.0646725  31.8221164  37.1945810  36.0244322
  33.5041428  37.0712900  35.6460571  32.9745984  38.0518198  37.5283241
  33.9779592  38.4632635  37.6382637  32.2800493  38.8303781  37.8438401
  32.7059412  36.6475368  38.6242867  33.9100838  37.1047068  39.8941302
  33.7343287  36.4617085  40.7565498  34.9177814  36.9352531  39.5147491
  33.7409186  38.1349492  40.2073145  32.4536157  38.8174295  33.7438607
  33.3734250  39.0148020  32.9652214  31.3348794  38.1929302  33.3234310
  30.7091784  37.8826594  34.0530419  31.0861421  37.9398727  31.9151545
  31.9030976  37.2671604  31.6541195  29.7921348  37.0874882  31.7138028
  29.0402389  37.6114130  32.3039365  29.3956971  36.9719338  30.2103019
  30.3188515  36.8286109  29.6487403  28.6101723  36.2249565  30.0959349
  29.0185142  37.9698372  29.9866414  30.0239778  35.7238245  32.3170757
  30.8865762  35.2351928  31.8640161  30.1596498  35.8928490  33.3853102
  28.8127041  34.6931791  32.2697020  27.9010057  35.1990080  32.5875878
  28.6030698  34.1643977  31.3398910  28.9628077  33.9884901  33.0876160
  31.1835384  39.2286658  31.0824919  31.8082023  39.2020893  29.9772406
  30.5841684  40.3390980  31.5012836  29.8566270  40.3660250  32.2013259
  30.8624291  41.6216850  30.8634400  30.5178738  41.5451670  29.8321652
  30.0319958  42.7562284  31.4644384  30.5132461  43.0068588  32.4097848
  29.9128294  43.6240673  30.8157825  28.6919880  42.2495270  31.7463708
  28.3111334  42.6355457  32.5385451  32.3108101  42.0016432  30.7218862
  32.6454473  42.5030899  29.6408463  33.2014632  41.7256832  31.7117572
  32.8395176  41.2574244  32.5301886  34.5896721  42.0282888  31.5220976
  34.6235871  43.0337381  31.1025453  35.4109025  42.0581865  32.7796865
  35.5231643  41.0377502  33.1460428  36.4357924  42.3310232  32.5281692
  34.9059558  43.0142927  33.9300919  33.8811779  42.8186131  34.2457557
  35.5550098  42.7945805  34.7777653  35.0123763  44.5546150  33.5508370
  35.3385949  45.1649141  34.3929887  35.7770371  44.7219515  32.7922869
  33.7261963  45.1051235  32.9458141  33.7565637  45.2127075  31.9420171
  32.8044653  45.6934357  33.6700106  32.7710819  45.8097410  34.9854302
  33.5664463  45.6784868  35.5939269  31.9073868  45.9970379  35.4743552
  31.6567421  46.1268234  33.1749988  31.5618849  45.8979845  32.1958494
  30.8510995  46.4649057  33.6816978  35.2502513  41.1759853  30.4160786
  35.9449935  41.7011023  29.5426321  35.1269197  39.8784375  30.3634334
  34.5034838  39.4289279  31.0186982  35.7175040  38.9638066  29.3113136
  36.7407084  39.3060541  29.1563177  35.8301687  37.4659395  29.7883201
  36.2827826  36.7415762  29.1111636  36.6954994  37.4436665  31.0273337
  36.3368225  38.0358434  31.8692231  37.0289707  36.4609027  31.3606143
  37.6755428  37.8419423  30.7646751  34.4151425  36.9074941  29.9089313
  33.8837481  37.6160812  30.5442500  33.9352727  36.8866301  28.9304686
  34.4455767  35.5249882  30.6328607  34.5749021  35.8083510  31.6774082
  33.5367775  34.9596834  30.4264188  35.2454066  34.8777986  30.2729797
  34.9417615  39.1976380  27.9885006  35.4656363  38.9695334  26.9307375
  33.6458182  39.6178508  27.9539824  33.1226921  39.4617176  28.8037276
  32.8942227  39.9987769  26.7488813  33.0209398  39.0832543  26.1710763
  31.4379120  40.2479935  27.0211315  31.0305238  39.4840169  27.6833057
  31.2883782  41.2019682  27.5267744  30.7070231  40.2918768  25.6355524
  31.0426927  41.0606146  24.9395156  30.7931519  39.3132472  25.1633573
  29.2405248  40.6422663  25.8724546  28.7099028  40.4503536  26.9672203
  28.5685849  40.9425354  24.8376393  33.6592555  41.1343527  25.9942532
  34.0083957  40.9057617  24.8310518  33.9060521  42.2349024  26.7169785
  33.5291910  42.1857500  27.6527452  34.5881963  43.4237099  26.2223387
  34.0218711  43.7723351  25.3587174  34.5088458  44.4734049  27.3075604
  33.4535575  44.7462749  27.3041105  34.8235130  44.0468454  28.2599926
  35.3605556  45.6912470  27.0120549  34.8587418  46.5769815  26.0426807
  33.9306784  46.3400984  25.5436945  35.5529809  47.7897072  25.7548904
  35.1476407  48.4724998  25.0228405  36.7819595  48.0980873  26.3730001
  37.3582602  49.2780256  26.0329795  38.0434012  49.5653820  26.6409302
  37.2820330  47.2206116  27.3741150  38.2272696  47.3569107  27.8784466
  36.5346789  46.0869455  27.7199006  36.9219065  45.5321836  28.5617399
  35.9978414  43.0800962  25.7431006  36.4041018  43.5290623  24.6231961
  36.7963910  42.3626137  26.5732813  36.4658952  42.1330118  27.4996495
  38.0779052  41.7708969  26.1259127  38.7802625  42.5615931  25.8620858
  38.7181187  40.8817053  27.2545433  37.9149270  40.2585125  27.6477551
  39.9524713  40.0143194  26.9062138  39.6577120  39.2235065  26.2164140
  40.6938744  40.6875038  26.4758205  40.4103470  39.6015120  27.8051281
  39.1058803  41.7652655  28.4287882  39.1549492  41.1273909  29.3112874
  39.9553585  42.3928452  28.1592774  38.2600522  42.4406433  28.5573864
  38.0299258  40.9442711  24.8484898  38.9170718  41.1381340  23.9920521
  37.0684123  40.0161505  24.6208930  36.3699293  39.9634528  25.3485227
  37.0260906  39.2236185  23.3905244  38.0265546  38.8329458  23.2046604
  35.9725547  38.0745554  23.5724282  35.0792265  38.5996294  23.9105988
  35.8369422  37.5363350  22.6343322  36.2402344  37.0138907  24.6363473
  35.2481294  36.0944676  25.0690866  35.7780576  35.4165530  26.0863614
  35.2272844  34.6798372  26.6523194  37.0250249  35.8014441  26.3106489
  37.6864934  35.4926133  27.0086336  37.3659658  36.7491126  25.3774786
  38.3648586  37.1596217  25.3670692  36.5572119  40.1553631  22.3061728
  37.1105933  40.0380850  21.2268305  35.6490779  41.1065674  22.5285339
  35.3309846  41.1888170  23.4836054  35.3284955  42.1213055  21.5991569
  35.1724195  41.6545773  20.6265807  34.1727567  42.9918814  22.0525146
  34.5234752  43.7447309  22.7584267  33.3850837  43.7408876  20.9012008
  32.5234818  44.3152142  21.2416244  34.0449953  44.4950438  20.4723930
  33.2345939  43.0473804  20.0738525  33.1758022  42.3234510  22.7370429
  33.6488390  41.9603491  23.4893703  36.5096498  43.0138874  21.2824225
  36.4621258  43.7080479  20.2304673  37.6063585  43.0021811  22.0020390
  37.6338196  42.4689722  22.8593826  38.9043188  43.6916351  21.5801239
  38.7566662  44.4964123  20.8599639  39.4294763  44.3564892  22.8193521
  39.3278432  43.6513186  23.6442780  40.5088472  44.4577599  22.7061987
  38.8411641  45.6700182  23.3949757  37.7914572  45.7352018  23.1086731
  38.8622928  45.6381750  24.4843078  39.5041418  46.9568682  22.8735423
  40.5897331  46.8771124  22.9304695  39.2283249  46.9853783  21.8194008
  38.9102411  48.1488180  23.5904384  37.8224921  48.2149172  23.6135674
  39.2859554  48.2941103  24.6032715  39.4367361  49.2931175  22.8263140
  40.3962040  49.5444489  23.0169749  39.4460440  49.2338324  21.8180990
  38.9724970  50.1881266  22.8857899  39.9996686  42.8220367  20.9293723
  41.0887146  43.2985544  20.7179141  39.5901871  41.5612268  20.6223845
  38.6363196  41.2845278  20.8058882  40.3582430  40.5489731  19.8785329
  39.6341777  39.7760725  19.6207416  40.9875536  41.2098026  18.6267447
  41.6142321  42.0662165  18.8756025  41.5826654  40.5034065  18.0480015
  39.8906827  41.8403101  17.7392399  38.9545584  41.2129164  17.3246658
  40.0645733  43.1323385  17.4772120  39.2885995  43.5696650  17.0010698
  40.6302595  43.6507034  18.1340194  41.3792753  39.7794604  20.7499075
  42.2408676  39.1839743  20.1001048  41.3460875  39.8075843  22.0728397
  40.5244589  40.2190304  22.4920607  42.1813583  39.0115237  22.9704738
  42.7336025  38.2968807  22.3602200  43.1704569  39.8182964  23.7638569
  42.6701927  40.6086159  24.3235278  43.7423277  39.2359781  24.4863296
  44.1650867  40.6576824  23.0175328  43.8780880  41.7794228  22.1574616
  42.8619528  42.0961189  21.9742179  44.8970079  42.3984861  21.3924670
  44.6926594  43.1009102  20.5979586  46.2271690  42.0739412  21.6008019
  47.0320368  42.5133848  21.0302949  46.5523338  41.0464621  22.5700283
  47.5555801  40.7012749  22.7718925  45.5086708  40.3533697  23.2365036
  45.7837439  39.5909882  23.9503026  41.2987423  38.1223035  23.8488364
  40.0786495  38.2280350  23.9363766  42.0098639  37.2030902  24.4848704
  42.9956007  37.2027850  24.2648125  41.4735556  36.2261868  25.4838490
  40.5406761  36.5166640  25.9670258  41.3006210  34.8325133  24.8064041
  41.0658550  34.2054343  25.6664944  40.0810862  34.8058081  23.8224339
  39.7884440  33.7624884  23.7043524  39.2478323  35.4158282  24.1712451
  40.3399467  35.2806902  22.8760839  42.5883532  34.2746520  24.1744971
  42.7912188  34.8474884  23.2696152  43.3229685  34.2804027  24.9797344
  42.6037121  32.8056860  23.6307025  43.5989809  32.3614240  23.6177015
  42.0129681  32.1928573  24.3115592  41.9924307  32.7089524  22.7334404
  42.4700356  36.1849356  26.6203427  43.6658287  36.2471890  26.3912916
  42.0515633  36.0596538  27.8887582  41.1164808  35.6945848  28.0003119
  42.8755856  36.2148190  29.0640521  43.5184813  37.0921016  28.9922071
  41.8785810  36.5150809  30.2380776  41.1519670  37.2914028  29.9983883
  41.2972260  35.6646991  30.5944204  42.6351166  37.0253110  31.4355397
  43.4622669  36.1620855  32.2333193  43.8932514  36.9954014  33.2334208
  44.4372272  36.5714240  34.0645289  43.3552265  38.2438707  33.1616664
  43.5360813  38.9012456  33.9068174  42.5829172  38.2398796  32.0232987
  41.9371605  39.0271068  31.6631985  43.7590456  34.9615526  29.3303585
  44.9392557  35.1819396  29.5196056  43.1346989  33.8178349  29.5174026
  42.1300316  33.8888335  29.5928979  43.7033081  32.4821067  29.7586417
  42.8630495  31.8240976  29.5370555  44.8036289  32.0968747  28.7624383
  45.7920885  32.5198770  28.9416385  44.9677324  31.0231090  28.8529491
  44.4244051  32.4098539  27.3136902  43.3832455  32.1338868  27.1465635
  44.6150780  33.4805775  27.2408986  45.3376818  31.6303778  26.3601303
  45.3653049  30.5893302  26.6819310  44.8850298  31.7206001  25.3726745
  46.7183256  32.1591997  26.4656639  46.8032312  33.1378651  26.7004251
  47.7967834  31.5216565  26.1227250  47.7647686  30.3434086  25.6425118
  47.0344782  29.6891689  25.8848977  48.6374521  30.0009227  25.2667069
  48.9041185  32.1817780  25.9950447  48.8872147  33.1667304  26.2179446
  49.7674465  31.6965532  25.7967567  44.0780544  32.0990515  31.1355591
  43.6587906  31.0030103  31.5328836  44.8100615  32.8868175  31.8583703
  45.1094294  33.7638474  31.4567518  45.1047850  32.6643848  33.2738543
  45.0112295  31.5935731  33.4547114  46.5011168  33.1417203  33.5727906
  47.0555353  32.8758788  32.6727605  46.3982773  34.2117405  33.7532902
  47.0750570  32.3913741  34.8852754  46.6732597  31.2865758  35.2657294
  48.0262995  32.9618526  35.4981041  44.0403986  33.3750463  34.1795421
  44.4611073  34.1222692  35.0751066  42.7610445  33.0642486  34.0207505
  42.3975039  32.4188852  33.3341312  41.7481709  33.6276698  34.9363589
  42.0110512  34.6801829  35.0422359  40.4152155  33.5037565  34.1770959
  40.4094601  32.4744725  33.8184309  39.1990137  33.5495281  35.0961876
  38.3222318  33.2754850  34.5094562  39.1238713  32.8478527  35.9269142
  38.9922476  34.5390916  35.5037594  40.3442335  34.4893336  33.0132222
  40.5082083  35.4842806  33.4271049  41.1067247  34.2217016  32.2817326
  38.9429808  34.4377065  32.3786497  38.8649702  35.0338984  31.4694834
  38.6017704  33.4255934  32.1611643  38.2494974  35.0568318  32.9477406
  41.7249584  32.9634595  36.3532162  41.5147972  31.7328572  36.3995075
  41.8915510  33.7203121  37.4692655  42.1429682  34.6782446  37.2711301
  41.8176174  33.1961203  38.8088942  41.6028881  32.1278763  38.7798119
  43.1632614  33.5191202  39.5134354  43.2861614  34.6008420  39.4598126
  43.0340910  33.1966043  40.5465841  44.2825651  32.6252484  38.7941813
  44.2188406  31.6148233  39.1980147  44.2772198  32.7789259  37.7150822
  45.6291723  33.1368589  39.2586589  45.7243729  33.1597400  40.3442526
  46.4098692  32.4526429  38.9263034  46.0093260  34.5430446  38.7182331
  45.2614355  35.2198482  39.1313887  47.0004797  34.8106098  39.0844560
  46.0664845  34.4984388  37.1760106  46.7505980  33.8208437  36.8711352
  45.1974535  34.4306707  36.6658211  46.3139725  35.4201722  36.8454719
  40.6641436  33.9009833  39.5287943  40.1669502  34.9150848  39.0182829
  40.2838755  33.4652495  40.7714415  40.6449366  32.2808528  41.4824247
  41.5872908  32.3366237  42.0273590  40.7240391  31.4062953  40.8366728
  39.4775915  32.0704532  42.4568033  39.8346162  31.5007305  43.3147383
  38.7086987  31.5450120  41.8903971  38.9828682  33.4544849  42.7637482
  39.4067025  33.9241767  43.6513615  37.9038692  33.3887672  42.9035473
  39.2922902  34.3291521  41.4719963  38.3579063  34.6114469  40.9868813
  39.9177313  35.7322526  41.7778683  39.1632128  36.6933656  41.9018173
  41.2009048  35.7953906  41.8694162  41.6942120  34.9168587  41.9396448
  42.0452070  36.9870043  42.1408796  41.4985514  37.6638961  42.7974606
  43.2707310  36.5581918  42.9991722  43.8100195  37.4516368  43.3138514
  42.8716230  36.0308719  43.8656282  44.1988516  35.5428267  42.2541332
  45.0132275  35.9276128  41.3958883  43.9867115  34.3260288  42.4880838
  42.4004793  37.8361416  40.9471941  43.1080151  38.8504958  41.0778761
  41.9720554  37.5032783  39.7450781  41.4463520  36.6500974  39.6193051
  41.9274235  38.4840488  38.6699939  42.8761292  39.0206218  38.6823916
  41.8500566  37.7962255  37.2777367  41.0722876  37.0335770  37.2384977
  41.6357708  38.4876156  36.4627790  43.0935049  37.0802855  36.9050193
  43.3764076  35.9710073  37.3194289  44.0531921  37.7953243  36.3836336
  45.0024652  37.4563026  36.3200092  43.8458204  38.7779307  36.2760282
  40.7605362  39.4836235  38.7834287  40.7848310  40.5087709  38.0892801
  39.7510695  39.2654920  39.6411657  39.7528315  38.3593774  40.0873184
  38.5934520  40.1377630  39.8860168  38.6182427  40.8073282  39.0262651
  37.2847605  39.3632698  39.7890544  37.3332953  38.5299706  40.4900217
  36.5157986  40.1236677  39.9253869  37.1068287  38.6994290  38.4336615
  36.7912340  39.4437385  37.2894979  36.6764808  40.5155754  37.3557973
  36.5272188  38.8034105  36.0865355  36.1580491  39.3967652  35.2631021
  36.7981577  37.4547291  35.9392357  36.7946768  37.0609212  34.9335980
  37.1907234  36.6791725  37.0681071  37.3177171  35.6124949  36.9564176
  37.3256969  37.2853160  38.3273625  37.4670863  36.6313338  39.1751337
  38.6967278  41.0288477  41.1476946  39.2746282  40.5790997  42.1286821
  38.1223965  42.2335863  41.1453915  37.6520228  42.4300003  40.2734566
  38.3599615  43.3113670  42.0758390  38.5651994  43.0651855  43.1176519
  39.5896959  44.0258932  41.5474701  40.3229046  43.2433033  41.3523817
  39.3785095  44.4887829  40.5835056  40.2609825  45.1046038  42.4264431
  40.0076008  44.8671436  43.4596491  41.7776918  45.2105188  42.2290993
  41.8799734  45.5056000  41.1847925  42.2559166  45.8885336  42.9359913
  42.2112417  44.2275095  42.4130058  39.4960999  46.4123583  42.1530247
  38.4158778  46.3456106  42.2825527  39.8695421  47.1475506  42.8658581
  39.7295117  46.6473436  41.1145639  37.1154737  44.1496468  42.1301317
  36.5030861  44.2882919  41.0364628  36.7874312  44.8142481  43.2227468
  37.4653292  44.8078108  43.9714241  35.7171369  45.8588362  43.2620859
  35.1549745  45.9004498  42.3291683  34.7728252  45.4707813  44.3785048
  35.2355146  45.5806398  45.3592968  34.0280581  46.2523508  44.5287418
  34.1938138  44.1105795  44.3570900  34.9767733  43.3553362  44.2886209
  33.6399770  44.0375042  45.2930546  33.2383776  43.5055304  42.9266834
  31.6793823  44.4376469  43.0711985  31.0778546  44.1617966  43.9373302
  31.8583941  45.5006599  43.2326126  31.1277556  44.3948412  42.1320629
  36.2826610  47.2445440  43.5316181  37.3218179  47.5311089  44.1440201
  35.5081892  48.2336426  43.1178570  34.8904967  47.9623175  42.3662329
  35.4794741  49.6054316  43.5729313  36.4931941  49.9962473  43.4849548
  34.8311090  50.1553440  42.8907871  34.9874544  49.8053885  45.0325346
  34.2842054  48.9331865  45.6395006  35.2703905  50.9161663  45.6401777
  35.7269645  51.6198874  45.0776625  34.8659253  51.3404799  47.0026636
  34.1365027  50.5832624  47.2901821  36.0817528  51.3371801  47.9917574
  36.8604016  51.9668770  47.5613070  35.9073067  52.0993519  49.3886566
  36.8519592  52.0743084  49.9318933  35.7251740  53.1605244  49.2188168
  35.2049923  51.6422081  50.0857019  36.7566347  49.9468279  48.0861616
  36.9541788  49.5229626  47.1015739  37.6745844  50.0361013  48.6671162
  35.8628559  48.9232206  48.8958836  35.3190804  49.3831444  49.7210360
  35.0304008  48.6044407  48.2685852  36.4825964  48.1611300  49.3683720
  34.2119765  52.7687216  46.7946768  34.2676449  53.3281183  45.7606888
  33.3710051  53.2172251  47.7008963  33.2699585  52.6613283  48.5380745
  32.7025795  54.5046902  47.8127670  32.0898342  54.5585823  48.7126255
  33.4917665  55.2555943  47.8505182  31.8685532  54.8120356  46.6149855
  30.9313035  54.0597105  46.2947369  32.3184419  55.8388138  45.9093475
  33.0406260  56.4572763  46.2500095  31.6380000  56.2297297  44.6725845
  30.6091261  56.4763880  44.9346495  32.3777008  57.4261761  44.0189886
  33.4545588  57.3006868  44.1318274  31.9691133  57.6313829  43.0295229
  32.1355367  58.7400198  44.8380470  31.0751081  58.8555002  45.0622368
  32.6330948  58.5674000  45.7923746  32.6856065  59.9688148  44.0606213
  32.2337294  60.0872135  43.0757904  32.4440765  60.8289289  44.6850967
  34.1179824  59.9011040  43.9447451  34.5366526  60.0213480  44.8559809
  34.9514699  59.6746683  42.9247808  34.6412873  59.5776415  41.6346693
  33.6578226  59.5323324  41.4091778  35.4082870  59.4859028  40.9839773
  36.1760616  59.5878029  43.2188654  36.3254142  59.5880747  44.2177629
  36.8769002  59.5097208  42.4957895  31.5345526  55.1312637  43.6136627
  30.7405019  55.2370214  42.6876640  32.3664355  54.0564537  43.7134600
  32.9146981  54.0572309  44.5616961  32.4370766  52.8856659  42.8173256
  31.6816640  53.0001926  42.0399332  33.7658453  52.9913235  42.1076775
  34.5959210  53.3214331  42.7322578  34.0221667  52.0095110  41.7096233
  33.6467981  53.9822292  40.9507751  32.7055192  54.1448069  39.9813199
  33.1167936  55.0976086  39.1490889  32.5443363  55.4059076  38.2867360
  34.2632079  55.6482792  39.5851970  34.7453213  56.4395332  39.1832209
  34.7349405  54.8346519  40.6254196  35.6488824  54.8983288  41.1973095
  32.1196032  51.5927839  43.6076450  32.5697017  50.5481148  43.1513214
  31.4254999  51.5975237  44.7747707  31.1643410  52.4838352  45.1826334
  31.1398387  50.4107523  45.6943417  32.0436978  50.2418852  46.2796926
  29.9567032  50.7540703  46.6449213  30.1600862  51.7431927  47.0552540
  29.0693951  50.6572962  46.0192776  29.9378061  49.6587181  48.1045198
  29.0241742  48.8687992  47.5333691  30.6714249  49.1700792  44.9707317
  30.7134581  48.1449938  45.6088829  30.1394057  49.1866255  43.7338543
  29.9456024  50.0780201  43.3003092  29.4988942  48.0416059  43.0803347
  29.5462370  47.1594143  43.7187767  27.9873180  48.4340048  42.7767897
  27.9523683  49.2435741  42.0477533  27.3797011  47.5633621  42.5300407
  27.2068834  48.9894295  43.9543056  27.2854471  48.5381174  45.0801611
  26.4406085  50.0764990  43.7840366  25.8482194  50.2756834  44.5774508
  26.3682580  50.5754280  42.9088593  30.1656246  47.6768970  41.7899609
  29.6336293  46.7464590  41.0765791  31.2661123  48.3305359  41.4735317
  31.5855455  49.0219736  42.1368408  31.7803359  48.2057190  40.1382017
  30.9365916  47.8888130  39.5252037  32.3311710  49.5766878  39.6087289
  31.5583062  50.3387928  39.5088172  32.9830670  49.8612547  40.4346561
  33.0831480  49.5353460  38.2649827  33.8824892  48.7962198  38.3183336
  32.4873018  49.1086292  37.4581480  33.6327744  50.8588552  37.7463984
  34.2005944  51.2576151  38.5870361  34.3442869  50.5873013  36.9665837
  32.5240564  51.7849302  37.3289371  31.8509436  51.2177706  36.6860151
  31.9794822  51.9877911  38.2510996  33.0091333  53.0059481  36.5594840
  32.2777295  53.7022305  36.5782142  33.7016559  53.5410929  37.0635986
  33.3236456  52.8160620  35.6186724  32.8671813  47.0680618  40.2359152
  33.8160944  47.3276138  41.0072565  32.6521111  45.9091997  39.6076131
  31.7212558  45.7661104  39.2427349  33.7020683  44.9217653  39.4579744
  34.2124200  44.8339462  40.4171038  32.9988980  43.5733604  39.1692114
  32.3941350  43.3508968  40.0483418  32.3636627  43.7783194  38.3074880
  33.9322686  42.4142504  38.8711667  34.9604988  42.6675367  39.1294050
  33.4840441  41.1579561  39.6050787  34.1673136  40.3522635  39.3365550
  33.6774731  41.2556076  40.6733274  32.4349308  40.8822298  39.4981503
  33.9079070  42.2240019  37.3538208  34.6859550  41.5539074  36.9881487
  32.9166818  41.9735670  36.9758630  34.1419387  43.1701374  36.8658066
  34.6929502  45.4086494  38.2882333  34.2799306  46.0113287  37.2955537
  35.9681249  45.0476599  38.4121513  36.1427665  44.5674324  39.2833495
  37.0888996  45.2044821  37.4508381  36.6715312  45.7240009  36.5882826
  38.1537962  46.2162113  38.0382180  38.4276342  45.7519054  38.9855981
  39.0961480  46.3034201  37.4974132  37.6916981  47.6465797  38.3817673
  36.7170310  47.8519726  39.4364977  36.3569880  46.9765902  39.9565697
  36.3125849  49.0907478  39.8405695  35.5750394  49.1899395  40.6232500
  36.9610310  50.2653456  39.3096972  36.6215968  51.2135029  39.6998000
  37.9356360  50.1112318  38.3020926  38.4273553  50.9843874  37.8993416
  38.3124495  48.8235235  37.8284431  39.1787505  48.8588619  37.1844912
  37.7276397  43.8629961  37.0332050  37.7010417  42.9307079  37.7936697
  38.3552790  43.8676786  35.8877397  38.1719923  44.6121550  35.2302742
  39.3573165  42.8296041  35.5027032  39.3999410  41.9968748  36.2047338
  38.7995076  42.0713568  34.2579007  37.8220487  41.6674757  34.5216274
  38.5624790  42.8025675  33.4850812  39.6170473  40.9358311  33.6791945
  40.6325769  41.2856007  33.4935474  39.7376752  39.8368001  34.6548200
  40.2932453  40.1492977  35.5390143  38.7235332  39.5228672  34.9019265
  40.1644421  38.9163041  34.2565036  39.0067577  40.4771948  32.4060488
  38.5455942  41.3285255  31.9053864  39.7113419  39.9728060  31.7447972
  38.1477022  39.8442268  32.6284766  40.8257389  43.3214760  35.3048849
  41.1500978  44.0925360  34.4000888  41.7681026  42.7175999  36.0583162
  41.4733839  42.0823956  36.7861605  43.2561684  42.9758120  36.0118365
  43.4056139  43.5181952  35.0782490  43.6237001  43.8446856  37.2782135
  44.6651602  44.1328764  37.1353579  42.9505920  45.1771355  37.0762706
  43.2038450  45.8833361  37.8670001  43.0260038  45.6948566  36.1200380
  41.8773890  45.0368834  37.2053552  43.4316778  43.1935644  38.7008214
  43.3597374  44.0366030  39.3879986  42.4646568  42.7010918  38.8029718
  44.4766569  42.1726799  39.1876245  45.4949856  42.4999666  38.9778900
  44.4854593  42.0040178  40.2644634  44.2535496  41.1913919  38.7688208
  44.1569042  41.7735386  35.9535170  43.6460686  40.6604528  36.0843468
  45.4337788  41.9949436  35.6059361  45.8420753  42.9129696  35.7090139
  46.5437317  41.0331774  35.5241299  47.3822021  41.6352797  35.1740742
  46.8748617  40.4345465  36.9177794  46.7539692  41.1300993  37.7482533
  46.1583805  39.6186566  37.0131063  48.2270861  39.7879696  36.9846034
  48.6988068  39.6824145  38.1751084  48.7751532  39.5090628  35.8985996
  46.4397097  40.0877666  34.3368888  46.2081766  38.8820171  34.4564795
  46.7306805  40.6488228  33.1197238  46.9923878  41.6215372  33.1935501
  46.6602516  40.0133944  31.7879653  45.9414768  39.2053914  31.9243169
  46.0951757  40.8908939  30.6947517  46.7091608  41.7908621  30.6604719
  46.3337326  40.3641033  29.7708011  44.6582747  41.4373922  30.8838248
  44.4160557  42.3834276  31.8935037  45.1419258  42.8595924  32.5359797
  43.1179953  42.8465462  32.1021795  42.8466034  43.6099482  32.8162956
  42.1057987  42.3469448  31.2546229  41.1425066  42.8217125  31.3688922
  42.3515320  41.4151430  30.2619791  41.5230322  41.0672808  29.6628284
  43.6580038  40.8998108  30.1244164  43.9238882  40.1393318  29.4051242
  47.9383183  39.3269110  31.3999367  48.3873606  39.2703795  30.2514791
  48.6041641  38.7398767  32.3565841  48.1737089  38.7490463  33.2702160
  49.8726702  37.9940271  32.1670079  50.6469488  38.7359428  31.9716787
  50.1876354  37.5412655  33.1071711  49.9815989  36.8559694  31.1420417
  51.0559368  36.5677166  30.7053709  48.8415098  36.2149215  30.7844973
  47.9335928  36.3283515  31.2121868  48.8842630  35.0444841  29.8255777
  49.9051094  34.8735809  29.4838619  48.5320711  33.8196826  30.6170607
  48.9861870  33.9081311  31.6040015  47.4562073  33.7433386  30.7744956
  48.8466454  32.4589729  29.9017596  48.2819939  32.3789883  28.9728498
  50.3268909  32.1264958  29.6378493  50.8518362  32.2198486  30.5885458
  50.4345274  31.0809731  29.3490553  50.6576967  32.8011394  28.8482141
  48.3976984  31.3416719  30.7838464  47.3900175  31.3753963  31.1980200
  48.3502197  30.4286695  30.1903200  49.1197538  31.2531042  31.5955687
  48.1115484  35.2760673  28.4977126  47.7738333  34.4399905  27.6922989
  47.5946999  36.5193415  28.4020376  47.9667759  37.2363424  29.0083146
  46.6567516  36.9147515  27.3472190  45.8546114  36.1768460  27.3603630
  46.0405636  38.2583070  27.6828742  46.8215370  38.9555955  27.9861522
  45.4381084  38.6476445  26.8621659  45.4233313  38.1728339  28.5772014
  47.2946310  36.9232893  25.9211731  48.4402990  37.3069978  25.7429385
  46.4824581  36.5335512  24.9682307  45.5282497  36.2904882  25.1929688
  46.9282532  36.4905953  23.5796571  47.7773905  37.1672940  23.4840488
  47.4832630  35.1461649  23.1452441  47.9275942  35.3406119  22.1690965
  48.3118820  34.8458767  23.7865877  46.4077616  33.9990044  23.1580234
  46.0336208  33.8044310  24.1631413  45.6217813  34.2344165  22.4404383
  46.8999290  32.6778412  22.5898075  47.1357489  32.8970933  21.5484524
  47.8511667  32.3163271  22.9803848  45.8750868  31.5199804  22.6325893
  45.6441021  31.4506888  23.6955786  44.9664021  31.6556430  22.0460892
  46.4595652  30.2417588  22.2712874  46.8641567  29.7244263  23.0386019
  45.6994677  29.6711946  21.9295049  47.1878910  30.2992392  21.5739131
  45.8508444  37.0307970  22.5871515  44.6598005  36.8377113  22.7846456
  46.3639021  37.4931598  21.4567327  47.3608351  37.6016283  21.3364697
  45.4228592  37.8638029  20.3278971  44.6456146  38.4706092  20.7924151
  45.9729290  38.8951898  19.3023229  46.4142275  39.7633219  19.7919190
  46.6896677  38.2815838  18.7565541  45.0847769  39.5412612  18.2434165
  44.4860363  38.8086963  17.7021623  44.2624474  40.1493359  18.6204112
  45.8988047  40.3576136  17.1868503  46.1395264  41.2467337  17.7696157
  46.8157196  39.8256636  16.9330812  45.0368214  40.6531858  15.9570169
  44.6409798  39.6931767  15.6256604  44.2578506  41.2402534  16.4434826
  45.8061743  41.4355373  14.9309552  46.4147091  40.8183861  14.4123924
  45.1617765  41.7895889  14.2384946  46.2984276  42.1708536  15.4178727
  44.8212147  36.5815210  19.7229743  45.5057478  35.4816771  19.7592604
  43.5836601  36.6141129  19.2626083  43.0616760  37.4672508  19.4032705
  42.9145765  35.4066801  18.6174428  43.6727571  34.6264625  18.5501087
  41.7852879  34.7546935  19.4495463  41.6551828  33.7454629  19.0588701
  42.1970081  34.6894169  20.4566836  40.4133463  35.4906201  19.4757807
  39.3237519  35.1385784  18.6691117  39.5428824  34.4493341  17.8670382
  38.1514645  35.8500338  18.7972200  37.3221016  35.5767727  18.1617010
  38.0051184  36.8913198  19.7483003  36.8273926  37.6439643  19.8104894
  37.0034122  38.3658218  20.4183865  39.0169072  37.1721387  20.6238937
  38.8681078  37.9784441  21.3268447  40.2388430  36.4544868  20.4857063
  41.0253859  36.7940021  21.1433411  42.3500252  35.6501770  17.2127175
  41.9806290  34.6741867  16.5038145  42.2955465  36.8999887  16.7635190
  42.4114609  37.6691580  17.4077570  41.6815090  37.1328807  15.4914284
  42.0116901  36.3731837  14.7829437  40.1697206  36.8476319  15.4792142
  39.7958612  36.8119073  14.4559586  39.9362373  35.8903480  15.9452546
  39.3581223  37.9254031  16.2167239  39.5032859  37.7553844  17.2835529
  39.7028422  38.9053416  15.8865869  37.8825140  37.7123594  15.8039582
  37.8191185  37.8795409  14.7287238  37.6842523  36.6480875  15.9309435
  37.0033550  38.6495280  16.4388084  37.4329734  39.4658852  16.8500149
  35.6492281  38.5791373  16.4211237  34.9981213  37.5006342  15.9209907
  35.4742217  36.7135787  15.5038917  33.9942837  37.4530053  16.0216904
  34.9477673  39.4268250  17.0545232  35.3129888  40.2786684  17.4558699
  33.9788222  39.2698812  17.2924578  42.0340157  38.4248281  14.7653508
  42.1990252  39.4416428  15.4767513  42.2002172  38.4055090  13.4229493
  42.0023632  37.5903296  12.8604221  42.4318171  39.6898866  12.7862680
  43.2559776  40.2010298  13.2838452  42.6970005  39.5744848  11.2619877
  43.7710094  39.3974066  11.2049818  42.2425413  38.6557770  10.8911216
  42.4817419  40.8155775  10.3780186  42.9770803  41.9192886  10.8056593
  41.8254805  40.7473326   9.3259937  41.1719513  40.5380917  12.9714513
  40.0048971  40.1073313  12.8739882  41.4042330  41.8281078  13.3810818
  42.3815870  41.9931793  13.5750747  40.4387999  42.8958893  13.6595130
  39.7388339  42.4279213  14.3517232  41.1655474  44.0181971  14.4824362
  40.4209518  44.6918774  14.9065113  41.7223215  43.5455036  15.2915490
  42.1683455  44.8350811  13.7493587  41.7360449  45.7153511  13.0236447
  43.4089947  44.8555374  14.0938246  43.8896465  45.6256342  13.6510706
  43.7947750  44.4240522  14.9215293  39.6762514  43.3541536  12.3934042
  38.5021162  43.7043762  12.4751616  40.2422810  43.3209324  11.1572444
  41.1140394  42.8157568  11.0869968  39.5937848  43.8591433   9.9644446
  39.0654922  44.7524357  10.2976644  40.7001448  44.1430998   8.9302981
  41.5192604  44.6908236   9.3962848  41.0706663  43.1808043   8.5770202
  40.1158428  44.9567223   7.7463645  39.3096352  44.4608116   7.2058040
  39.7029686  45.8728600   8.1686401  41.2873411  45.3003120   6.7695826
  41.8437338  46.1271381   7.2110504  41.9502211  44.4377232   6.7015803
  40.7497454  45.5713272   5.3887272  39.8532104  46.0362148   5.4030919
  40.9822702  44.8249960   4.3312207  41.9072008  43.8762188   4.2510515
  42.4568319  43.5015011   5.0110441  42.1233130  43.5256481   3.3288282
  40.1992035  44.9851322   3.2608745  39.5432591  45.7531309   3.2645386
  40.3435898  44.4972277   2.3884049  38.4971786  42.9581594   9.4233215
  37.3510718  43.3620691   9.1718072  39.0318346  41.7656088   8.9862049
  40.0025749  41.6835880   9.2527306  38.3773589  40.7492447   8.2716292
  37.6275325  41.1356640   7.5813121  39.2076063  39.9963331   7.2182089
  38.6275387  39.2322779   6.7006773  39.8959994  40.9703398   6.2009764
  40.1892996  40.3459597   5.3570414  39.2852879  41.7765760   5.7946312
  40.7556629  41.4064217   6.7098105  40.2853680  39.2976713   7.8091991
  40.7698059  39.9455929   8.3260304  37.7611780  39.6999168   9.2217880
  36.9420028  38.8779163   8.7497675  38.1349087  39.6739912  10.5124533
  38.6942935  40.4521704  10.8312476  37.7754045  38.6428475  11.5392458
  38.2647109  38.7510371  12.5072217  36.2613225  38.6639261  11.8584001
  35.5905247  38.5512066  11.0066795  36.0606503  37.8601766  12.5667930
  36.0187101  39.9035335  12.7696586  36.6198325  40.0307369  13.6699760
  36.2701678  40.8028984  12.2075033  34.5256233  39.9860692  13.0855322
  33.8853335  40.1475620  12.2183216  34.2949867  39.1215372  13.7080181
  34.1239691  41.1686563  13.9351857  34.7875142  41.9220400  13.8246429
  33.1843519  41.3377762  14.8215318  32.2821736  40.3975677  15.0597143
  32.2259569  39.6472144  14.3859839  31.5352321  40.5605221  15.7197332
  33.1693387  42.4100113  15.5737591  33.9789677  43.0101776  15.6400657
  32.5179195  42.4163532  16.3455820  38.2737970  37.1926880  11.2943709
  37.7610230  36.2674952  11.9756353  39.3499875  36.8843651  10.5716658
  39.6864557  37.6085329   9.9532235  39.8883486  35.5522752  10.5944514
  39.1078734  34.8615313  10.2753353  41.0515213  35.4824758   9.4770855
  40.7339907  36.0193801   8.5832113  41.9227552  35.9810853   9.9018675
  41.4586687  33.9855790   9.1737086  41.6377783  33.5424542  10.1533318
  40.6139755  33.4912872   8.6938435  42.7224541  34.1155291   8.3252448
  42.7665806  34.9315977   7.4160361  43.7450314  33.2910991   8.4581769
  44.5690775  33.3096004   7.8744769  43.7008333  32.6119399   9.2044270
  40.4143238  35.0818610  11.9074798  41.2378407  35.7721925  12.4886513
  40.0026846  33.9339471  12.4058688  39.5945334  33.2024527  11.8415737
  40.3441095  33.2644033  13.6683559  40.4509306  33.9496708  14.5092523
  39.2010880  32.2096133  14.0122533  38.2704282  32.7760482  13.9787734
  39.1003203  31.4622927  13.2251966  39.3895698  31.4965081  15.2685857
  39.1768742  32.1205282  16.4618123  39.5032692  31.1587524  17.3629415
  39.5466328  31.2841749  18.4347570  39.7751570  29.9873090  16.8073249
  40.1044798  29.1626740  17.2886014  39.8102713  30.1847625  15.4251623
  40.0742388  29.4433832  14.6855116  41.7150354  32.4948621  13.4608281
  42.0138264  32.0650387  12.3472154  42.5039244  32.2261310  14.5486605
  42.4018764  32.7757812  15.3898335  43.7226582  31.4054918  14.4746017
  44.3199253  31.8447733  13.6756015  44.5762873  31.6166520  15.8307087
  45.3831100  30.8893681  15.7401741  45.2274656  32.9903102  15.8578074
  45.9424448  33.0732417  15.0392568  44.4408512  33.7437749  15.8173621
  45.7587242  33.2152224  16.7826188  43.8362217  31.1645985  17.1013224
  43.3494759  31.9270539  17.7094650  43.0574751  30.4311109  16.8924034
  44.6827269  30.3724694  18.0878186  45.6138897  30.8788180  18.3420777
  44.0214729  30.2809978  18.9494920  44.8544455  29.3703461  17.6949203
  43.5452938  29.9367261  14.0550256  42.4533606  29.3455863  14.2015600
  44.5733881  29.3295264  13.4501374  45.8673382  29.9075627  13.0373621
  46.3218021  30.4991508  13.8320875  45.7989502  30.4121566  12.0736158
  46.8105841  28.6840773  12.7383554  47.3067904  28.3631349  13.6542559
  47.5518799  28.9260602  11.9767618  45.8363152  27.6290131  12.3651505
  46.3048792  26.6782880  12.6194572  45.5318308  27.6642847  11.3191342
  44.5332050  27.9268765  13.1597161  43.7231207  27.7125549  12.4626207
  44.5161533  27.0839381  14.4462991  45.1988363  27.3689771  15.3777397
  43.8708210  25.9250164  14.3426728  43.1285381  25.7974172  13.6697423
  43.7981462  24.8499346  15.3710556  43.5015678  25.2885032  16.3238394
  42.7339315  23.7981725  15.0173461  41.8138170  24.3656087  14.8777044
  42.9759550  23.2466173  14.1088784  42.5157595  22.8013897  16.1276162
  41.9757891  23.1882310  17.3628998  41.7799139  24.2342448  17.5470018
  41.8584633  22.1521664  18.3888435  41.4734840  22.4731445  19.3454897
  42.2235823  20.8168292  18.1280160  42.0453358  19.9154580  19.1168284
  42.5574064  19.1151643  18.9792788  42.7583122  20.4628587  16.8443668
  43.1424427  19.4662774  16.6841602  42.8572893  21.4645314  15.8297598
  43.1972980  21.2871337  14.8201442  45.1583052  24.1285586  15.5688941
  45.9663153  23.9844322  14.6762443  45.3476858  23.6599159  16.8204832
  44.5585203  23.8152361  17.4313760  46.5777922  23.1096292  17.4094379
  47.0489836  22.5556970  16.5975022  47.5956249  24.2332530  17.7761924
  46.9821978  24.9260640  18.3522308  48.2961130  23.8279319  18.5063481
  48.3548784  24.9683499  16.6756439  47.6796055  25.5183601  16.0202122
  48.9671659  25.7351661  17.1501946  49.2468977  23.9567780  15.8635688
  49.9279261  23.4547305  16.5507722  48.6303425  23.1919336  15.3913724
  49.9857569  24.5837426  14.7665727  50.9375477  24.8326778  14.9950922
  49.4899797  25.0078559  13.6173832  48.1833410  24.8685455  13.3424425
  47.5503683  24.3869925  13.9649749  47.9032898  25.0198531  12.3839140
  50.3104877  25.6148672  12.7834928  51.3012934  25.5156827  12.9524994
  49.9790049  26.0954857  11.9593441  46.2458038  22.2770500  18.7007022
  45.2467442  22.4755692  19.3235981  47.2323036  21.3724542  19.0432584
  48.1111574  21.3565326  18.5457969  47.1688890  20.4307842  20.1150179
  46.4529276  20.8349276  20.8306789  46.6589165  19.1484642  19.5703340
  47.4371576  18.6017632  19.0378249  46.5003729  18.6203086  20.5105543
  45.3919077  19.1323984  18.7214851  44.6602774  19.8228669  19.1410995
  45.5404329  19.5301950  17.7175939  44.7713614  17.7340591  18.5601211
  43.5395145  17.6056111  18.7831533  45.5017519  16.7654622  18.2638121
  48.5782623  20.1250863  20.8093691  49.6135330  20.3265738  20.1867318
  48.6423349  19.5851946  22.0382428  47.7239752  19.4231141  22.4261236
  49.7029448  18.7556517  22.6656580  49.1848040  18.2788658  23.4977102
  50.3370047  17.6598644  21.7371106  51.0799694  18.1326866  21.0948181
  50.7642078  16.9242644  22.4186516  49.2937088  16.8741703  20.9770989
  48.0987120  16.7073858  21.3324594  49.7907209  16.3006437  19.9951077
  50.7577944  19.6334839  23.2703495  51.7505789  19.1249406  23.7806392
  50.5309105  20.9753323  23.3100486  49.7757578  21.3625741  22.7624202
  51.2063694  21.9672298  24.1093540  52.2713041  22.0321894  23.8861942
  50.6187963  23.3226252  23.8389707  49.5648813  23.3573818  24.1149402
  50.9953642  24.0567923  24.5512176  50.7175922  23.8100195  22.3534179
  51.7512798  23.7210965  22.0192289  50.1850748  23.1335759  21.6848755
  50.0972271  25.2709126  22.1805286  50.2942896  25.8365202  23.0912185
  50.6359625  25.6607604  21.3168836  48.5883522  25.3487921  21.9069052
  48.4384871  24.8350430  20.9573221  47.9802513  24.7615075  22.5949550
  48.0724287  26.7126846  21.7948914  48.1857157  27.2083879  22.6675558
  48.7265730  27.1916199  21.1925459  47.1680784  26.7915559  21.3521409
  51.1967707  21.6299701  25.5575442  50.1944065  21.2196493  26.1595321
  52.3890829  21.7915297  26.1859679  53.2805681  21.8137121  25.7117701
  52.5208664  21.6161728  27.6684928  52.2774935  20.6028199  27.9878497
  53.9228487  21.8359876  28.1266928  54.4996500  21.0837483  27.5886083
  54.2836905  22.7974081  27.7612209  54.0543318  21.8118739  29.6053171
  53.5315752  20.8174944  30.1764965  54.5634222  22.8360963  30.2206421
  54.7777653  22.8247952  31.2075734  54.8757076  23.6512256  29.7125673
  51.4653969  22.4921274  28.4773850  51.1677742  23.6221695  28.1158447
  50.7355499  21.8997478  29.4482994  51.2174797  21.1105919  29.8546076
  49.8342371  22.5677991  30.3871584  48.8763809  22.7864289  29.9151301
  49.6488142  21.6631651  31.6894507  48.9545679  20.8581018  31.4486289
  50.6337929  21.2448692  31.8966794  49.0919209  22.3222280  33.0306983
  49.6442509  23.2503080  33.1780362  47.5772285  22.5570035  32.9230881
  47.1149635  21.6111588  32.6406193  47.2045326  23.0337787  33.8296676
  47.3723364  23.3010697  32.1533537  49.3711948  21.4217305  34.2262936
  50.3764534  21.0016012  34.1939449  49.2648363  21.9701815  35.1622319
  48.6278296  20.6256580  34.1841769  50.4148579  23.8776565  30.8578181
  51.5587854  23.9073443  31.2778401  49.5672703  24.9210501  30.7265639
  48.6332321  24.7209549  30.3984833  49.8802710  26.3488960  30.8854055
  50.7580090  26.3792920  31.5309691  50.2605581  26.8655157  29.5336986
  51.0189486  26.2859368  29.0073633  49.0002537  27.2439075  28.6149549
  48.3734846  28.0412316  29.0143728  49.3284941  27.4541998  27.5970459
  48.3674192  26.3585234  28.5540056  51.1098099  27.9965234  29.8059297
  51.9042063  27.5580716  30.1194501  48.7032604  27.0680904  31.5541291
  47.5657177  26.7221451  31.3197541  49.0170097  28.1261945  32.3234200
  49.9772644  28.4347367  32.3765087  47.9951906  28.6934495  33.1637359
  48.3202982  29.6777368  33.5007524  47.0126677  28.7045765  32.6919055
  47.7101946  27.8897905  34.4007897  48.0148506  26.6841531  34.4079161
  47.2178268  28.4965420  35.4465532  47.0385647  29.4875622  35.3700995
  47.0571089  28.0868793  36.8155670  48.0195999  27.7160501  37.1679878
  46.5370369  29.2226768  37.7838683  45.5765247  29.5603013  37.3946047
  46.4701271  28.9033318  39.2626047  45.9637737  29.7943521  39.6337986
  46.0136223  27.9214215  39.3873644  47.5030518  28.8857102  39.6102405
  47.4772358  30.2533603  37.7970695  47.3244762  30.8079743  37.0285201
  46.0283756  26.9618845  36.7474818  44.8028421  27.1398735  36.6466069
  46.5162706  25.7225919  36.9076824  47.5022888  25.6847811  37.1231747
  45.7979679  24.4778752  36.6768265  45.6262064  24.3233657  35.6115890
  46.7703438  23.3260441  37.1166849  47.7190781  23.3215213  36.5800357
  47.0982218  23.4398651  38.1499529  46.3135481  22.3387671  37.0479846
  44.4731617  24.3436337  37.4551773  43.5950184  23.7308311  36.9210625
  44.3302870  24.7888851  38.7083936  45.1755810  25.1190567  39.1517520
  43.0382299  25.0162411  39.3567109  42.4546528  24.1341472  39.6202421
  43.3654070  25.8668590  40.5981159  44.0515661  26.6805315  40.3631210
  42.3786736  26.2658954  40.8331203  43.9185333  24.9785399  41.8043089
  43.1236744  24.2751622  42.0524263  44.7075558  24.3114901  41.4570475
  44.3467569  25.6191349  43.1412792  45.1781082  26.2933564  42.9354095
  43.4848356  26.1957121  43.4770632  44.6889257  24.6604013  44.1683340
  44.0023804  23.9228129  44.2370224  45.7263565  24.5925069  44.9812078
  46.7214251  25.4662991  44.8885775  46.5632248  26.3695955  44.4653368
  47.6447773  25.2484298  45.2350664  45.9046364  23.5374427  45.6974697
  45.1545095  22.8658295  45.7771397  46.6030169  23.6073470  46.4237499
  41.9471836  25.6675553  38.4686327  40.8697748  25.1256347  38.3016109
  42.1883011  26.7258739  37.7536726  43.1259489  27.1005249  37.7300501
  41.1429977  27.5447583  37.0807838  40.1702738  27.1337938  37.3510051
  41.0239029  29.0455580  37.6026344  41.8891811  29.5802689  37.2108793
  40.1822948  29.5129919  37.0914578  40.9487629  29.1189957  39.1199422
  39.7429609  28.9294767  39.8083138  38.8303924  28.8003469  39.2453313
  39.6730351  28.7143731  41.2006855  38.7392688  28.4608316  41.6804743
  40.8582592  28.7251925  41.9612789  40.7807398  28.2576752  43.2140398
  41.5783691  28.4067941  43.7270212  42.1455479  29.0120053  41.3057232
  43.0453014  28.9919877  41.9027519  42.1498585  29.1395831  39.8917389
  43.0638361  29.3905282  39.3739843  41.1696863  27.5409317  35.5302739
  40.0864315  27.6942134  34.9849749  42.3066521  27.3486567  34.8871827
  43.1716490  27.2544360  35.4000211  42.4601936  27.2708893  33.4146237
  42.1758366  28.2523727  33.0352306  43.9424849  27.1216512  33.0431938
  44.5201635  27.9432368  33.4667253  44.3586397  26.1776710  33.3950686
  44.1171598  27.1194696  31.9672871  41.6506195  26.1999631  32.7368069
  41.3916588  25.1690388  33.3837461  41.2480736  26.3340569  31.4764500
  41.5301180  27.2006845  31.0411263  40.4359770  25.3574252  30.5673599
  39.4702816  25.1657748  31.0351229  40.3275394  26.0261846  29.1719151
  39.6556330  25.4499865  28.5358024  39.9939728  27.0101666  29.5014691
  41.5066767  26.2175870  28.5227036  41.2614346  26.4346242  27.6202869
  41.0969591  23.9415550  30.4517078  42.3126030  23.7202382  30.2999520
  40.2169561  22.9089832  30.4115343  39.2381167  23.1568336  30.3881502
  40.6569052  21.4861584  30.2051163  41.4352703  21.3013029  30.9454393
  39.4934988  20.5945253  30.5963922  38.5745263  21.1367297  30.3736758
  39.4735694  19.2338836  29.9160743  40.0232649  18.5494101  30.5621719
  38.4812307  18.7849545  29.8733449  39.8167992  19.3220294  28.8852859
  39.5057774  20.2760029  32.1218371  40.4902029  19.8848259  32.3787165
  39.3276143  21.2342143  32.6098824  38.4043169  19.3179440  32.7313137
  38.0576849  18.5661066  32.0223022  38.9056373  18.7498903  33.5149550
  37.5360918  19.8669946  33.0957699  41.2882757  21.2690115  28.8598156
  42.0960140  20.4033375  28.6151767  40.9655523  22.1978164  27.9607654
  40.3655291  22.9474282  28.2740593  41.6639948  22.2307539  26.6291046
  41.5366793  21.3043070  26.0691166  40.9629059  23.4134197  25.8783555
  41.2208462  24.2352009  26.5463686  41.4437103  23.6848140  24.9385285
  39.5388865  23.2698894  25.6216168  39.0093350  22.2438812  25.3354478
  38.8798761  24.4216776  25.6808400  37.8757167  24.4893670  25.5960608
  39.3957424  25.2892280  25.7174206  43.1372738  22.5458527  26.7896175
  43.9456177  21.7254138  26.3522220  43.5693359  23.5960865  27.4747491
  42.9171705  24.1903329  27.9663301  44.8948526  23.9760756  27.6841831
  45.4396200  24.0871000  26.7466307  44.7727776  25.3326178  28.2936072
  45.7767963  25.7545733  28.2487726  44.1120434  25.9203649  27.6563621
  44.4685698  25.3978634  29.3382597  45.6715775  22.8263545  28.4702325
  46.8130875  22.4602079  28.2244301  45.0007868  22.0627642  29.4015169
  44.0742302  22.4232459  29.5793915  45.5482626  20.9185290  30.1626968
  46.4201403  21.3353586  30.6668639  44.5352125  20.4061580  31.2090564
  43.6268377  20.1220274  30.6778097  44.9882460  19.4875968  31.5820289
  44.3341303  21.2127352  32.4574780  44.1281462  20.7169962  33.7312460
  44.1404009  21.7441750  34.5448637  44.1432762  21.6569686  35.6213379
  44.1119909  22.9040265  33.8360405  43.8434792  23.8423324  34.0960097
  44.2363024  22.5820756  32.5463319  44.2093945  23.2365298  31.6876316
  46.0195255  19.7643256  29.2710781  47.0906782  19.1184437  29.5782948
  45.3038836  19.5669293  28.2081771  44.4911337  20.1447058  28.0478072
  45.6479645  18.6275065  27.1314478  46.1715603  17.7532732  27.5183105
  44.3138742  18.2164299  26.5527654  43.6722946  19.0793931  26.3745141
  44.4639826  17.7617121  25.5735850  43.5437059  17.2379136  27.4677944
  43.4383869  17.7819812  28.4064102  42.1676731  16.8679488  27.0011234
  42.3213816  16.6254926  25.9496069  41.8176746  15.9430444  27.4595523
  41.4222717  17.6522315  27.1329379  44.3507385  15.9555840  27.7165961
  44.7360897  15.5408740  26.7851353  45.1358318  16.1661184  28.4428239
  43.6619520  15.2362335  28.1595540  46.5470839  19.2332959  25.9888768
  47.1888876  18.5082364  25.2371240  46.5722132  20.5476451  26.0088730
  46.0490179  21.0845041  26.6857409  47.3237801  21.3469982  25.0544739
  47.8992367  22.1522164  25.5111742  48.0874825  20.7398462  24.5684457
  46.4674234  21.9154406  23.8947344  47.0333862  22.5826859  23.0456901
  45.2514553  21.4251399  23.7053823  44.9542618  20.9434676  24.5419049
  44.2527294  21.9685483  22.7441525  44.5367813  21.6437197  21.7431998
  42.9056787  21.2927389  23.1194949  42.6707792  21.6762662  24.1123843
  41.7882919  21.8058920  22.2798443  41.8234587  22.8858423  22.1363854
  41.6704988  21.2671447  21.3396454  40.8715057  21.5821648  22.8253245
  42.8678703  19.7553575  22.9569364  42.9507923  19.5855510  21.8834400
  43.6879396  19.2332089  23.4498286  41.5657568  19.1071379  23.6235714
  41.6637182  18.0247581  23.5401630  41.4488840  19.4605088  24.6480584
  40.6565380  19.3951488  23.0958652  44.1574001  23.4955978  22.7706766
  44.3781328  24.1510201  23.8338232  44.1348982  24.0647388  21.5574598
  44.1201162  23.4125066  20.7864404  44.1732454  25.5175066  21.2722540
  45.1046801  25.8934784  21.6955519  44.3281984  25.5980587  19.7492909
  45.1102448  24.9213719  19.4048989  43.4060621  25.1784563  19.3471777
  44.5626545  27.0055270  19.1480088  44.6997690  26.8805385  18.0739152
  43.7689257  27.7120161  19.3908358  45.7715607  27.6175070  19.7933114
  45.8140612  28.0899024  20.9551501  46.7992163  27.5649619  19.1490698
  42.9108858  26.2173223  21.8527269  41.8152046  25.7192492  21.7875147
  43.1242752  27.3774195  22.5189233  44.0953350  27.6550746  22.5262690
  42.2705984  28.2443333  23.2862401  41.5270996  27.5116920  23.6001658
  42.8946495  28.8778543  24.5070314  43.6557817  29.5900702  24.1883993
  42.1455860  29.4025731  25.1000547  43.5856485  27.7789354  25.3780699
  43.5798264  27.9800439  26.4493418  43.1465435  26.7911005  25.2385449
  45.0485659  27.6920581  24.9814820  45.8249140  28.6451030  25.1199865
  45.5366135  26.5454125  24.5935845  46.5433121  26.4694214  24.5637608
  44.9587345  25.7186317  24.5426559  41.5552664  29.3320608  22.4701786
  42.1926641  30.0051451  21.6682839  40.3068209  29.5181870  22.8172970
  39.9588990  28.8352275  23.4750319  39.3465209  30.4793191  22.2156692
  39.8544383  31.3194489  21.7420650  38.6115932  29.5556498  21.2295151
  39.3515205  29.0754843  20.5891609  38.0431843  28.7960601  21.7662048
  37.6374102  30.1949644  20.4711819  37.2322345  29.5383930  19.8999155
  38.3966732  31.1401916  23.3143449  38.5851598  30.8421898  24.4797230
  37.4517536  31.9602561  22.9214454  37.3212242  31.8700504  21.9239855
  36.4850402  32.7010679  23.7990117  37.0235586  33.4214091  24.4148159
  35.4348350  33.3557105  23.0455494  34.9194527  32.6319146  22.4141979
  34.6673560  33.8097310  23.6724019  36.1239815  34.4398999  22.0934057
  36.4935565  35.1992369  22.7825499  36.9413424  33.9905667  21.5293813
  35.0720429  35.1448512  21.2695241  34.1842031  35.0716376  21.8975997
  35.3504014  36.1625457  20.9958005  34.7494841  34.5417261  19.9839187
  35.0418830  33.5860395  19.8380852  34.0919161  35.0378895  18.9705801
  33.4048295  36.1630559  19.0409648  33.5133791  36.8022299  19.8154151
  32.7501011  36.2712741  18.2795727  34.1006517  34.3755722  17.8925085
  34.5968318  33.4961915  17.8680980  33.6204004  34.6764612  17.0564914
  35.8708668  31.7128778  24.8687530  35.7417822  32.0059872  26.0354209
  35.4511786  30.5112553  24.4970107  35.3805327  30.3860950  23.4972882
  35.1343369  29.3861151  25.3803849  34.1685152  29.4815826  25.8765483
  34.9960017  28.1507206  24.4703126  34.5561218  27.3046827  24.9983525
  34.2258739  28.3553433  23.7265825  36.2857723  27.5675201  23.9577365
  36.9451380  28.3034086  23.4975147  36.8316674  27.2356057  24.8408771
  36.2259698  26.3455892  23.0741811  35.6655574  25.5126143  23.4986734
  35.7801533  26.6240358  22.1192884  37.5978875  25.8893466  22.9019976
  38.2872844  26.5899682  23.1342912  37.9076076  24.6581268  22.5682282
  36.9406343  23.7623143  22.4605370  35.9942579  24.1098809  22.3999619
  37.2135210  22.7910042  22.4137402  39.1094804  24.2519999  22.2024322
  39.9234152  24.8443294  22.1202278  39.2204952  23.3374858  21.7883754
  36.0733604  29.0904784  26.5840149  35.5295372  28.7424135  27.6286650
  37.4113250  29.1054630  26.4153385  37.7956986  29.4123173  25.5331779
  38.4661412  28.8633776  27.4302316  38.3633471  27.8217196  27.7343440
  39.8217559  28.8576841  26.7019820  40.0834084  29.7746682  26.1739850
  40.4773903  28.7934017  27.5703764  39.8938656  27.6926923  25.7248878
  40.5250645  26.7229700  26.1854410  39.2273998  27.6238942  24.6456051
  38.4596181  29.8513007  28.6386538  38.5337067  29.5461130  29.8294187
  38.2090950  31.1539245  28.3526945  37.8047800  31.3098168  27.4403739
  37.9082656  32.1409607  29.3898511  38.7390399  32.1499705  30.0954247
  37.8856087  33.5904598  28.7339139  37.2394109  33.6412740  27.8575873
  37.5280714  34.2993975  29.4806886  39.2656851  34.2846537  28.4959197
  40.3659344  33.8147402  28.9474845  39.2129135  35.2899003  27.8027725
  36.6449118  31.8621278  30.1702213  36.6289568  31.8483186  31.4250112
  35.5274892  31.7376614  29.4392347  35.5819440  31.5893149  28.4416723
  34.1697836  31.4318943  30.0057745  33.9766288  32.2534490  30.6955862
  33.0814815  31.3698339  28.9306784  33.2916856  30.4763937  28.3427262
  32.1106744  31.2803483  29.4181466  33.1254840  32.5417781  28.0122900
  33.3170748  33.4304714  28.6136365  33.9128470  32.5948596  27.2603989
  31.5082765  32.9656386  27.2333837  30.5683136  33.8355732  28.5310459
  31.0608602  34.7454000  28.8741469  29.6051264  34.0889049  28.0881095
  30.5267882  33.2199454  29.4295883  34.1691232  30.1971579  30.9201980
  33.5817719  30.1097465  31.9846749  34.9123383  29.1382456  30.4603720
  35.3022385  29.2538929  29.5358706  35.2014542  27.9376364  31.2300444
  34.2699218  27.4302483  31.4808512  35.8095169  26.8503261  30.3986597
  35.3628492  26.8477297  29.4043875  36.8439507  27.0607233  30.1270103
  35.7440567  25.4318070  31.1017823  36.1644363  25.6163573  32.0903778
  34.7140384  25.0767493  31.1349821  36.6871524  24.4563627  30.3552604
  36.7052388  24.4406772  29.0627956  37.4033189  23.7274265  31.0439372
  36.0041404  28.2543898  32.4529815  35.6447864  27.7928472  33.5343027
  37.1264410  28.9806223  32.3333049  37.2729969  29.4380474  31.4448309
  37.8453565  29.4218206  33.4763169  38.3151865  28.5789108  33.9831328
  39.1163707  30.2568936  33.1299186  38.8338542  31.2463784  32.7704692
  39.6360636  30.4446959  34.0694666  39.9868464  29.6696615  32.2228718
  39.4661903  29.6211171  31.4177871  37.0939851  30.1555324  34.5316315
  37.0931339  29.8095322  35.7194829  36.2682843  31.1360145  34.1203117
  36.4259362  31.4303994  33.1671143  35.2354550  31.7959285  34.9207211
  35.7451153  32.2788906  35.7544494  34.4832850  32.7798319  34.0099335
  35.1276660  33.5644317  33.6133504  34.0456820  32.2973466  33.1359720
  33.3244228  33.5178638  34.7512817  32.4664664  32.8502345  34.8305464
  33.6542654  34.0730429  36.1160874  34.5427847  34.7023535  36.1670613
  32.8037858  34.6657181  36.4530182  33.9291859  33.2596898  36.7876363
  33.0333161  34.6802568  33.8156652  32.0123243  34.9354243  34.0995073
  33.7037206  35.5252886  33.9724827  32.9677844  34.3302846  32.7854586
  34.2899609  30.7499981  35.5445623  33.9655566  30.9052944  36.7203331
  33.8947320  29.6379542  34.9193335  34.2561746  29.5077968  33.9852476
  33.0541539  28.5353208  35.4549432  32.0435023  28.8822651  35.6701612
  32.9932857  27.6728868  34.7911644  33.7251806  27.9842877  36.7701602
  33.1338787  28.0482244  37.8549266  34.9691033  27.5475240  36.7617750
  35.5535698  27.5532722  35.9380841  35.6078243  27.1187639  38.0165744
  35.0278020  26.2984657  38.4394050  36.9497252  26.4846945  37.7234530
  37.7074361  27.2238541  37.4633956  37.3242903  25.8493471  38.5260320
  36.8280458  25.4989743  36.5945673  36.2603688  24.2048645  36.7918754
  35.8240962  23.8953590  37.7301049  36.3013864  23.2593799  35.7497525
  35.9908772  22.2324347  35.8737159  36.9325686  23.5842514  34.5083380
  36.9223332  22.7285528  33.5019517  37.1184778  23.1043196  32.6405978
  37.3428917  24.8846817  34.2864132  37.8299022  25.0867796  33.3438706
  37.2283673  25.8736539  35.3077173  37.5404024  26.8554139  34.9834013
  35.7741857  28.1422400  39.1057134  35.6703401  27.7635431  40.2604246
  36.0400009  29.3836665  38.7693834  36.1555839  29.6041012  37.7905321
  35.9689951  30.4997206  39.7080207  36.6720057  30.3772068  40.5319548
  36.3791490  31.8125415  38.9541698  35.7800269  31.8679929  38.0452800
  36.0806942  33.1416106  39.6684122  36.5575814  33.9840031  39.1673613
  35.0008750  33.2824254  39.7159958  36.5131021  33.1637359  40.6687307
  37.8838801  31.8678284  38.6745310  38.4765482  31.7447233  39.5810056
  38.2356405  31.0901499  37.9966068  38.1570435  32.8336883  38.2495618
  34.6071362  30.6168818  40.3859949  34.5835805  30.6262755  41.6426945
  33.4957027  30.7144237  39.6400237  33.5564923  30.5847359  38.6402297
  32.1854925  30.7666302  40.2791691  32.2104907  31.6832018  40.8685541
  31.0509443  30.9313202  39.2698574  31.0763073  30.1628280  38.4972787
  30.0993872  30.9225583  39.8014212  30.8998322  32.3272467  38.5262871
  31.8622065  32.5149083  38.0501390  29.8429227  32.1467423  37.4429250
  29.7001934  33.0319786  36.8231773  30.1011014  31.2544632  36.8725896
  28.9268899  31.8627429  37.9609299  30.7514024  33.5118890  39.5308232
  31.6366768  33.7492514  40.1207829  30.3395104  34.4183731  39.0872836
  29.9774551  33.2128835  40.2377224  31.8984509  29.4734883  41.1630297
  31.2307215  29.5758677  42.1501303  32.4302721  28.2380056  40.8227587
  32.9719687  28.1724334  39.9728370  32.3985100  27.0822024  41.7496061
  31.3527489  26.8920588  41.9911146  33.0282736  25.7757807  41.1440134
  34.0536833  26.0137916  40.8611965  32.8500509  24.9546361  41.8383169
  32.3934841  25.3335381  39.8133445  31.3359737  25.0753236  39.8690248
  32.5116444  26.2156868  39.1840959  33.2861948  23.8798165  39.1583443
  32.8548574  22.3951077  40.1077843  31.7710972  22.3357749  40.2080154
  33.3410025  21.5136981  39.6896005  33.1810188  22.6111531  41.1251593
  33.1265783  27.4249649  43.0583858  32.4283242  27.4879956  44.1052198
  34.3939972  27.7786398  42.8894329  34.8006344  27.7857971  41.9649315
  35.2286124  28.1871104  44.0544987  35.5201530  27.3469281  44.6847343
  36.6384149  28.6285114  43.5860062  37.1511102  27.7819228  43.1293535
  36.4376330  29.3466020  42.7909374  37.5472522  29.3650818  44.5933104
  38.5437179  28.7029147  45.3117847  38.7833595  27.6532960  45.2265120
  39.4723845  29.4254637  46.1503410  40.3993702  28.9955711  46.5000343
  39.2849302  30.8144546  46.2997293  40.0960302  31.6078544  46.9862890
  40.1285791  32.5055289  46.6475821  38.1805182  31.4342117  45.6935835
  38.0052829  32.4998116  45.7073498  37.2917271  30.6799316  44.9063110
  36.5396309  31.2011218  44.3326283  34.6089363  29.2536044  45.0428963
  34.6580267  29.1435099  46.2966871  34.0191269  30.2802825  44.5187664
  34.1030979  30.4198694  43.5219860  33.4243703  31.3639784  45.2433586
  34.2120147  31.7156935  45.9097052  33.2557702  32.5474858  44.3334103
  32.7809262  32.1512866  43.4358311  32.5179362  33.2316518  44.7524881
  34.5083785  33.3365607  43.9905310  35.3039813  33.8111663  45.0360918
  35.2112389  33.3732176  46.0189486  36.3010502  34.7396731  44.8220968
  37.0038128  34.9895835  45.6031704  36.3985920  35.3615832  43.5269260
  37.1421933  36.1168146  43.3193588  35.4397392  35.0876117  42.5285530
  35.4999709  35.5190110  41.5402842  34.5773625  34.0116191  42.6972771
  33.9064288  33.7191296  41.9031096  32.1018910  30.8990526  45.9266472
  31.7498350  31.3879752  47.0053339  31.3547921  29.9718976  45.3310966
  31.7632008  29.5739961  44.4974422  30.2385283  29.3676615  45.9695005
  29.5842886  30.1423836  46.3693476  29.3739247  28.6751270  44.9507999
  29.0392423  29.4003391  44.2090750  29.9353504  27.8834367  44.4546890
  28.1009078  28.1114888  45.5513477  27.2536922  28.8577724  45.9950686
  27.9020786  26.8251038  45.5631495  27.0998287  26.5440321  46.1085844
  28.6474586  26.1687493  45.3795576  30.6365919  28.4815025  47.1870327
  30.0538158  28.6696696  48.2317400  31.6009879  27.5407195  47.0656204
  32.0063758  27.4401808  46.1460257  32.2828007  26.7312145  48.0739594
  32.4659801  27.4375629  48.8836575  31.3890290  25.5178404  48.6034393
  31.8652320  25.0378084  49.4583702  30.4143715  25.8970070  48.9106464
  31.1341596  24.5120096  47.6157475  30.7624578  25.0633478  46.7520523
  32.0732141  24.0584707  47.2985935  30.0423098  23.5085392  48.0356359
  29.1652679  24.0431023  48.4005213  29.7251582  22.9845905  47.1339703
  30.4142165  22.5600600  48.9908171  31.2857699  22.6320124  49.4961071
  29.8116922  21.4611173  49.3255424  28.5701346  21.2130880  48.9586306
  28.1025600  21.7751122  48.2617807  28.1477475  20.3898621  49.3635941
  30.3505063  20.6341815  50.1291132  31.2418771  20.8784032  50.5364418
  29.9920082  19.6955693  50.2320147  33.6851120  26.2994623  47.5134706
  33.8528657  25.9126997  46.3432789  34.6843052  26.2409782  48.3442116
  34.4292068  26.4425063  49.3004608  36.0440898  25.6549597  48.0457497
  36.3166475  26.2139130  47.1505451  37.0859838  26.1340332  49.1314507
  38.0756688  25.7438540  48.8940048  37.1392465  27.6654792  49.2808914
  37.3708010  28.0658746  48.2938957  36.1992455  28.0610919  49.6655893
  38.0466580  27.9063749  49.8346758  36.7685795  25.5470777  50.3830433
  37.4568844  24.9362826  50.6564760  36.2674260  24.1591144  47.8991842
  37.4041891  23.7172365  47.7157402  35.2048469  23.3568978  47.9125309
  34.3034625  23.6784792  48.2353306  35.3923440  21.8934250  47.7550364
  36.3551259  21.5500951  48.1335592  34.3869877  21.1453772  48.6975574
  34.3794012  20.0722003  48.5069370  34.6237397  21.3475037  49.7421598
  33.0553436  21.6627550  48.3980751  32.8962016  21.3426685  47.5071049
  35.2910900  21.4312863  46.3017797  34.4065952  20.7009959  45.8802938
  36.3159609  21.9339991  45.5852795  36.8821573  22.7018166  45.9169102
  36.6488743  21.5192008  44.2061901  35.8120489  21.6275740  43.5162020
  37.8112149  22.3671484  43.6606550  38.5761261  22.4197555  44.4354057
  38.2920575  21.8850613  42.8094864  37.4188542  23.8032079  43.2350111
  38.3331800  24.3254256  42.9532146  36.4419508  23.8361359  42.0855999
  35.4557157  23.7653708  42.5443268  36.4737582  24.7914362  41.5616798
  36.6175652  22.9677773  41.4506102  36.9292021  24.5996737  44.4488239
  36.9958210  25.6483150  44.1589594  35.9019923  24.3285155  44.6925831
  37.5539732  24.4258547  45.3249216  37.0333695  19.9758518  44.2236948
  37.5606871  19.5755911  45.2298260  36.7491651  19.1646206  43.1292534
  36.0346437  19.4447684  41.8777275  36.7843866  19.9975073  41.3116312
  35.0358582  19.8614979  42.0075893  35.7742357  18.0421877  41.3108349
  35.5930281  18.0513465  40.2360439  35.0458622  17.5011718  41.9148827
  37.1725106  17.5052810  41.5317869  37.8352618  18.1242132  40.9269857
  37.1769333  16.4460266  41.2747669  37.3301911  17.8072369  43.0631113
  36.6478801  17.1753514  43.6316824  38.7654066  17.6632428  43.5966539
  39.1201735  16.6658616  44.2082262  39.6552610  18.5767913  43.1692505
  39.3859577  19.3252563  42.5468588  41.1458349  18.5601914  43.3096552
  41.4392757  17.5188124  43.4420586  41.6812849  19.0145171  41.9870901
  42.7614021  18.8719273  41.9537449  41.3810635  18.3069003  41.2142706
  41.2661791  20.3122473  41.4479351  41.7209482  21.5349174  41.8216133
  42.5849962  21.5809369  42.4679136  40.9879780  22.5923538  41.2078905
  41.1183834  23.5332346  41.5511703  40.0979280  22.0987034  40.3073978
  39.0162587  22.5696659  39.5500565  38.9012122  23.6365509  39.4278955
  38.1677341  21.7860484  38.7891364  37.3120213  22.2399950  38.3115506
  38.3789015  20.3751254  38.9249945  37.7312708  19.6720338  38.4223604
  39.4476628  19.8382616  39.6640873  39.5803046  18.7714601  39.7677231
  40.2477121  20.6924510  40.4758835  41.7110729  19.2158365  44.5845318
  42.8544521  19.6646035  44.5808983  40.8268261  19.4392145  45.5591393
  39.8647332  19.1466475  45.4648256  41.3649607  19.7929180  46.9762754
  42.0571184  20.6349373  46.9821215  40.1649761  20.1595592  47.9173231
  39.4918251  19.3360198  48.1555414  40.5245399  20.4917812  48.8912058
  39.4405246  21.4439726  47.4663162  39.0035987  21.2750959  46.4821053
  38.7133479  21.7186856  48.2304144  40.3931236  22.6592493  47.2790337
  40.8467770  22.9392195  46.1503172  40.6572437  23.5042787  48.2281780
  41.3443518  24.2410183  48.1560755  40.2415657  23.3394980  49.1338062
  42.1866465  18.6780906  47.7095127  41.9119120  17.4790859  47.5635147
  43.1923628  18.9778829  48.5234451  43.5176849  19.9288833  48.4241104
  43.8560247  18.1038105  49.4669104  44.5426464  18.5844910  50.1637554
  43.1075621  17.5932622  50.0729179  44.5865393  16.8827772  48.9312172
  44.7248268  15.8940649  49.6404409  44.8594570  16.9506192  47.6287460
  44.8266220  17.8388119  47.1490240  45.4252291  15.8130229  46.8947840
  44.7463131  14.9625719  46.9572830  45.7798672  16.2026203  45.4218960
  46.2958384  17.1626735  45.4088545  46.3560343  15.3527403  45.0560665
  44.4461107  16.3350582  44.6189165  43.8478279  17.2275102  44.8024607
  44.8092127  16.3838446  43.1544256  44.9084759  15.3910124  42.7156448
  43.9335060  16.7902589  42.6483870  45.6079626  17.1117651  43.0121946
  43.5749054  15.0903368  44.7502661  44.1640043  14.1732800  44.7583199
  43.0448198  15.1056147  45.7025671  42.9191923  15.0492275  43.8805199
  46.6404295  15.1934028  47.5243187  47.5280666  15.8782005  48.0179358
  46.7607641  13.8893306  47.4207258  46.0029316  13.3835733  46.9848442
  47.8997517  13.1340706  47.9232502  48.3646202  13.6139655  48.7844658
  47.2568464  11.7786932  48.3636093  46.4248133  11.9667161  49.0421867
  46.9105816  11.2337220  47.4854231  48.2200336  10.8778811  49.1257286
  49.0645123  10.5946922  48.4974289  48.5145378  11.3284075  50.0735712
  47.5061417   9.5629430  49.5511055  46.7877007   9.8778737  50.3079176
  47.0506048   9.0967488  48.6774635  48.4751129   8.5875481  50.2862453
  49.3056488   8.4835929  49.5880318  48.8592482   9.0092272  51.2150717
  47.8374195   7.2486603  50.6099939  48.4921694   6.7083180  51.1572027
  46.9097662   7.2976500  51.0064220  47.4833107   6.8245637  49.7645044
  49.0094328  13.0585086  46.8819475  48.7812281  12.5300348  45.7814264
  50.2457523  13.4173369  47.2019196  50.4023266  13.8325322  48.1092215
  51.4727211  13.1343853  46.5127134  51.6088867  12.0615864  46.3761091
  51.4936066  13.8312101  45.1668930  50.7741451  13.4957945  44.4199133
  51.2599230  14.8747277  45.3779936  52.4940300  13.6587238  44.7700262
  52.6612711  13.6139858  47.3534012  52.5348902  14.5656466  48.1677771
  53.8624191  13.0774987  47.1755981  53.9018726  12.3293722  46.4982176
  54.9790430  13.2821512  48.0334663  54.5434332  13.2227886  49.0308762
  55.9795475  12.1269262  48.0630589  56.6738653  12.2941577  47.2396183
  56.5789080  12.0471454  48.9699745  55.5070019  11.1542559  47.9262352
  55.6680107  14.6318519  47.8912449  56.4617682  14.8701859  48.7585735
  55.4667473  15.4150772  46.7894506  54.8228168  15.0388312  46.1083508
  56.1146593  16.7068887  46.6058874  56.5607977  16.9905674  47.5590897
  57.2572708  16.6484141  45.5454731  57.7893543  17.5808930  45.7338142
  58.2394314  15.5050409  45.6960487  59.2032146  15.5948961  45.1949072
  58.4184504  15.4603326  46.7703199  57.8012228  14.5736146  45.3375435
  56.8384409  16.7159712  44.1945887  57.4301338  16.1333394  43.7128782
  55.0789833  17.8118122  46.1465788  53.9399958  17.4816298  45.7979488
  55.4543257  19.0982318  46.2182236  56.3967085  19.3702936  46.4590406
  54.5991135  20.2781129  45.7557678  53.5614872  20.0843382  46.0275936
  55.0211477  21.6324210  46.3501740  56.1003160  21.6965985  46.2109661
  54.5036316  22.4820495  45.9047413  54.8230076  21.6520309  47.8782940
  53.7508011  21.7237425  48.0608654  55.1707077  20.6887531  48.2515192
  55.5180025  22.7637386  48.5977173  56.5709877  22.7910566  48.3174086
  55.0347090  23.6852646  48.2731962  55.3281355  22.4897265  50.0616980
  54.4996262  21.8092728  50.2583075  56.2671995  22.0562792  50.4057598
  55.1617432  23.7691689  50.6711626  56.0308743  24.2832184  50.6497192
  54.5148754  24.3562651  50.1642227  55.0059986  23.7951565  51.6687441
  54.6341419  20.3064895  44.2245054  53.5676813  20.6781888  43.6724615
  55.6014538  19.9230111  43.4251356  56.5050840  19.6782815  43.8041544
  55.4542923  19.7832584  41.9269562  54.8605824  20.6386209  41.6045141
  56.7885065  19.6274102  41.2820196  57.4451494  19.0064657  41.8914080
  56.5588140  19.0887475  40.3626823  57.2966909  21.0505223  40.9459209
  56.4670801  21.6618180  40.5907249  57.6259375  21.6075683  41.8230820
  58.4399033  20.9489608  39.8741722  59.3443918  20.4910111  40.2745295
  58.0495644  20.5235243  38.9496493  58.9253616  22.3259139  39.3713427
  59.8121214  22.1312547  38.7681270  58.2272148  22.7938747  38.6772966
  59.3149185  23.2929015  40.4706526  59.9082136  22.7869940  41.1126566
  59.8525810  24.1196561  40.2527142  58.5227633  23.7062454  40.9415388
  54.5965862  18.5923314  41.6420794  53.8531971  18.6796749  40.6674004
  54.6598864  17.4832380  42.4016476  55.4214239  17.3661304  43.0546856
  53.8679075  16.2736440  42.1945858  53.9283514  15.9354830  41.1601353
  54.3187237  14.9640155  42.9269409  54.4795418  15.2065372  43.9773798
  53.5082626  14.2427027  42.8222322  55.5786705  14.4884145  42.2637987
  55.2150965  14.0150809  41.3517332  56.2368345  15.3378093  42.0809126
  56.3129044  13.5056806  43.1205082  55.8530903  13.0158865  44.1399622
  57.4383211  13.1334460  42.6261759  57.9695845  12.4481106  43.1440353
  57.8041267  13.6227286  41.8218851  52.3665524  16.5783918  42.4664783
  51.5604925  16.3224268  41.5890646  51.9320726  17.1922112  43.5866022
  52.6790476  17.3566926  44.2462015  50.5719995  17.6024795  43.9369774
  49.9489737  16.7162549  43.8163662  50.5211973  18.1501067  45.3570986
  51.1328888  17.5112140  45.9940863  50.9305477  19.1428828  45.1702118
  49.0726423  18.1586635  45.8734131  48.4073305  18.4755254  45.0702572
  48.8710642  17.1380186  46.1986208  48.8760424  18.9336002  47.1923208
  47.8762484  18.7673557  47.5934219  49.5609522  18.5636425  47.9552937
  49.1068363  20.3913689  47.0958900  50.0816298  20.4866791  46.6175795
  48.3259678  20.7330203  46.4164639  49.1478443  21.0079050  48.4283781
  49.9339056  20.7123399  48.9894962  49.4019032  21.9754171  48.2888174
  48.3566999  20.8593917  49.0384054  50.0412703  18.5461056  42.8298378
  48.9293480  18.3112788  42.3843956  50.8698273  19.5506167  42.3809671
  51.6886425  19.7755682  42.9278088  50.5213737  20.4918003  41.3385296
  49.7815609  21.1711526  41.7619181  51.6755772  21.4788628  40.9784460
  52.0895100  21.9309807  41.8797493  52.5583458  21.0112357  40.5423880
  51.1521721  22.6542830  40.1560211  51.4008427  22.5731683  38.8085437
  51.8841362  21.6676450  38.4726071  50.9094810  23.5633397  37.9455686
  50.9302902  23.4951878  36.8679237  50.1288414  24.6766067  38.4031391
  49.4998312  25.5099821  37.5733495  49.9566317  25.3397083  36.7463422
  49.8854208  24.7559452  39.8008823  49.4061089  25.6077409  40.2603531
  50.4058647  23.7646675  40.6650257  50.2262688  23.8484931  41.7266846
  49.9474859  19.8642361  40.0645351  48.8600016  20.1163101  39.5703197
  50.6946039  18.9332676  39.5554304  51.5651608  18.7130082  40.0177240
  50.3357220  18.0430269  38.4725475  49.9386406  18.6596453  37.6661921
  51.5717888  17.4169707  37.7915430  52.1127987  16.8822324  38.5722256
  51.2236500  16.7362797  37.0146513  52.4760151  18.4902537  37.1064305
  51.9027138  18.9599693  36.3071847  52.7397680  19.2397261  37.8526378
  53.7345028  17.8855407  36.5298176  54.5423174  18.6076796  35.8474445
  53.9704323  16.6830754  36.7447066  49.2327976  17.0394504  38.8276839
  48.3989716  16.7909539  37.9831910  49.1689444  16.6128659  40.0947571
  49.8858881  16.8243659  40.7739925  48.0300713  15.7448530  40.5041218
  48.0143023  14.9628699  39.7449422  48.2014656  15.1198959  41.8792772
  49.2469263  14.8646533  42.0523930  48.0164099  15.9057200  42.6116228
  47.4684620  13.7949669  42.2419548  47.3028040  13.6828136  43.3134413
  46.4996433  13.7683535  41.7431736  48.1111765  12.4930406  41.7811584
  49.0626097  12.4360228  42.3099518  47.4868774  11.6419196  42.0531034
  48.3459711  12.3559356  40.3322887  47.3838329  12.6843452  39.9391747
  49.0517902  13.1158495  39.9969530  48.8168907  11.0494387  39.8010278
  48.1729889  10.2827621  39.9340510  49.2183876  11.1276853  38.8775682
  49.6348476  10.8761537  40.3676176  46.7127132  16.5591204  40.4441404
  45.6823683  15.9336805  40.2383614  46.6869164  17.8760123  40.7379913
  47.5720549  18.2499599  41.0491085  45.5418158  18.8131571  40.3756762
  44.7164631  18.5197091  41.0243511  45.8441162  20.2684999  40.9257650
  46.8767929  20.4020000  40.6034994  44.8554611  21.2077188  40.2527714
  45.1587820  21.2505293  39.2066979  43.8383961  20.8176374  40.2917719
  44.9125481  22.2155046  40.6641197  45.8346081  20.3131962  42.4511194
  44.8417044  20.1441622  42.8678656  46.4942694  19.5267594  42.8178072
  46.3240147  21.6243005  43.0412817  45.4826593  22.3026466  43.1829786
  46.7488766  21.4356947  44.0271902  47.1773767  22.1095204  42.5675344
  45.0688648  18.7073970  38.9107871  43.8757753  18.4592974  38.6398840
  45.9654093  18.8891268  37.9694366  46.9264555  19.0186143  38.2517886
  45.6830406  18.7299621  36.5255523  44.7900057  19.2937827  36.2559462
  46.8747234  19.1082788  35.6516695  47.2470331  20.1244020  35.7819748
  47.6886463  18.4918654  36.0333300  46.6199827  18.8039613  34.2858052
  45.7858372  19.1998339  34.0229654  45.2006578  17.2823238  36.2622786
  44.0705538  17.2313583  35.7167196  45.9511948  16.2515056  36.6153145
  46.8374252  16.4560795  37.0544624  45.4338169  14.8352504  36.5407467
  45.4861116  14.5642579  35.4862666  46.3850784  13.8882220  37.3695469
  47.4092531  13.9595020  37.0033693  46.4521790  14.1855252  38.4160686
  45.8917904  12.4358332  37.5227118  46.5182114  12.0272768  38.3156657
  44.8865223  12.3835027  37.9408002  46.1683702  11.6760123  36.2885094
  47.0694733  10.7735133  36.3102436  45.4101467  11.8657708  35.3206611
  43.9376545  14.7511971  37.1000600  43.0930948  14.3308401  36.3222432
  43.6677361  15.1128912  38.3229804  44.3970680  15.3540671  38.9787316
  42.2608423  15.1037323  38.8218808  41.9874382  14.0485942  38.8283730
  42.3202372  15.5441189  40.2719450  43.1138992  14.9334061  40.7023287
  42.7585983  16.5397346  40.3404045  41.0062551  15.4651880  41.0963964
  41.2199736  15.9387040  42.0546293  40.2435064  16.1218011  40.6778431
  40.5785131  14.0268910  41.4095068  40.4281950  13.5050941  40.4643965
  41.4631033  13.5026979  41.7711973  39.3741727  14.0049446  42.2564840
  39.5321107  14.5915866  43.1614733  38.5494494  14.3431163  41.6291380
  39.1677713  12.6162374  42.6512957  38.5835290  12.7166677  43.4690285
  38.7923956  12.0359576  41.9147730  39.9849844  12.1735132  43.0465984
  41.2533283  15.8675456  38.0175805  40.1127625  15.5242991  38.0447602
  41.6290188  17.0489633  37.4809146  42.6286840  17.1915984  37.4603510
  40.6595945  17.9321229  36.7335081  39.7602010  18.2348597  37.2697377
  41.3466167  19.3101490  36.4384794  41.6023731  19.7188985  37.4160337
  42.3499489  19.1737103  36.0349846  40.4676294  20.3922772  35.7145524
  40.5331707  20.1480341  34.6542931  39.4375467  20.3372169  36.0667038
  40.9502649  21.8193626  35.8637786  41.2480259  21.9901061  36.8983245
  41.7775106  22.0507693  35.1927924  39.7489166  22.6934266  35.4753685
  39.4707417  22.5100112  34.4375443  38.8205838  22.3817587  35.9540772
  40.0835657  24.1247892  35.8143187  39.2647314  24.7125745  35.7500696
  40.3656483  24.2486215  36.7761922  40.7966328  24.4665909  35.1859856
  40.2991056  17.2361791  35.4527164  39.1208243  17.0690274  35.1813555
  41.2703562  16.7428195  34.7214746  42.1608114  16.9345093  35.1578760
  41.0481930  15.9702981  33.4927869  40.5282927  16.6592932  32.8271365
  42.3637724  15.7068574  32.7985287  43.0466032  15.4241478  33.5997272
  42.2710228  14.9245584  32.0451975  42.9426050  16.9181859  31.9962120
  42.2491312  17.1751869  31.1954975  43.0268764  17.7971184  32.6353359
  44.5791769  16.5896595  31.2597585  45.5220842  15.9109485  32.6470947
  45.2508020  14.8622167  32.7682018  46.5839338  16.1186802  32.5150943
  45.1522636  16.4427710  33.5237336  40.3502989  14.6195149  33.7769938
  39.4322753  14.3182647  32.9803753  40.6943130  13.8151336  34.8077631
  41.5285778  14.0867889  35.3080773  40.1478720  12.4777496  35.0729012
  39.9662447  12.0683098  34.0791821  41.1652994  11.5734994  35.8033943
  40.8856964  10.5199850  35.7974577  42.0707464  11.7262661  35.2160883
  41.4101744  12.0932233  37.1102476  41.9332170  12.8824961  36.9518900
  38.8110232  12.5279415  35.8519125  38.2088423  11.4715588  36.0368896
  38.2453680  13.7240338  36.1698246  38.7001634  14.5922065  35.9258223
  36.9014335  13.9461088  36.7751312  36.5204740  13.0415797  37.2492576
  36.9510102  15.0099933  37.9133439  37.1520281  15.9876835  37.4753785
  35.4930568  15.1036155  38.5810232  35.4991412  16.0143006  39.1799426
  34.7741771  15.3201520  37.7908182  35.1219749  14.2305267  39.1177845
  37.7421618  14.5734036  38.9448690  38.6057568  14.9411583  38.7434769
  35.9368610  14.3564928  35.6292272  36.0073352  15.5212545  35.1748037
  35.0872898  13.4193587  35.1300240  34.9793220  12.0397329  35.5661035
  34.9379611  11.9627035  36.6525912  35.8263445  11.4294696  35.2526808
  33.7830448  11.4556897  34.8588991  32.8570104  11.4392638  35.4336071
  34.0628290  10.4239941  34.6457577  33.6786675  12.2988427  33.5578299
  32.6466942  12.2420907  33.2115483  34.3001676  11.8587124  32.7780056
  34.1367006  13.6859894  34.0635705  34.6335530  14.1156161  33.1937075
  32.9877162  14.6033871  34.5675421  32.7590752  14.7604609  35.8132291
  32.2878885  15.3309715  33.6566329  32.4362946  15.2943909  32.6582646
  31.5837955  16.5340340  34.0100479  32.2465205  17.3105645  34.3920183
  31.1203480  17.1807706  32.6611590  30.4986238  16.5227783  32.0540285
  30.2418542  18.3883166  32.7756429  30.7279730  19.2107809  33.3003712
  29.9412322  18.8740456  31.8473101  29.3312788  18.1473505  33.3241749
  32.3901510  17.6110256  31.9018316  32.9374862  18.3734274  32.4561453
  32.9741549  16.7240560  31.6562223  32.2016907  18.0275166  30.9123254
  30.4174542  16.3071895  34.9108553  30.0939608  17.1211326  35.7166076
  29.7238421  15.1044428  34.8299432  30.0343299  14.4574165  34.1192698
  28.7416410  14.6772957  35.7908821  27.8988075  15.3477931  35.6230617
  28.4303856  13.2260883  35.4346418  27.8601432  13.2719362  34.5068383
  29.3265676  12.6166975  35.3179860  27.5338578  12.6232278  36.4971519
  28.1233406  12.3556244  37.3740768  26.7330551  13.3253014  36.7293262
  26.9384122  11.2696791  36.1194706  26.3174129  10.6883538  37.0568657
  27.1452904  10.6974888  35.0341702  29.1405249  14.7387207  37.2507858
  28.4869623  15.3844285  38.0480933  30.3467298  14.1449583  37.5819230
  30.6551719  13.6310029  36.7690206  31.0648561  14.0291715  38.8774347
  30.2905393  13.6819625  39.5615292  32.0893812  12.9361367  38.8400507
  32.7973509  13.2216108  38.0619860  32.8971314  12.7886796  40.1814556
  32.2530675  12.4223340  40.9808731  33.7516427  12.1364915  40.0010014
  33.2922053  13.7362528  40.5476809  31.5369225  11.6235459  38.4516144
  32.1892071  10.7821214  38.6853456  30.5351877  11.4067745  38.8226104
  31.4535975  11.5204167  37.3697066  31.5788674  15.3829885  39.2738748
  31.3733459  15.8354962  40.3674316  32.0372558  16.2182117  38.2710838
  32.1409154  15.9037340  37.3168993  32.2315884  17.6744246  38.5286140
  32.8846669  17.7300954  39.3995285  32.9806018  18.3318627  37.3493934
  33.8246989  17.7196145  37.0319724  32.2099876  18.2757008  36.5805626
  33.4608746  19.7845268  37.4627113  32.6404667  20.3684735  37.8798985
  34.6896291  19.8149657  38.3555841  34.4697809  19.4424140  39.3560719
  35.4616475  19.1203010  38.0246282  35.1519179  20.7981801  38.2679462
  33.8117456  20.3350329  36.0373068  34.0950394  21.3852692  36.1069012
  34.6696162  19.7600412  35.6886721  32.9695153  20.2727008  35.3482008
  30.9601998  18.4933054  38.9430141  30.9750080  19.3938398  39.7478557
  29.8476410  18.1524491  38.3435512  29.7914481  17.4507809  37.6192522
  28.4886503  18.6371756  38.6251879  28.6099648  19.6939874  38.8629556
  27.6932907  18.4893358  37.3144150  27.8198051  17.4456358  37.0266891
  26.6360760  18.7025654  37.4723101  28.3476567  19.6319938  36.0860014
  29.4623947  18.9354491  35.8470845  27.7870989  18.0857325  39.8683572
  26.6118479  18.4114671  40.0496197  28.4584212  17.3627269  40.7883406
  29.4353580  17.2585166  40.5541706  27.8988695  16.7099953  42.0115137
  26.9678164  16.2013149  41.7615366  28.9484167  15.7178581  42.5305462
  29.5548844  15.2704620  41.7430592  29.6651411  16.2385619  43.1655884
  28.4047222  14.6575987  43.4797907  28.0001855  15.1426148  44.3681622
  27.6096773  14.1414869  42.9416132  29.5857430  13.7580121  44.0150785
  30.0150776  13.2157004  43.1726599  30.3559756  14.3443918  44.5160770
  28.9934564  12.7271998  44.9768829  28.8667607  13.1908298  45.9551954
  28.0597711  12.2523928  44.6754026  29.9768615  11.6107380  45.2037144
  29.4127393  10.8629513  45.5814552  30.2947187  11.2813151  44.3034077
  30.7037663  11.8343151  45.8683348  27.4936318  17.7810860  43.0841398
  28.3195329  18.4002233  43.7467194  26.2211204  18.0081356  43.1800032
  25.5800319  17.4277329  42.6582384  25.6890082  18.8867188  44.2000103
  24.6274137  18.6538124  44.2829227  26.2264633  18.7083030  45.1313591
  25.7998562  20.3144479  43.7813568  26.2948465  21.1444497  44.5670176
  25.3874421  20.6783605  42.5308752  25.0754690  19.9325740  41.9254160
  25.3208375  22.0041180  41.9270754  25.5220771  22.7360916  42.7092600
  26.3284993  22.0928168  40.8282518  26.6150093  21.1164165  40.4375458
  25.8832932  22.5877547  39.9651599  27.6236367  22.6890969  41.2386894
  27.7001882  24.1150689  41.2963200  26.9286346  24.6936560  40.8101654
  28.7499976  24.7443819  41.9221830  28.9334059  25.7987118  41.7767668
  29.8826694  23.9856148  42.2797918  30.7833195  24.4301081  42.6768494
  29.8969674  22.6126552  42.1055984  30.7589984  22.0411158  42.4164963
  28.7428427  21.8790960  41.6526604  28.7554622  20.7992911  41.6688204
  23.8955140  22.1796656  41.3421822  23.2309055  21.1367369  41.1296654
  23.4284043  23.4171367  41.0518789  23.9577389  24.6229196  41.7567205
  24.9153495  24.9969625  41.3945389  24.1088271  24.5010686  42.8293037
  22.7984571  25.6189156  41.6623354  23.2100177  26.6045070  41.4447832
  22.2350359  25.6742549  42.5937796  21.9168544  25.1368666  40.5232763
  22.1293092  25.7637382  39.6572518  20.8454847  25.2816701  40.6622028
  22.2981524  23.7007976  40.1921749  21.4791799  23.1553459  40.6610775
  22.4652839  23.2952499  38.6915159  23.5875654  23.2029533  38.1929255
  21.3257957  23.0638480  38.0519128  20.4421091  23.0373430  38.5402751
  21.3490367  22.3846889  36.7798018  22.0463634  21.5471458  36.7988229
  19.9329734  21.8061185  36.6579819  19.9742031  21.0821271  35.8441949
  19.8405743  21.2320209  37.5799227  19.2209113  22.6283646  36.5874338
  21.8676782  23.3609676  35.6635761  22.5411487  22.9694343  34.7091031
  21.3584352  24.5962501  35.7314253  20.6977749  24.8409915  36.4551210
  21.7579484  25.6185508  34.7496653  21.7381859  25.1481795  33.7665772
  20.7603264  26.7983913  34.6138787  20.5673075  27.2972918  35.5635858
  21.1261153  27.5953913  33.9665103  19.3918633  26.3316917  34.1010714
  18.7498069  27.2119117  34.0682292  19.5103657  25.8989739  33.1076860
  18.6083186  25.3375530  35.0698829  18.7178707  25.4631853  36.3121533
  17.9594493  24.4075227  34.4465017  23.1870294  26.1760402  34.9542999
  23.8262701  26.5776181  33.9688540  23.6475015  26.1628056  36.1977530
  23.0285811  25.7488656  36.8801689  25.1093054  26.1926794  36.6531253
  25.4192710  27.1571326  36.2508082  25.1815391  26.4126492  38.1513238
  24.4109225  27.1424198  38.3996868  24.9754620  25.5345798  38.7633920
  26.5500689  26.9049716  38.5325527  26.6717219  28.1548715  39.2863941
  25.7687759  28.6367059  39.6312523  27.9045916  28.6368346  39.7067857
  27.9398108  29.6230531  40.1455736  29.1231537  27.9470897  39.3950176
  30.0578523  28.3416605  39.7652221  29.0222573  26.6485262  38.8212681
  29.8971105  26.0481739  38.6197424  27.7975249  26.1446595  38.3486176
  27.7802491  25.1704073  37.8828502  25.8092928  25.0718594  35.9403849
  26.8453097  25.2044392  35.3039622  25.3828335  23.8111877  36.1255479
  24.6507287  23.5517311  36.7711520  25.9544587  22.6394224  35.4439354
  26.9985962  22.6840353  35.7535982  25.2899909  21.3466859  36.0053134
  25.6167221  21.0885453  37.0126414  24.2075253  21.4732337  36.0243225
  25.5854559  20.5421185  35.3319097  25.9362316  22.7326965  33.8518381
  26.8710423  22.3072624  33.1821418  24.8942494  23.3677816  33.2590175
  24.1726756  23.4938669  33.9543843  24.7598624  23.6418414  31.8359709
  25.0455976  22.7353454  31.3023782  23.3404493  24.0145946  31.5207958
  22.6767683  23.2433081  31.9116211  23.0853105  24.9209523  32.0699048
  22.9588056  24.3302274  30.0945640  23.3530354  25.3057218  29.8097920
  23.3129597  23.6145687  29.3526030  21.1971188  24.4900537  29.8266459
  20.6266046  22.8744197  30.2218199  21.0064149  22.1176147  29.5354581
  20.8138490  22.5780845  31.2539196  19.5426130  22.8892565  30.1084924
  25.7755589  24.6778822  31.3211894  26.3053465  24.5392156  30.2486491
  26.0428309  25.6720567  32.1829057  25.4041290  25.8808780  32.9369330
  27.1974397  26.6099119  31.8983483  27.0474553  27.1375370  30.9564257
  27.1705818  27.7325130  32.9113245  26.2077832  28.2310510  32.7991748
  27.3332548  27.2726440  33.8860846  28.3016229  28.7652564  32.7283239
  29.5905733  28.5014391  33.1854892  29.8559403  27.6309896  33.7671232
  30.6032562  29.4215870  32.9657626  31.6033340  29.2343354  33.3279490
  30.3560781  30.5618572  32.2010398  31.2436223  31.5176845  31.9487381
  32.0712471  31.2284350  32.3398542  29.1026616  30.7463980  31.6015434
  28.9861250  31.6055751  30.9576249  28.0350089  29.8843622  31.8651199
  27.1316433  30.0245571  31.2900686  28.5670757  25.9478569  31.7983508
  29.2567468  25.9728765  30.8555818  28.8545942  25.1453638  32.8439879
  28.2091951  25.1447010  33.6208797  29.9842191  24.1712427  32.7802062
  30.9161305  24.6941113  32.5651431  30.1070762  23.4583330  34.2114067
  29.1583014  22.9642320  34.4206834  30.8718538  22.6826215  34.1728544
  30.4989552  24.3511033  35.3558707  29.7811580  25.1711893  35.3378987
  30.3749752  23.5926080  36.6259861  29.3139839  23.5128593  36.8627119
  30.9967947  22.6975894  36.6457152  30.7803464  24.1845226  37.4466038
  31.8937850  24.9131250  35.2500463  32.0921469  25.6418443  36.0359931
  32.6008821  24.0844798  35.2118206  31.8799663  25.5325603  34.3532681
  29.9669957  23.2651782  31.5521169  30.9653068  23.0467296  30.9200406
  28.8127184  22.6586723  31.1738229  27.9476190  22.7856588  31.6793728
  28.7164903  21.6889763  30.0278640  29.4324875  20.8781695  30.1622081
  27.3238158  21.0094976  30.0289392  26.5444565  21.7111754  30.3261733
  27.0742297  20.7562757  28.9985561  27.4335408  19.7055316  30.8251953
  27.3630691  18.6344683  30.3037310  27.4693418  19.7944629  32.1646619
  27.4203277  18.9171028  32.6625967  27.3931599  20.6800175  32.6443386
  28.9205790  22.3797750  28.6962628  29.5822859  21.8221593  27.7783895
  28.4104991  23.6173105  28.6086726  27.9043317  23.9568710  29.4140267
  28.4122419  24.4417000  27.3743749  28.0218124  23.7887859  26.5937519
  27.3364830  25.5123520  27.5142956  26.3896179  24.9762869  27.5789571
  27.5047374  26.1773396  28.3613992  27.2573161  26.5343118  26.3588786
  26.3683105  26.2886906  25.3099918  25.5971646  25.5542016  25.4896021
  26.3780189  27.0804596  24.1084409  25.5973148  27.0415974  23.3631968
  27.3510718  28.0447674  23.9119768  27.4570465  28.8376045  22.8377795
  26.9592619  28.3837509  22.1537971  28.2555914  28.2714891  25.0003695
  28.9215803  29.1135645  24.8829937  28.2069898  27.5291467  26.2113309
  28.9104962  27.7495527  27.0005727  29.8540664  24.9109173  26.9729733
  30.2854562  24.6185684  25.8505630  30.5827069  25.5415344  27.8764772
  30.1806855  25.8864594  28.7364244  31.8787408  26.0217905  27.6082873
  31.9166446  26.5895629  26.6786098  32.3856521  26.9141102  28.8354015
  32.5405526  26.3848639  29.7756147  33.3481264  27.2403002  28.4412551
  31.2373900  28.2672834  29.1918063  30.4561305  27.4920917  29.9491763
  32.7703619  24.7825146  27.3546481  33.5729647  24.8679042  26.4826393
  32.6199079  23.6894822  28.1013560  31.8905687  23.6928320  28.8000345
  33.3612084  22.4597311  27.8872943  34.4395828  22.6175594  27.9045677
  32.9746795  21.3915706  28.9938927  31.9478607  21.5020061  29.3425298
  33.1049919  20.3647923  28.6520576  33.7587690  21.6411805  30.2216434
  33.8541532  22.7045250  30.4414272  33.1261444  21.4314771  31.0841465
  35.0599694  20.8518386  30.3268266  35.3290367  20.8776331  31.3827801
  34.9572897  19.7990477  30.0637937  36.2130666  21.5233064  29.5550370
  36.5532207  22.4273992  29.8500133  36.8088531  21.1724234  28.4016752
  36.5750265  20.0659323  27.7893448  35.9835362  19.3581367  28.2007623
  37.0163250  19.8474395  26.9075203  37.5844884  22.0374608  27.8021049
  37.7418423  22.9370379  28.2335067  38.0391812  21.8226171  26.9262075
  33.0988526  21.8240309  26.5425515  34.0347934  21.1424899  26.0494328
  31.8581676  21.8383670  26.0852623  31.1222959  22.3402500  26.5614009
  31.3241935  21.0347342  24.9644566  31.9194388  20.1309323  24.8343587
  30.2640843  20.8318281  25.1164293  31.4818382  21.7010617  23.5577106
  31.5992951  21.0616589  22.5590324  31.5978599  23.0053902  23.5703993
  31.3658571  23.4766006  24.4330907  31.5363359  23.9325643  22.4069571
  30.6885552  23.5564351  21.8343353  31.2339354  25.3763437  22.9405594
  30.2333760  25.4205751  23.3707070  31.8412924  25.7257557  23.7755036
  31.3102102  26.4455080  21.8510485  32.2243285  26.3324070  21.2682080
  30.2025652  26.3153768  20.8317924  30.2423811  27.1454382  20.1264429
  30.3258872  25.3942299  20.2622437  29.2412472  26.2965608  21.3452268
  31.3418269  27.9242516  22.3637366  30.3644609  28.1615686  22.7838898
  32.1020627  27.9505134  23.1444097  31.5009522  28.6841989  21.5987158
  32.8078818  23.8643050  21.4846611  33.9538503  23.8673663  21.9794250
  32.6224256  23.9233804  20.2050257  31.6637254  23.8075542  19.9090898
  33.6461258  24.0656781  19.0978348  34.2232251  23.1415033  19.0669131
  32.8816605  24.2739296  17.7211893  31.9667935  24.8566747  17.8285575
  33.4790230  24.8398018  17.0063138  32.5406671  22.9090667  17.1086168
  33.2519841  22.7025628  16.3089383  32.5975251  22.1307921  17.8696394
  31.0840201  22.8265667  16.5144742  30.8601022  21.7839122  16.2890041
  30.4746127  23.2089400  17.3333216  30.8945966  23.6482525  15.3481030
  31.6843653  23.6707711  14.7189307  29.8756266  24.3535733  15.0416708
  28.7675905  24.3496895  15.7166898  28.8073635  23.7950110  16.5598083
  28.0385518  24.9362350  15.3364682  29.8692799  25.1421618  14.0152776
  30.6699538  25.2823400  13.4157979  29.0841031  25.7549930  13.8478470
  34.6681261  25.1949596  19.3368351  34.2923331  26.3341737  19.6568024
  35.9057927  24.9048400  19.0059650  36.0957718  24.0021729  18.5946250
  37.0640159  25.8504486  19.1282678  37.0764565  26.1395097  20.1791692
  38.2942152  25.0939608  18.8077009  38.5778093  24.6020460  19.7381282
  38.1139255  24.2736626  18.1129289  39.5022249  25.9617543  18.3252227
  40.0228739  26.8231869  19.2752171  39.7179508  26.6655302  20.2992129
  41.0431671  27.6822352  18.9451599  41.5136099  28.2930851  19.7014332
  41.5685511  27.6561403  17.6526260  42.3950481  28.3246899  17.4619937
  41.0260057  26.8099856  16.6984272  41.4479637  26.8389702  15.7046914
  40.0053310  25.8978224  17.0360339  39.4745874  25.2850080  16.3224721
  36.9137812  27.1368361  18.2715416  37.0332694  28.1997824  18.8603270
  36.6452575  27.0090437  16.9707119  36.6750550  26.0982633  16.5351725
  36.4883780  28.2009530  16.0867739  37.3468375  28.8330889  16.3138199
  36.7785382  27.7087688  14.6564066  36.0171843  26.9513535  14.4699502
  36.5053701  28.4603667  13.9157438  38.0850387  26.9899297  14.3784559
  38.8133693  27.3394370  15.1102245  37.8534245  25.9511018  14.6135950
  38.5485482  27.0501399  12.9087543  39.7561407  26.8673182  12.5884891
  37.7860332  27.4651885  11.9826972  35.2964711  29.0323567  16.3211262
  35.3106928  30.2733183  16.1151123  34.2415667  28.4022522  16.8857622
  34.3397045  27.5129652  17.3544192  32.9263616  28.9770079  17.0701969
  32.6095676  29.3934679  16.1140049  31.7834330  27.9511046  17.2823393
  31.9154334  27.2689080  16.4425266  31.9673347  27.3666430  18.1838346
  30.2747679  28.3958578  17.4220586  29.7258878  27.4764061  17.6256478
  30.1276922  29.1942620  18.1493950  29.6862650  28.9659333  16.0962021
  28.5453558  28.5591626  15.7614148  30.3838754  29.6347547  15.2952302
  32.7591538  30.1394415  18.0869496  33.2460141  30.0494599  19.2567301
  31.7999697  31.0875535  17.8977132  31.3388491  31.0681653  16.9993305
  31.4764786  32.1514297  18.8522065  32.4602604  32.5115252  19.1532207
  30.8160233  33.3037353  18.0228937  29.9619007  32.9357982  17.4543917
  30.4227185  34.0920758  18.6647117  31.6039896  33.7096000  17.3884821
  30.5315542  31.7129827  19.9666524  29.3982244  31.3779402  19.6863663
  30.9030318  31.6716409  21.2813926  32.2078419  31.9023895  21.8282247
  32.6695538  32.7527952  21.3264918  32.8320098  31.0177040  21.7023468
  32.0102525  32.1343136  23.3419609  32.0586181  33.1858683  23.6247897
  32.9530478  31.7596340  23.7405205  30.7700992  31.2539530  23.6289501
  30.2062511  31.5239763  24.5218444  31.0269570  30.2007103  23.7421131
  29.9120426  31.3666773  22.3670506  29.4854903  30.3961325  22.1136785
  28.7988472  32.4802494  22.4359250  29.0321875  33.6565638  22.0247602
  27.5380325  32.0379257  22.7169681  27.4912405  31.0306168  22.7738976
  26.4133716  33.0455422  22.9372644  26.6014004  33.8624883  22.2405958
  25.0730634  32.4116373  22.4726391  25.2672482  31.7967272  21.5938425
  24.8390555  31.6490579  23.2154822  23.9768481  33.4463573  22.3504901
  24.2410016  34.6326447  22.5691628  22.9119778  33.0064440  21.8850374
  26.3259387  33.6919856  24.3524027  25.7187986  33.1065297  25.2668333
  26.9077182  34.8496819  24.5646286  27.5291848  35.2044415  23.8518691
  27.0134187  35.5074835  25.8722806  27.5262880  34.9194431  26.6333842
  27.8012395  36.8401051  25.7894921  27.1863675  37.6068711  25.3182149
  28.0241299  37.1748185  26.8026042  29.1417837  36.7908001  25.0534463
  30.2311444  36.4176893  25.7873750  30.0361419  36.1725092  26.8209410
  31.5494990  36.5103722  25.3198457  32.4248862  36.3157845  25.9217024
  31.7608380  36.8089128  23.9294481  33.0260992  36.8971181  23.3818197
  33.6315989  36.5441513  24.0378571  30.6502080  37.1514845  23.1630135
  30.8272791  37.4389458  22.1371412  29.3448615  37.1208811  23.7026191
  28.5944510  37.5020361  23.0258584  25.6199408  35.7309127  26.4597464
  25.4709101  35.5227780  27.6353192  24.6440148  36.1260414  25.6189847
  24.8190498  36.2271118  24.6294117  23.1978369  36.2857485  25.9836388
  23.1575727  37.0628214  26.7469430  22.3449969  36.8456841  24.8307562
  22.7403164  36.3759446  23.9301062  21.2864900  36.6378522  24.9871707
  22.5043845  38.3544445  24.7829819  23.5758686  38.5531926  24.7601104
  21.9986653  38.6248684  23.8560438  21.9027710  39.3686152  26.1716413
  21.6346931  40.9920692  25.5586410  22.3603272  41.6381073  26.0527945
  21.8553448  41.0317039  24.4919395  20.6112885  41.3100290  25.7577491
  22.5156093  35.0933361  26.5627527  21.6669154  35.1318836  27.4720478
  22.8814983  33.8950634  26.0318112  23.6819625  33.8717914  25.4163313
  22.3825097  32.5855780  26.4636493  21.2938452  32.5927067  26.5171289
  22.7729201  31.5698123  25.3309894  22.3543262  31.9313264  24.3917394
  23.8600135  31.5877557  25.2534866  22.2245765  30.1859283  25.4502749
  20.8306313  29.8949599  25.3104734  20.2164316  30.7762361  25.1986003
  20.2804494  28.5979772  25.4501295  19.2203081  28.4203315  25.5547643
  21.1695075  27.5574279  25.5326819  20.6358886  26.2615848  25.6386709
  21.1566782  25.6970572  26.2145948  22.5951791  27.8156209  25.6034899
  23.2434011  26.9616008  25.7333183  23.0653548  29.0727162  25.5882859
  24.1306615  29.2385101  25.5247092  22.9891062  32.2917199  27.8393412
  22.3349667  31.9295001  28.7996149  24.2686129  32.5627708  27.9661179
  24.8344207  32.9269028  27.2128773  25.0737834  32.2559071  29.1843057
  24.9349284  31.2085009  29.4521904  26.5414357  32.4412465  28.8712740
  26.5922499  33.2650661  28.1593490  27.1713686  32.6622272  29.7329307
  27.1483517  31.2426972  28.1322241  27.3065543  30.4895258  28.9041138
  26.3268209  30.4419756  27.1022558  26.9073963  29.5319462  26.9510055
  25.3773332  30.0283718  27.4421191  26.1996222  30.9128809  26.1274886
  28.5390139  31.4229035  27.4306011  28.4759593  32.2017527  26.6706562
  29.1840911  31.7185426  28.2579899  28.9033985  30.4676819  27.0526147
  24.5893788  33.0465579  30.3900337  24.3736506  32.5686359  31.5183973
  24.1638231  34.2904043  30.0295067  24.3931913  34.5747352  29.0878868
  23.4405923  35.2080417  30.9384656  24.0201807  35.2287650  31.8613648
  23.4372258  36.6742706  30.3650475  23.2199931  36.5787363  29.3011928
  22.7984643  37.3654270  30.9149432  24.8144221  37.3801351  30.5279469
  25.0001669  37.4979949  31.5955186  25.5426073  36.7236137  30.0516844
  24.6939874  38.6694908  29.7354889  24.1594553  38.5124707  28.7986231
  24.0832782  39.3353939  30.3451705  26.0361934  39.2019057  29.3505573
  26.1973500  39.4024801  28.3738780  26.9249582  39.7316003  30.2104855
  26.7550302  39.8738313  31.5381789  25.8708549  39.8958898  32.0258737
  27.4968076  40.2931023  32.0804691  28.0155349  40.2315474  29.6732163
  28.1857181  40.2588320  28.6780310  28.4663033  40.9266043  30.2509689
  22.0447087  34.7588706  31.2490201  21.6659045  34.7988963  32.4666381
  21.2865114  34.1291928  30.3273606  21.7211509  33.9906359  29.4262552
  19.9881744  33.6234307  30.6523299  19.5383573  34.4175053  31.2483239
  19.1262054  33.4757566  29.4031405  19.1137552  34.4326353  28.8812900
  19.5094788  32.7047849  28.7347054  17.6668358  33.2945895  29.7276759
  17.5028515  32.3042512  30.1524591  17.2630727  34.0289378  30.4246783
  16.8352735  33.4958577  28.4276915  17.3646545  33.7636614  27.3316884
  15.5289900  33.2770658  28.4181476  15.0320041  33.4270835  27.5517774
  15.0684369  33.1198454  29.3031788  19.9997807  32.3709965  31.5445900
  19.0503776  32.2616911  32.3458815  20.9820867  31.4477491  31.5046597
  21.6952658  31.4852071  30.7904649  21.0941029  30.3546095  32.5719690
  20.3305030  29.5770979  32.5941086  22.5090790  29.6509409  32.2704911
  23.3432889  30.3396630  32.4041128  22.5683928  28.8538909  33.0116343
  22.4977016  28.9381194  30.8807969  22.4820781  29.6922255  30.0939178
  23.8425016  28.2344604  30.7232904  24.6896696  28.9202905  30.7298350
  23.9362597  27.5002599  31.5234542  23.8326406  27.8035736  29.7221208
  21.3036752  28.0323267  30.5490255  20.3966308  28.6342978  30.6038713
  21.3705945  27.5969553  29.5519924  21.2159681  27.3072529  31.3581514
  21.1951685  30.9776115  33.9512086  20.5354261  30.5318832  34.8943567
  21.9980311  31.9910884  34.1161132  22.6735950  32.2956300  33.4298420
  22.0542097  32.5991726  35.4578114  22.0977759  31.8342781  36.2331438
  23.2902265  33.4244394  35.5075169  23.2970881  34.1064382  34.6572661
  23.2980824  34.0042138  36.4305019  24.5548439  32.6104331  35.4965329
  24.7310996  31.5616107  36.3913226  23.9700437  31.2376523  37.0857596
  25.8874822  30.7670808  36.3518429  25.8488250  29.9057746  37.0022726
  26.8713570  30.9703279  35.3833699  27.7745748  30.3835773  35.3038526
  26.7451000  32.0314336  34.4975901  27.4855614  32.1979308  33.7292147
  25.6055284  32.8394723  34.5394158  25.4824591  33.5677171  33.7514281
  20.7122397  33.3365679  35.7812786  20.3082967  33.2599831  36.9427896
  20.0109243  33.9476132  34.7953367  20.4167008  33.7830067  33.8852000
  18.6487496  34.5465255  34.8961663  18.6998188  35.3182864  35.6642008
  18.2017696  35.2657962  33.6326623  18.9693332  35.9776449  33.3289886
  18.1254017  34.5692801  32.7977157  16.9076598  36.1363840  33.9305615
  16.0112774  35.5218720  33.8470364  16.9750774  36.4628458  34.9683380
  16.7958593  37.2674298  32.9573798  15.8621168  37.7930284  33.1573081
  17.5693274  38.0276442  33.0665708  16.6405022  36.8740773  31.5663218
  15.6938314  36.6850305  31.2693763  17.5668001  36.9253039  30.6627584
  18.7468374  37.2362685  30.7816696  19.1018844  37.2070265  31.7267537
  19.3512809  37.3526144  29.9809122  17.3171890  36.6843128  29.3875098
  16.4376605  37.0599771  29.0628481  18.0621171  36.7526793  28.7089014
  17.6074636  33.5279274  35.3995395  16.9199848  33.8158083  36.3725233
  17.5419998  32.3841858  34.7972488  18.2682836  32.2923613  34.1014194
  16.6202021  31.2517476  35.0553799  15.5637324  31.5044999  35.1453114
  16.6550219  30.1497412  33.9905071  17.7053201  29.8633766  33.9360356
  15.8689797  28.8273978  34.4676065  14.7964215  29.0216279  34.4680715
  16.1424291  27.9813385  33.8371229  16.1917770  28.5709190  35.4766250
  16.1435831  30.6190133  32.6010489  15.0956130  30.9181499  32.5816607
  16.7219937  31.5230441  32.4106073  16.5108109  29.7603083  31.4032269
  17.5151551  29.3432450  31.4771080  15.8171833  28.9224482  31.3327003
  16.3883424  30.2563953  30.4404211  16.8158317  30.8145905  36.4329314
  15.8212566  30.6422782  37.1173215  18.0807960  30.4731417  36.7883277
  18.8321817  30.5700159  36.1203909  18.3826017  30.1578093  38.1737518
  17.8138614  29.3356681  38.6081743  19.8862493  29.7129560  38.1469870
  19.9977922  28.8381314  37.5064063  20.4846454  30.5204201  37.7250576
  20.5556798  29.4615984  39.4540739  20.6713772  30.4271603  39.9464250
  19.7589731  28.4266067  40.3001213  19.6707332  27.5419784  39.6694517
  20.2453232  28.0934215  41.2169409  18.7848151  28.8081217  40.6060028
  21.8992972  28.8655853  39.1942048  22.5076485  28.8427639  40.0983524
  21.7818427  27.8865695  38.7296224  22.4033189  29.5502973  38.5121274
  18.0375099  31.2520146  39.2117929  17.2731853  30.9083962  40.1655865
  18.5527229  32.4710894  39.0554571  18.9931774  32.7026820  38.1765556
  18.4317183  33.5213757  40.0652981  18.8353753  33.1407285  41.0035276
  19.2246258  34.7762108  39.5933104  20.2605009  34.4642806  39.4600368
  18.8752162  34.9343538  38.5730147  19.1504145  36.0746384  40.3483343
  20.1037407  36.3832188  41.3146734  20.8762765  35.6351089  41.4142799
  20.2097940  37.7051783  41.8018198  21.0147524  38.0333042  42.4427319
  19.2295706  38.6720276  41.4861631  19.3575454  39.7041249  41.7773676
  18.1058502  38.3273625  40.6978941  17.2879660  38.9997458  40.4849005
  18.1111205  37.0405388  40.1237965  17.3910069  36.8502331  39.3417335
  16.9721735  33.9075661  40.2621269  16.5714800  34.0487003  41.3861704
  16.2393129  34.0473366  39.1358304  16.6399765  33.9360142  38.2154083
  14.8298526  34.3766356  39.2633486  14.7045827  35.1563668  40.0146341
  14.2633569  34.7960567  37.9436040  13.4884048  35.5595350  38.0118251
  15.0509870  35.3150845  37.3973918  13.7607646  33.7324667  36.8897605
  13.7189806  34.3602610  35.9996867  14.3558872  32.8588319  36.6238761
  12.3552811  33.1113291  37.2166705  11.9473112  32.6312494  36.3271856
  12.5315356  32.3239207  37.9494929  11.4004767  34.1164112  37.7736330
  11.2989438  34.0112734  38.7730050  10.7534933  35.0698304  37.1861792
  10.9911191  35.5197811  35.9860468  11.4812899  34.8825717  35.3746533
  10.7699823  36.4828134  35.7768321   9.7309887  35.5553293  37.7787137
   9.4978619  35.0626850  38.6290431   9.0617722  36.1075902  37.2617459
  13.9710879  33.2209063  39.9176502  12.9353380  33.4630489  40.4697752
  14.4425845  31.9713426  39.7224092  15.2865982  31.7863178  39.1994286
  13.7174380  30.8119106  40.2513647  12.6465654  30.9249449  40.0823784
  14.1779017  29.5358706  39.4985485  15.2615523  29.4191337  39.5118165
  13.4246254  28.2926035  40.0241709  13.9038324  27.9889226  40.9548903
  12.3719227  28.5742617  40.0484371  13.5650206  27.4677181  39.3256378
  13.7603819  29.6241355  38.1484532  14.4368374  30.0839782  37.6459026
  14.0372455  30.6910491  41.7391205  13.1783426  30.4549551  42.6228714
  15.2863634  31.0496259  42.1896362  15.9476674  31.1803484  41.4375162
  15.6139958  31.3254094  43.6310101  15.1917243  30.5638933  44.2866659
  17.0918441  31.4349842  43.7778425  17.3602891  32.2824430  43.1470871
  17.3301661  31.8262935  44.7668743  17.8663087  30.1728106  43.4914541
  17.9842901  30.1270127  42.4088287  19.3349886  30.3990555  43.9907408
  19.9539816  29.5911741  43.6005163  19.7146547  31.3455176  43.6058140
  19.3299115  30.3265190  45.0783110  17.2527051  28.8000584  43.9349699
  17.9026902  27.9669452  43.6674976  17.0296812  28.8084412  45.0018787
  16.3300109  28.7190080  43.3603668  14.9025750  32.5443077  44.1742563
  14.9202704  32.7257180  45.4111862  14.2423332  33.3493805  43.3747768
  14.5521557  33.3162141  42.4140406  13.3567905  34.5098376  43.7943935
  12.8755796  34.9336934  42.9129791  12.1590853  34.0046740  44.7373295
  12.6174486  33.5363865  45.6083727  11.5892220  34.8432040  45.1376104
  11.3452005  32.9085565  44.0185738  10.8427691  33.1663275  42.9291821
  11.0323036  31.8054843  44.6611977  10.5405545  31.1298776  44.0938902
  11.5878046  31.5393472  45.4616213  14.1251445  35.7136655  44.3727684
  13.6025596  36.4530563  45.2646065  15.2701056  36.0808945  43.8779879
  15.7047391  35.5091953  43.1678057  16.1040187  37.2221398  44.3011999
  15.8122075  37.5344539  45.3039026  17.5565636  36.9121432  44.1350460
  17.8193092  36.6987967  43.0989218  18.0966139  37.8123617  44.4283915
  17.9767585  35.8476949  45.1348019  17.6584542  35.8030558  46.5445709
  18.0465972  34.5756888  47.0019913  18.3007753  34.3185949  48.0196857
  18.5997176  33.8693643  45.9418011  19.1554129  33.0275917  45.9939528
  18.5322893  34.6560097  44.8319244  18.7515843  34.3798089  43.8111258
  15.8101368  38.4699774  43.3896637  15.2703154  38.3273935  42.3240232
  16.3906503  39.6294069  43.7563133  16.8611336  39.5377254  44.6453238
  16.3489890  40.9634352  43.1574249  15.9117627  40.9271049  42.1596193
  15.5251420  41.9354153  43.9741468  15.7875633  41.7249393  45.0109386
  15.8760118  42.9068995  43.6259937  14.0214241  41.8193865  43.9031363
  13.5563540  42.8039551  43.8538265  13.7883461  41.3942528  42.9269028
  13.4784377  40.9071684  45.0274134  13.8982427  39.8094916  45.2618456
  12.5633216  41.3770676  45.8466911  12.1521211  40.7146263  46.4887047
  12.1008909  42.2352409  45.5824995  17.7666569  41.5121555  42.9764938
  18.7176979  41.0326242  43.6576986  18.0147624  42.4511337  42.0286036
  17.2364902  42.8130865  41.4962626  19.3494678  42.9801702  41.8154240
  20.0904346  42.2480154  42.1363926  19.5181727  43.2742548  40.3257561
  19.0472567  44.1476822  39.8746896  20.5661011  43.5716963  40.2873325
  19.3026721  42.0311499  39.4866490  18.1031775  41.9678020  38.7624002
  17.4389505  42.8094625  38.8920450  17.8269219  40.8076572  37.9409051
  16.9002116  40.7104301  37.3948669  18.7110722  39.7767258  37.8365588
  18.3533621  38.6611199  37.1496558  17.4177074  38.6170292  36.9394016
  19.9414027  39.8879170  38.5258627  20.7162929  39.1439080  38.4145188
  20.2852774  41.0378695  39.3635893  21.1815548  41.2051916  39.9424601
  19.5504045  44.2847729  42.6328182  18.9695418  45.3294897  42.3114204
  20.3102803  44.1550112  43.7019968  20.5434322  43.1975889  43.9235544
  20.4429865  45.2849150  44.6287632  19.9712229  46.1550903  44.1723156
  19.5287251  44.8567295  45.8218956  19.6436179  45.6544018  46.5558052
  18.4656012  44.8726749  45.5818653  19.7733521  43.5087967  46.4628029
  20.7046509  42.7645922  46.1325455  18.8871002  43.1325245  47.2191715
  21.9084191  45.5480385  45.0163841  22.1648026  46.3891459  45.8556223
  22.9422760  44.8096037  44.4574928  22.6885533  44.1693926  43.7186670
  24.3638349  44.7112942  44.9485779  24.7605324  43.9139128  44.3201542
  25.1183033  46.0116339  44.5517015  24.7723079  46.7978764  45.2226782
  26.1721349  45.8177328  44.7515392  24.9330950  46.5350533  43.1415176
  25.3530645  45.7244062  42.0476294  25.7997632  44.7539520  42.2059774
  25.1002121  46.1427689  40.7443094  25.4367328  45.5117321  39.9350214
  24.4401002  47.3549223  40.5257082  24.2183232  47.7389860  39.2191863
  23.7558317  48.5800982  39.2039895  24.0374470  48.1242228  41.5930510
  23.6233020  49.1004944  41.3886547  24.2320132  47.7303028  42.8722954
  23.9416718  48.3715153  43.6914110  24.5517993  44.2417574  46.4214420
  25.5526471  44.5837593  47.0375538  23.6483979  43.4405136  47.0424700
  22.7309990  43.3759117  46.6249704  23.7912750  43.0074263  48.4620428
  24.2392063  43.8955832  48.9077282  22.4154258  42.7774620  49.0607500
  22.5144577  42.3493767  50.0582695  21.6768122  44.0809965  49.2580223
  22.1873736  44.7206688  49.9779081  21.6097832  44.6724510  48.3449030
  20.6812286  43.8275433  49.6222687  21.7040896  41.8429327  48.3005667
  21.4366674  42.2858572  47.4919224  24.7529650  41.8252516  48.6619186
  24.3863440  40.7835579  49.1941595  26.0289526  42.0379782  48.1824827
  26.2407231  42.9559660  47.8184032  27.2101116  41.0563326  48.3050394
  27.0216584  40.1657677  47.7054787  28.3391857  41.8105316  47.6947689
  28.5745192  42.6931953  48.2894325  29.2260695  41.1790037  47.7468109
  28.0415750  42.2922611  46.3055372  27.4310875  41.4607620  45.3320885
  27.2082329  40.4722691  45.7057381  27.4076128  41.7832184  43.9546204
  26.9281745  41.1549234  43.2185555  27.8046823  43.0981731  43.6205959
  27.5582123  43.4559679  42.6318407  28.3906507  43.9675522  44.5396376
  28.8030839  44.9154234  44.2268467  28.5350609  43.4897757  45.8757544
  29.1918302  44.0547752  46.5206146  27.5503707  40.7280779  49.7437620
  27.4270844  41.6215372  50.5633879  27.9626822  39.5727873  50.0753975
  27.9689908  38.9365005  49.2910528  28.1825018  38.9954138  51.4398241
  27.2348833  38.8351560  51.9540596  28.8346243  37.6045036  51.3821602
  29.7332478  37.6343679  50.7659769  29.1898942  37.3069787  52.3687553
  27.8762341  36.5423894  50.9025526  27.6688623  35.5408978  51.6144085
  27.4943757  36.6670799  49.7342157  28.8789535  39.8779345  52.3743153
  28.3327508  40.1011896  53.4364080  30.0198221  40.5388689  52.0248461
  30.4184914  40.3870583  51.1093616  30.7294679  41.4065504  52.9008150
  30.8894801  40.7905293  53.7857008  32.0862079  41.8251133  52.2847986
  32.5126123  42.4516153  53.0682373  32.6816607  40.9432697  52.0483828
  32.0061684  42.5916672  50.9974051  31.9701767  43.9718819  50.9366179
  32.2274518  44.6906137  51.7005777  31.8733001  44.2682791  49.5618677
  31.7217422  45.1773691  49.1487265  31.9577026  43.1793165  48.7523222
  31.7472577  42.9288530  47.3711872  31.4448166  43.7519169  46.7407084
  31.8138981  41.6126108  46.8935442  31.7046142  41.3886499  45.8426857
  31.8865895  40.5068159  47.8027058  31.8875694  39.4809937  47.4649239
  32.0002484  40.7690859  49.1462994  32.1098709  39.9575901  49.8504686
  32.0059156  42.0654917  49.6792650  29.9344516  42.6407719  53.3104563
  30.0683832  43.0282497  54.4519329  28.9603949  43.0843258  52.5063276
  28.8115549  42.5644302  51.6532993  28.0786824  44.1883945  52.7564526
  28.6768150  44.9221754  53.2967424  27.4805593  44.8665094  51.5060854
  27.1056151  45.8746052  51.6828728  28.5553265  45.0246572  50.4477739
  29.2467856  45.8259630  50.7083273  29.1156030  44.1232491  50.1994705
  28.0425429  45.3413296  49.5395470  26.4805889  44.0163708  50.9027004
  26.9155526  43.1635427  50.8313751  26.8847322  43.7846804  53.6442566
  26.3640761  44.6253490  54.3343258  26.5865231  42.4908590  53.7783861
  27.2604156  41.8295383  53.4197330  25.5410528  41.9421196  54.6891260
  24.7028422  42.5821304  54.9646187  24.8406005  40.7618523  53.9466429
  25.6310034  40.0600243  53.6805630  24.1274834  40.2554989  54.5971632
  24.1308999  41.0887194  52.6715326  24.7430325  41.7618704  52.0713139
  23.9666247  40.1061392  52.2292089  22.5376153  42.0589209  52.7754688
  23.2163024  43.7074184  52.5765371  23.7923026  43.8369799  51.6602755
  22.3879695  44.4137955  52.6312876  23.8505530  43.9424610  53.4312773
  26.1078691  41.3533831  55.9827185  25.3949237  41.1760950  56.9606113
  27.3528671  41.0300541  56.0505772  27.8412747  41.2857580  55.2043009
  28.1419063  40.4750252  57.1003485  27.4531507  39.7510386  57.5357294
  29.4173193  39.7211790  56.5831566  29.2643881  38.9949131  55.7848787
  29.9940181  40.4908133  56.0701418  30.1078820  39.1830230  57.7842999
  30.4202485  40.0063658  58.4266663  29.3163800  38.1229186  58.4454155
  29.8702598  37.5231647  59.1676474  28.4922814  38.5549402  59.0131474
  28.9900470  37.4997687  57.6127768  31.4588523  38.5277677  57.3677349
  31.4119220  37.6865149  56.6762209  32.0010781  39.2477465  56.7547703
  31.9471884  38.1695724  58.2740021  28.4727764  41.6305113  58.1168747
  28.2441926  41.4027166  59.3189764  28.8565016  42.7828026  57.6008272
  29.2722464  42.7755833  56.6803932  28.9498281  44.0307236  58.4438086
  29.6656513  43.7587786  59.2195368  29.3665624  45.2096128  57.5930452
  30.3325629  45.0300884  57.1211195  28.6364770  45.3794193  56.8016863
  29.4517159  46.5253973  58.3951235  28.4548807  46.8298531  58.7140608
  30.0518632  46.3795471  59.2932606  30.0336194  47.7310467  57.6698875
  31.0882545  47.7663994  57.3967695  29.4848394  47.9589462  56.7561054
  29.8312068  48.9487219  58.5396290  29.9521470  49.7990608  57.8685093
  28.7961769  48.8141108  58.8537836  30.7981801  49.1473770  59.6903753
  31.7545557  49.2533779  59.3834352  30.6391001  50.0142574  60.1836395
  30.7021189  48.4143543  60.3785229  27.6620650  44.2609167  59.2053795
  26.6136575  44.1993237  58.5296440  27.7612710  44.7144413  60.5430079
  28.7116933  44.7565746  60.8821583  26.6805410  45.0713778  61.4055538
  25.7886887  45.4985142  60.9470177  26.1334968  43.8582516  62.1883726
  26.9644165  43.3035898  62.6242876  25.4593849  44.2106438  62.9690742
  25.3562903  42.8161049  61.3743401  24.5739508  43.3542681  60.8391523
  25.9294939  42.3625612  60.5657387  24.7187471  41.7108011  62.2865725
  24.2778206  41.9684029  63.4277868  24.5005465  40.5336428  61.7565870
  24.1823387  39.7264218  62.2735357  24.7637916  40.3806305  60.7935762
  27.1809173  46.1466932  62.3643351  28.1588984  45.8380556  63.0821085
  26.6568780  47.2766066  62.4192476  60.8807802  46.4816189  17.7543390
  45.1357174  21.8640137  52.5227261  55.9388161  29.2730856  23.4290075
  61.8634653  63.7189865   0.6584916  67.2060251  15.8600676  54.9987173
   4.7616228  59.0520477  19.2087710  62.7830172  16.3255739  57.3824739
  19.4960320   0.2318439   0.3414294   0.5534382  72.4888611  35.7745028
  73.7569284   3.4079471  30.0905156  54.5058537   5.0457865  24.7312403
  11.9193566  43.9104700  52.1538067  28.5215616  15.0011683  50.0081491
  56.1060524  25.6413198  28.9621997  33.3205128  51.4761066  16.4347053
  34.2478538  51.7122412  16.4121103  33.3016109  50.6204557  16.8633497
  12.3680985  12.6415610  22.7515841  12.5428975  11.9032180  22.1680355
  12.8644848  12.4422181  23.5453701  70.9790564  69.0752792  40.0556421
  71.5880394  68.8503361  40.7590389  71.3983154  69.8053646  39.6002007
  79.1640806  19.7288191  43.1610632  78.7986422  18.9044702  43.4822130
  78.4960461  20.0718379  42.5675106  40.1790810   4.5262286  36.3444161
  39.2765427   4.2325282  36.2203312  40.3944063   4.9875844  35.5338502
  42.1738482  24.9379611   3.9536211  42.8704786  24.5250273   4.4639370
  42.0799303  24.3803048   3.1813329   2.3257150  61.7412901  24.6279526
   3.2149440  61.9451809  24.3382430   2.2945882  62.0427418  25.5359125
  69.0717077  36.3387370  44.1349411  68.8452911  35.6531620  44.7633934
  70.0279522  36.3762188  44.1555309  21.8257570   5.6980938  10.9565544
  22.7740788   5.6761098  10.8283699  21.6940022   5.3354299  11.8325388
  74.0653229  51.5704775  17.7650571  74.4710350  51.3712645  18.6088252
  74.0822554  50.7401323  17.2891629  63.9477110  52.0864439  57.9410648
  63.6099434  52.9024649  57.5719404  64.1917992  51.5616608  57.1786594
   6.0738677  60.4531193   5.9879810   6.0967076  60.3959084   5.0327659
   6.8980318  60.0573206   6.2714034  11.0745764  58.4457731  45.6270552
  11.2851620  57.6786661  46.1594391  11.4793742  58.2667398  44.7783422
  13.9433932   0.3558191  13.7778533  14.6930480  -0.2035443  13.9812291
  13.7646889   0.8229192  14.5940113  45.1473570  12.5480902  64.7627497
  46.0298300  12.1773458  64.7671986  45.2594233  13.4289324  64.4052744
  45.2336931  52.5142384  11.3731134  45.4100037  52.5412560  10.4326785
  46.0664511  52.7535582  11.7798948  43.0085560  75.0106811  18.2699907
  43.6050220  74.5056248  17.7173758  42.1446558  74.6387185  18.0923605
  58.7309456  74.9797934   6.9843143  58.3736265  74.1597789   7.3250943
  59.3902946  74.7069286   6.3463205  15.5867887  71.7640877   9.6299112
  15.8195376  71.9639397  10.5366194  14.7236168  72.1604347   9.5112741
  55.2744913  68.8293648  31.3910413  56.1360836  68.7902880  31.8062115
  54.8386145  68.0232620  31.6675234  33.3004808  73.9506483  51.8858767
  34.0557075  73.3626175  51.8769455  32.7117753  73.5744953  52.5402212
   5.0973654  14.9323869  35.0236011   4.4328064  14.8079681  35.7011795
   5.6099755  14.1241741  35.0396037  25.3236294   8.6304444  45.8496809
  24.4390726   8.5126555  46.1959696  25.2646303   8.3421230  44.9388456
  76.0344744  29.7983217  43.1585312  76.2566710  29.6494961  42.2394466
  75.2127838  29.3242097  43.2860994   5.4954600  60.3503990   9.1454113
   5.9379244  59.5742750   8.8017702   4.9371466  60.6459188   8.4262538
  36.4486313  35.3618217   3.1192443  36.6124129  35.3626275   2.1761608
  35.5022311  35.2419257   3.1978813  75.2427244  23.9491439  21.2747359
  75.4201412  23.1533241  20.7733107  75.0968218  23.6411214  22.1691990
  72.8265381  74.0229893  26.1328673  73.0795956  74.3080235  27.0109034
  73.4929371  74.3988800  25.5576730  14.0093243  74.0985346  22.5642395
  13.2594740  74.5718241  22.2037482  14.6743774  74.1446209  21.8773556
  23.5191274  15.8165574  19.9526560  24.2372155  16.1568189  20.4863238
  22.8803229  16.5289974  19.9283731  49.3006706  43.3901119  55.2376080
  48.4161234  43.3993959  55.6032896  49.5657730  42.4711275  55.2752542
  58.1076050  34.5518208  17.5294924  58.0714130  33.6184716  17.3202527
  58.3126259  34.5799923  18.4640539  68.7127161   5.0127178  32.5122952
  68.4397840   4.2012274  32.0842505  68.6279631   4.8301280  33.4480882
   3.7409151  12.4639809   3.5018972   4.4269979  11.9220078   3.1122985
   3.0948094  11.8363333   3.8256839  44.6489716  70.4813004  16.0641670
  44.4077301  69.8445415  15.3914309  44.9449825  69.9490309  16.8026102
  57.9960442  16.8059182   1.5745650  58.1816483  15.9752166   2.0124207
  58.4282398  16.7300713   0.7238664  22.1702790  18.8717246  37.1422100
  21.2617421  19.0697145  37.3693466  22.6593518  19.0322185  37.9492307
  66.3991070  58.3579683  26.2398529  66.1481619  59.1768360  25.8123970
  65.6102657  57.8170395  26.2030530  23.5256505   7.9621524  35.4553223
  22.9103708   7.4255335  35.9550261  23.0137610   8.7243998  35.1848030
   9.4253397  55.4173231  19.2972791   8.7298161  55.0571966  19.8475397
  10.1410353  55.6013155  19.9056864  39.5783710  23.6102247  50.9858036
  39.8197579  23.0572557  51.7288971  39.6193814  24.5030832  51.3283730
  59.0030241  43.7569284  14.6183956  59.9199915  43.8525057  14.8758245
  58.5089159  44.1229725  15.3519475  65.0346756  23.1723166  45.5724907
  64.2389965  22.7210116  45.2906322  65.7301760  22.5243473  45.4600143
  10.0030470  54.8729849  52.2343731   9.6332139  54.2398453  51.6190815
   9.4462711  54.8064184  53.0101347  69.5044470   3.6461169  58.2341480
  70.4214907   3.3872104  58.3248520  69.0913248   2.9101408  57.7825928
  22.1079731  60.1886749  33.1496572  22.3404980  59.9259138  32.2590828
  22.8838682  59.9819088  33.6706758  60.1975870  39.0873766   9.8041254
  60.3835154  39.2834163   8.8858491  60.4682446  39.8745871  10.2766490
  71.9284058  38.9055490  17.6174748  72.1174765  38.8946772  16.6791964
  71.1736774  38.3251882  17.7164602  23.2358050  50.8820009  13.6947870
  22.6932263  50.3713036  14.2956400  22.6685596  51.5984821  13.4099698
  18.5682392   5.8748376  19.5481825  18.9801264   6.0982811  20.3828406
  17.8478265   5.2908915  19.7853422  77.0451164  12.7251220  46.0002756
  77.8105497  12.2269952  46.2870073  77.2069836  12.9005206  45.0733089
   3.3329305  52.6609135  24.3967676   2.9120135  51.9951487  23.8528752
   3.2423460  53.4716320  23.8960075  30.0972295  62.0699930   8.4200186
  30.3710318  62.4622536   7.5909233  30.4966736  62.6240730   9.0905941
  49.4540071  18.9107013  55.4895449  49.3819427  18.0289662  55.8550310
  49.6838808  19.4619739  56.2375355  77.7264881  29.0019727  64.4850016
  78.0288744  28.3687735  63.8339615  77.1463060  28.4991813  65.0566864
   6.5702158  28.6353827  40.7323074   6.8209928  27.7613354  41.0312748
   7.3889476  29.1312599  40.7284260  14.5434701  21.2632394  20.6951642
  14.2439353  20.3775430  20.9002376  14.1613078  21.4529371  19.8383117
  35.8860064  53.2615900  21.7850780  35.8646488  53.9050961  22.4933696
  35.2913475  53.6142397  21.1230707  62.8130865  72.4345350  24.9647832
  61.8977976  72.6994085  25.0560308  63.0304193  72.6337242  24.0541124
  51.0489798  64.7409344   4.7572967  51.2637472  65.3825998   4.0802616
  51.8233681  64.7175980   5.3194481   3.5203868  61.6177034   7.4196625
   3.3182570  62.4167776   7.9063445   3.9102077  61.9273424   6.6021079
  13.3197367   4.4529641  19.0840936  13.6677396   4.9956936  19.7916043
  13.4583247   3.5538006  19.3816352  64.4033241  28.6807489  43.7838793
  64.4372177  28.5270548  42.8397083  63.8560343  29.4601297  43.8801765
  45.8416700  26.4233279  51.4339876  46.2914991  26.7265153  50.6453419
  46.4810371  26.5444994  52.1359539  58.2439947  73.5732937  12.0447052
  57.9002666  73.1040192  12.8048813  57.4816418  74.0158272  11.6715920
  11.9333780  56.3606405  14.9018919  11.9128966  57.2111988  14.4632971
  11.1780763  56.3760185  15.4896975  46.5520287   1.9781709  29.4982123
  46.8128586   2.8346005  29.8369265  46.6901779   1.3784510  30.2313423
  16.4641070  49.4026518  19.6458519  16.6600132  49.2182732  18.7272346
  15.9254658  50.1935482  19.6218073  66.7372227  11.7104137   2.1382986
  67.4885559  11.2791193   1.7312126  66.3064718  12.1711683   1.4183068
   0.3326201  67.8914928  24.3463206   0.2704197  67.9965687  23.3969426
  -0.2057771  67.1236467  24.5380950  45.1221418  63.6244392  59.0357256
  45.7274437  63.2459307  59.6733522  44.2535639  63.3825970  59.3571520
   2.2095196  30.3395295  27.5433326   2.7419430  30.5333543  28.3148193
   2.2959515  29.3937206  27.4241376  71.5936327  32.5250316  19.5430481
  72.4264812  32.1560240  19.2490637  71.8123865  33.0024815  20.3433108
  14.7361648  61.7396975   6.5421325  15.4202569  61.5874863   7.1941143
  13.9643967  61.2987423   6.8973279  29.2399430  68.3957291  37.1000576
  28.5161924  68.2150030  37.6998520  29.5739079  67.5312996  36.8603468
   4.8779121  62.1668291  23.6688781   5.1307446  62.0600700  22.7518678
   5.2366835  61.3954496  24.1076112  69.9173832  56.4736605   1.0416874
  69.8297071  55.7013512   0.4830414  70.5252171  57.0428944   0.5697308
  60.3506565  28.1729341  63.7096024  60.0103760  28.4834814  64.5486498
  61.2999916  28.2687259  63.7859201  18.3536434  28.1582594  62.1741343
  18.2628965  29.1070127  62.2628164  18.4049571  27.8373647  63.0744839
  51.8607044  38.1574535  35.1974750  52.5757027  37.6497722  34.8137212
  51.8141270  38.9488840  34.6610975  69.8895168  19.1634822  41.2660742
  69.3801498  18.3625436  41.1424732  69.2569733  19.8711228  41.1421204
   9.6705157  29.6940684  55.2072620   9.8835564  28.7725830  55.3546190
   8.7742698  29.6819425  54.8713636   8.3927643  34.9371099  25.2616787
   8.7679660  34.7118449  26.1129785   9.1030133  35.3788519  24.7962284
  67.8760338  44.3387032  62.4221039  68.2437372  45.1061583  61.9838762
  68.6298704  43.7716961  62.5847912  78.6422729  21.0457897  17.5630069
  79.4116163  20.7728672  17.0631528  77.9429960  20.4654551  17.2622454
  44.6459341  45.6110382  18.8439608  44.4753599  46.4936733  18.5151935
  45.1170063  45.7484531  19.6658123  78.3959913  57.3202658   0.5026308
  77.8371906  57.4201059   1.2733479  79.0610456  58.0019093   0.5990555
  78.7398529   8.5710901  24.0171194  79.0995455   9.3240863  23.5482383
  78.3111095   8.9494288  24.7847605  66.7538977  17.8789937  62.4579144
  66.4724731  17.0808589  62.0106888  66.0971689  18.0151224  63.1408548
  61.7413521  40.3664160  18.4475207  61.2401199  39.6018219  18.1639695
  61.7072201  40.3340816  19.4035661  25.5346107   8.4388441  33.0728459
  25.3334212   8.8464099  33.9152479  25.3779101   7.5053078  33.2149267
  68.2620859  53.0040073  62.6505280  67.6479292  52.7405691  63.3358383
  69.0014601  52.4039459  62.7479362  16.9813740   5.6010050  45.6894493
  16.1972404   5.0805408  45.8640432  17.4367666   5.1229209  44.9964190
  46.0267830  40.0377607  45.3714275  45.6998634  40.9297895  45.4882193
  45.4596233  39.5004773  45.9244967  56.0008669  25.8070254  64.0400505
  55.9846687  25.8723998  63.0852222  56.7425680  25.2319527  64.2282009
  56.4732504  47.5214958  14.9686360  56.7690372  46.6289568  15.1478326
  57.2035933  48.0756521  15.2438629  77.9932976  48.5601377   1.2139504
  77.0516777  48.5195494   1.0468037  78.1176090  49.3839836   1.6851777
  50.0795746   2.7247348  56.2263107  49.3154430   2.3472011  56.6619825
  50.1385212   2.2535764  55.3951883  17.4506378  48.1265450  13.3386064
  18.1438124  47.4776173  13.2176423  16.9932163  48.1479120  12.4980462
   6.1130202  65.9290552  53.6795044   6.3190216  64.9980783  53.5954189
   6.0433263  66.0746765  54.6229935  15.6939328  74.0750980  48.2253551
  16.4554775  73.5133410  48.3692646  15.0154233  73.7086678  48.7924433
  36.9616628  20.7216477  63.2384300  37.9030776  20.6637478  63.4015942
  36.5607500  20.2921867  63.9941216  11.1897552  24.5727420  60.3691053
  11.8750000  24.6026778  61.0367727  11.5360248  23.9861226  59.6966457
  64.3706322  56.8261766  58.9657736  63.5742474  56.7410135  59.4899321
  65.0572968  57.0215034  59.6034050   2.1591257  36.4853048  45.5454111
   2.3788190  35.6070805  45.8563519   1.7200455  36.3398099  44.7073936
  24.2565107  48.0489874  61.8593407  25.1589370  47.7579069  61.9902229
  23.9370561  48.2424879  62.7406693  61.8975258  74.2058611  43.1413937
  61.8274736  73.3646202  42.6901293  62.0163250  74.8452520  42.4390411
  33.7451792  13.0879700  52.6425552  33.4785986  13.1441987  53.5601616
  33.0504131  12.5814259  52.2219086  76.6930819  17.2851992  40.8420086
  76.6214895  18.1822240  41.1682796  75.7913399  16.9647038  40.8226252
  38.6137962  51.7358971  12.0829523  38.5303974  52.5864649  12.5140166
  39.2013216  51.8980217  11.3448727  53.4160042  62.9277611  10.4862750
  53.0065918  62.6903152  11.3182795  54.1068316  63.5451078  10.7268476
  78.2303429  54.5723343  45.4828739  77.9818869  55.4138136  45.8655167
  78.3760214  54.7641563  44.5564747  10.6865859  62.2085047  18.6082959
  11.3908529  62.1179295  19.2501962   9.8947543  61.9589281  19.0846837
  77.5218344  45.5928993  15.6234229  77.7584600  45.9677935  16.4717722
  76.6271353  45.2745581  15.7434094  68.9689732   7.6321995  51.4847994
  68.0493689   7.5771177  51.7446613  69.4561672   7.4864691  52.2957516
  66.7899895  10.0747216  50.8138037  67.0845652   9.2708999  50.3856373
  67.5788975  10.6124294  50.8825493  25.5814910  64.3908262  51.9961309
  25.0611782  63.8273716  51.4233971  25.6635642  65.2130461  51.5129614
  53.4072065  60.9466696   4.7069207  54.2589283  61.1422539   4.3163452
  53.5083055  60.0687695   5.0747538  28.1549025  17.8253007  57.5933075
  27.8114796  17.7896285  58.4860659  29.1009951  17.7227092  57.6963425
   4.1111392  44.1671038  14.1882169   3.4853637  44.6188784  13.6220562
   4.4405144  43.4451151  13.6529803  19.8057473  37.9713488  58.2855082
  20.0249243  38.0178618  57.3549032  19.3840051  38.8096046  58.4744358
   8.3638561  72.8864956  15.9697700   8.1877196  73.6788988  15.4625177
   7.8289211  72.9826498  16.7576981  75.3755617  44.4720221  17.9554427
  74.6570396  44.4443274  18.5872567  74.9432898  44.5353365  17.1037602
  10.3318131  24.1630125  64.7974920   9.5952338  24.7740364  64.7792530
  10.9920752  24.5669293  64.2343426   4.8715496  10.3334713  40.6083727
   4.9682856   9.6583164  41.2799692   5.1737934  11.1371589  41.0314178
  34.4522357  24.3187380  51.3106871  35.3088450  24.3048024  50.8837700
  34.2479134  25.2488637  51.4073658  55.3394794  18.3567011  58.8902855
  54.6700764  17.6762557  58.8186646  55.0019598  18.9555645  59.5563745
  48.0393124  33.1184030  44.7084904  48.1243324  33.6721969  43.9324045
  47.2351027  33.4199977  45.1310062  28.1971574  50.0380754   4.5960972
  27.3570514  49.5808363   4.6333480  28.0307984  50.7999134   4.0409753
   4.7896031   1.6546032  60.9420538   5.6414419   1.8687238  60.5615854
   4.5269090   0.8463706  60.5016184  26.2479758  52.3640537  53.9416599
  26.7150640  52.9527092  54.5345736  25.8143473  51.7363691  54.5197725
  42.3524189   4.6561491  61.7091560  42.9276943   5.0572103  61.0576630
  42.0629835   3.8393220  61.3026428  36.6835546  61.3284254  30.2812004
  35.9574294  61.8805027  30.5713463  36.8353415  60.7288504  31.0117483
   3.0122271  66.3606119  40.0419855   2.1683553  65.9537506  39.8455763
   3.3272624  66.6790390  39.1960597  20.5778122  37.8077340  22.1897006
  19.9418199  37.2564864  22.6456308  21.2907553  37.2115517  21.9605494
  74.4990110  56.7280197  35.3971887  73.8627386  57.3959208  35.6527257
  75.1829863  56.7809439  36.0647273  18.3216393  43.2368851  19.4322550
  18.2054961  42.9075289  18.5410380  17.5384092  42.9457235  19.8991692
  58.8718796  47.7073574  11.7635739  58.3900070  47.0470572  12.2616041
  59.7325468  47.7413845  12.1810997  31.1123490   1.7575110   5.2468669
  31.7625570   1.6183969   5.9354204  30.3038931   1.9590373   5.7180578
  56.2812853  59.6437263  11.1081421  56.5511036  58.7515783  10.8901966
  55.4774475  59.7801018  10.6066644  77.5276136  10.3625119   1.2808947
  77.0843697  10.5553603   0.4547134  78.4589243  10.3671741   1.0598312
  48.7634230  32.0940375   2.8538465  48.3779097  32.1938133   3.7242821
  48.4872627  31.2232685   2.5679660  31.8249798  17.1758950  18.9680481
  31.7024803  17.5706685  19.8314011  31.8832755  16.2361598  19.1404724
   2.9350466  60.7707071  32.2624421   2.2683352  60.3656816  31.7077518
   3.0241725  60.1731968  33.0049205  73.7890959  44.0970325  20.0858855
  72.9546833  44.3487072  20.4816723  73.9653111  43.2229471  20.4339623
  78.7799215  10.7443929  35.5774188  78.3007383   9.9300313  35.4243493
  78.3961439  11.3676751  34.9606013  18.8001931   3.9836887  55.3092575
  18.0550611   4.1922551  55.8727407  18.5079432   3.2315928  54.7943115
  23.0537987  24.7402763  54.7974825  22.7414274  24.6621871  55.6989050
  22.2990394  24.4986129  54.2606688   0.6984286  58.1268072   7.1568787
   0.7692163  58.2723570   8.1002957   1.0197334  58.9386177   6.7645109
   5.8435577   9.3813121  25.9971189   6.4661950   9.2949599  25.2752471
   6.0114771   8.6187446  26.5507674  22.7983451   6.5214688  17.5702941
  23.6099601   6.3827848  18.0584359  22.4686909   5.6394672  17.3981583
  54.9003887   2.9072082  42.6804399  55.3413010   3.5991263  42.1874142
  54.9394512   2.1420850  42.1065998  22.0694995  31.2636495   5.8554405
  21.9922996  30.9824896   6.7671537  21.5714979  32.0800281   5.8135712
  27.6471710  20.0939226   9.7702581  27.7609825  19.2614627  10.2288318
  28.3054996  20.6718493  10.1560497  43.0821419  72.6839066  40.2823782
  44.0324450  72.7744341  40.2119541  42.8330994  72.1687746  39.5150113
  79.3828742  34.9172473  11.7629623  78.9046796  34.1974449  12.1746016
  78.8538927  35.6931710  11.9483078  34.0775156  28.2104445   3.0090609
  34.3653297  27.5448322   2.3842768  33.6214995  28.8599992   2.4739349
  16.7800474   9.8391122   8.0211681  15.9407282   9.9361849   8.4710038
  17.4353957  10.0145125   8.6964351   3.7758639  69.9525881  37.4249387
   3.3926302  70.3792095  36.6585493   4.6812522  70.2626562  37.4439478
   3.8764584  74.2926693  13.5808718   4.7782546  74.0895748  13.3323836
   3.3447993  73.9237785  12.8755438  25.3968811   5.0420821  54.9805737
  26.3354063   4.9026090  55.1068592  25.3162980   5.9782344  54.7979355
  74.0671444  29.5121598  55.6207895  74.4848871  28.9731669  54.9490690
  73.9039278  28.9081836  56.3452244  17.3056173  64.1326523  11.6738701
  18.2287359  64.2916107  11.4768541  17.2344911  64.2735672  12.6179659
  57.2150373  58.2928658   6.0223109  56.5042448  57.7315235   6.3319850
  56.8256044  59.1657162   5.9703153   6.1200422   5.3589010   3.6795437
   6.5417707   5.3422111   4.5386702   6.7755008   4.9958614   3.0838859
  73.7455606  22.9230785  47.7268171  73.5990334  23.0304813  46.7870140
  74.5212173  22.3653364  47.7860880  63.7546682  17.5367165  29.9392366
  62.9386139  18.0370045  29.9396896  64.4205666  18.1649041  29.6596050
   5.0392663   0.1724776  14.6520364   4.1166970   0.1338930  14.3998277
   5.4591715   0.6683739  13.9491868  75.2177143  64.2522907   8.3957595
  75.7874918  64.9546528   8.0822772  75.4455662  63.4982920   7.8518838
  30.3209285   6.6082305   0.4725905  29.6651725   6.2638158  -0.1336984
  31.0530309   6.8660659  -0.0875739  55.7814121  24.0937114  53.6169624
  56.4676857  23.4380913  53.4927940  56.0952568  24.6346855  54.3415833
  36.6849899  37.7829599  63.5828352  37.2353196  37.2824383  62.9804659
  37.0418048  37.5899363  64.4498158  69.5868301  36.5353918  59.1181183
  69.9322987  36.8131852  59.9664783  70.3044319  36.6920900  58.5043430
  58.0360365  53.4740829  56.1613989  58.9450932  53.7734270  56.1769342
  58.0213070  52.7875471  55.4945517  75.3108120   0.3443437  32.8715301
  75.8476162  -0.2369050  33.4102559  75.9003878   1.0582798  32.6287842
  45.5209208  47.1260691  44.3919086  45.6705666  47.6991987  45.1438093
  44.8272038  46.5318251  44.6780157  24.5286894  55.1856279  60.7887030
  23.7450719  54.9097443  60.3132439  25.0095177  55.7281446  60.1636362
  59.0318489  64.5722246  18.4346926  59.3132782  64.0555525  17.6796556
  58.7396908  63.9225149  19.0740311  25.8836341  21.9137263   8.9995366
  26.4633703  21.1692238   9.1603285  25.0181580  21.6058326   9.2685878
  60.6161690  29.6309996  33.9507461  60.0652266  30.4017043  33.8139606
  60.0376701  28.8888478  33.7752867  15.0746500  56.4649773  14.9279261
  14.6200824  55.8020449  15.4476571  14.4623458  56.6787243  14.2239189
  48.0437994  47.0063066  62.5264645  48.3222771  47.7254963  63.0934286
  48.6940908  46.3195515  62.6738453  74.1485834  72.3084116  47.8029490
  74.4471264  73.1215525  47.3956347  73.2297421  72.2346258  47.5450420
  68.4991360  35.0430679  15.1811624  67.8730917  34.5025682  14.6993315
  68.2368469  35.9431553  14.9880826  33.8610673  14.7160637  17.2715807
  34.6233368  14.4334757  16.7662859  33.9212680  15.6713140  17.2818863
  46.1641741  52.0113659   1.2575412  45.8738565  52.7209187   1.8306792
  46.9937277  52.3212147   0.8941357  20.6601167  35.4484177   3.6872062
  19.8686862  35.0993323   3.2773176  21.1578417  35.8274102   2.9627290
  55.0944853   7.5268430  52.8065968  55.1804399   7.2816783  53.7278700
  55.9582949   7.3554236  52.4315310  63.5718203   6.9068533  59.6890640
  63.6528730   7.8267717  59.4372511  62.6379871   6.7158759  59.6012497
  40.5141306  59.9020529   9.1867894  41.2159348  59.3096113   9.4564486
  40.9685898  60.6599903   8.8190448  31.3218904  11.3120425   2.3342264
  31.8654847  11.5003824   3.0992517  30.6718063  10.6848633   2.6508766
  23.5580993  17.2046828  15.6049728  24.1762877  16.5642560  15.9570086
  22.9362082  16.6833329  15.0973523  60.6605005  39.0342665  44.1266775
  60.7616520  38.1681991  43.7318039  60.1564169  39.5331907  43.4838676
  32.1206689   8.5586083  51.7384624  32.7829504   7.8818202  51.8783617
  31.8663645   8.4588677  50.8210707  75.4696083  11.7330730  63.8856745
  75.8088923  10.8929622  64.1944265  76.1932659  12.3459852  64.0156364
  22.9131651   2.3964924  19.8052239  23.1297255   1.6796499  20.4014373
  23.4769058   2.2541957  19.0448427   0.2650972  64.6951437  32.6202130
  -0.2389026  63.8814783  32.6074696   0.7606839  64.6827602  31.8013906
  65.7245731  44.4670868  46.5810680  65.6257868  43.9815187  47.4000263
  65.8924627  43.7935209  45.9220123  54.8646021  69.2426968  56.4005423
  55.7610273  69.1199064  56.7129135  54.4674063  68.3741903  56.4650726
  71.4038420   3.3580130  10.2771246  71.0617924   4.2204270  10.0415909
  71.6236353   2.9505441   9.4393349  66.6803217  36.3785744  59.6026564
  66.4306164  37.3006201  59.5417356  67.6312208  36.3802099  59.4930315
  75.0903511  34.8266292  21.1099839  75.1752901  35.3038025  21.9354057
  74.3795109  34.2045999  21.2649775  78.0029774  70.3692436  56.7795992
  78.4939671  69.5796776  57.0070744  77.2225332  70.0448418  56.3302708
  30.3091860  32.3995280  59.2247772  29.6812367  32.3455334  59.9451923
  31.1429143  32.1347976  59.6134233  53.8031721   4.1504955  63.7462473
  53.3951807   4.0899789  62.8824711  53.6035395   3.3130383  64.1646338
  39.8591924  19.0897620  64.7837114  40.1028013  18.9929402  63.8631058
  40.0407457  18.2333803  65.1708555  77.0687151  55.0176430  23.3187771
  76.7931128  54.9631500  22.4037313  77.2633982  55.9448147  23.4554696
  40.8917662  74.4020339   2.0350543  41.2285181  75.0580357   2.6453748
  39.9574610  74.3457697   2.2354057  55.3157473  43.5562706  13.4560442
  55.8385086  43.0571318  12.8285015  55.5192900  43.1622696  14.3043160
  36.5864038  43.6630821   6.2334293  37.2284365  43.5440254   6.9333243
  35.8678389  43.0746031   6.4649183  36.4450359   8.7570620  18.4233880
  37.0173621   9.4155985  18.0296814  35.9711385   9.2298371  19.1075933
  23.5424280  12.6966286  21.5934730  22.8310680  13.2017362  21.9872570
  24.3147326  12.9282141  22.1093631  63.4614801  51.0925484  52.3271608
  63.4104729  51.6200590  53.1242514  63.0121708  51.6165447  51.6640043
  31.3817716  68.3173513  10.8705139  31.9132543  69.0381813  11.2083924
  30.4782200  68.5938072  11.0234749  35.8176756  44.7117281  55.0569296
  35.0363970  44.8483849  55.5928040  36.2625027  43.9698792  55.4668331
  22.9996037  31.5812445  15.2002978  23.3580494  30.9984899  14.5308614
  23.2519770  31.1765337  16.0302067  77.5722265  66.7571402   8.5781586
  77.7527905  66.1537600   9.2989647  77.7408981  67.6252270   8.9445108
  38.4478498  66.5699482  56.8407106  39.2087317  65.9979010  56.9409704
  38.2347488  66.8436337  57.7328539  30.0792718   0.9126804  50.4552603
  30.5448127   1.3349211  51.1772156  29.6847630   0.1338086  50.8476305
  19.8295748  20.6721997   8.2737517  20.6807327  20.9982777   7.9814613
  19.4879484  21.3662243   8.8375366  53.7462521  27.8296828  36.5908504
  53.2510233  27.4680591  35.8558631  54.4593906  27.2063184  36.7289710
  70.6010771  53.6244869  56.9672680  69.7241259  53.8815928  57.2520208
  70.9320593  54.3871307  56.4928675  21.1549807  42.5301456  19.6105039
  20.9358859  41.7347908  20.0959253  20.3493714  43.0469704  19.6214151
  10.4342604  67.7903605  10.8463764  10.9188175  67.0773029  10.4304624
   9.7095203  67.3566532  11.2968028  73.6518145  27.1289635  51.7142487
  74.2939758  27.6689029  51.2534618  72.8454208  27.2322226  51.2089729
  67.8310728  14.5341229  30.5744576  67.2145462  15.2300882  30.8019662
  67.5799179  13.7992859  31.1340714  63.0875206  27.6727962  33.3810735
  63.5267019  28.3162689  33.9372206  62.7724648  27.0050478  33.9902353
  40.3385973   2.4930584  16.9958591  39.5733976   2.9012507  17.4009264
  40.7198286   1.9564465  17.6908004   9.9721342  41.9552231  18.3005440
   9.9665874  41.1539745  17.7768993   9.0470207  42.1715832  18.4170949
   0.9065329  27.2626519  56.5213490   1.4844415  27.9062319  56.9313002
   0.0718518  27.7202082  56.4204454  47.1794224  20.8555555  62.4678612
  47.1182632  21.3537169  61.6527987  47.8436852  21.3159728  62.9807043
  61.5338755   5.0658697  62.8550577  62.1406698   4.3262079  62.8244877
  61.4811659   5.2942175  63.7831259  55.2409744  58.6747265  19.7087288
  55.1127815  59.3867970  20.3354311  54.8932743  59.0155029  18.8845885
  13.9508724  57.5494671  12.7815974  13.1804848  57.3273182  12.2587371
  13.8201368  58.4664249  13.0231094  36.4642382   1.4596878  50.8631229
  35.8769059   1.9704914  50.3060293  35.8843803   0.8707663  51.3459969
  39.4552755  30.2748919  62.6118469  40.3547049  30.5588150  62.7750731
  39.5437002  29.5268869  62.0211649  35.2498698   4.8084041   8.9170194
  34.5444083   5.3775358   8.6093730  35.0860596   4.7095063   9.8548990
  43.1981039   7.6828879  18.1215739  42.9775620   8.0130076  17.2505891
  43.1931734   6.7305750  18.0250990  66.1261272  54.3774939  59.1100502
  65.2344847  54.5107174  59.4316959  66.6335297  55.0827694  59.5117426
  78.9162493  64.3268013  27.8298116  78.5218382  65.0369406  27.3234773
  79.0884256  64.7121525  28.6889338  27.5185680  59.4481993   1.7653008
  27.7627897  59.3482113   2.6854032  28.3513880  59.4349289   1.2936357
   2.9285595  67.3016405  24.9444151   1.9985931  67.5267220  24.9714708
   3.1990585  67.5082254  24.0497732  77.5389719  36.2475657  37.2003031
  77.2392702  36.7749739  37.9407454  77.9791546  36.8722463  36.6238952
  31.8385792  61.8806696  55.4017448  31.5116763  61.1722565  55.9562874
  31.1902118  61.9553757  54.7015476   5.3031498  47.0430613  63.2881594
   5.6391817  46.1470222  63.2674694   4.4923741  46.9831991  63.7934208
  65.7972002  60.6692791  60.7914734  66.1481333  61.4769459  61.1666489
  66.4663744  60.3835726  60.1695299  77.4095917  29.3408585  40.8198643
  77.3207664  29.5203114  39.8838401  78.3545160  29.3216825  40.9714508
  37.9099631  14.1386843  21.7913747  38.8291359  13.8728607  21.8176103
  37.8948092  14.9915934  22.2255969   8.6035889  51.9447660  63.3911514
   9.3840206  51.5397835  63.0128050   7.9254538  51.2732983  63.3170366
  26.3787985  30.7826066   7.5132442  25.6149673  30.5902219   6.9693846
  26.8595171  29.9557877   7.5521159   2.8533915  23.5041618   5.5143589
   2.0691571  22.9558039   5.5370045   3.0057165  23.7421679   6.4288986
  53.7445402  65.9256935  61.8007708  53.7810373  66.6161108  62.4627542
  53.1447363  65.2752161  62.1659279  25.8804822  64.4283104  48.9605618
  26.1315393  65.2675819  49.3463326  25.0232935  64.5922756  48.5673952
  73.7043190   5.9470880  63.6634111  74.3030214   6.4719343  64.1947508
  74.2632437   5.2857512  63.2554054  64.0390158  65.2240944   6.7673266
  63.4337664  65.3217697   6.0322303  64.3189287  66.1173105   6.9674212
  70.8181000  48.6093903  21.1618018  70.6942749  49.4923306  21.5101051
  71.7128563  48.3771992  21.4102578  51.6848803  49.9073744  13.6443067
  50.7590294  50.1486826  13.6159885  51.7577887  49.1664362  13.0427027
  42.0545578   1.7209187  50.4573965  41.2038422   1.2825616  50.4384708
  42.1430302   2.1098000  49.5872402  28.4418964  70.4259491  49.6403933
  28.0336404  71.0663176  49.0577364  29.3528152  70.7117128  49.7096729
  66.3435507  72.6572561  52.6077795  66.8281269  73.1877375  51.9753170
  65.7773733  73.2822180  53.0606651  45.2275324   6.7621940  40.2818918
  45.9455681   6.3891613  39.7705173  44.4778109   6.7492878  39.6869278
  29.6213603  56.0031176  34.4394565  28.7822294  55.7149696  34.7987080
  29.5231152  55.9041929  33.4924650  73.9782667  19.2514253  44.0460396
  73.5191202  19.2495179  44.8859262  74.7238827  18.6661720  44.1793537
   9.6876937  36.9843960   8.3120042   9.6654040  36.3035655   8.9844668
  10.1453245  37.7157307   8.7266803  26.4465857  13.6035204  60.8779430
  25.6361890  13.1843793  60.5884409  26.6206336  14.2717993  60.2151155
  37.6250052   4.7930577  62.5739193  36.7247415   5.1028764  62.6727676
  37.5651002   3.8440400  62.6835060  63.7260723  61.7895794  31.1231422
  63.9017820  60.8537054  31.0256577  64.4395876  62.1111059  31.6742730
   9.8783845  46.6137791  38.7146711   9.6630681  46.5158033  39.6421814
  10.7307923  47.0492315  38.7113738  15.6845343   0.1916524  55.2225828
  14.8503125  -0.2271926  55.4344177  15.7179391   0.9604197  55.7918882
  72.5599384  62.8136873   9.0789402  72.0823956  63.5348845   8.6689883
  72.4601793  62.0829201   8.4688056  30.3265262  57.8445864  54.6426916
  29.7740483  57.3445702  54.0418673  30.8601594  57.1835423  55.0837040
   8.2585967  60.9230328  37.9320717   7.4148202  61.1751413  38.3071899
   8.8042587  60.7124758  38.6897993  40.6491184   2.2548084  43.6063099
  40.4654074   1.9410770  42.7208424  40.1130199   1.7001043  44.1729927
  10.5068493  52.1735668   2.7033687  10.6734490  52.0724010   1.7662230
   9.9314606  52.9361629   2.7633935  11.3872373  65.1069689  45.6427908
  11.6533303  64.3742418  45.0873280  10.8749545  64.7028875  46.3431597
   7.2055149  50.9874249  47.0109272   7.5704515  50.4844475  47.7389860
   6.3055646  50.6717968  46.9290829  22.5337887  37.2298789  12.4332309
  21.8833566  36.5581942  12.6381958  22.6750946  37.6872969  13.2621062
  22.4768972  56.0208464  23.3190703  22.3713946  55.3123188  23.9539647
  23.4047937  55.9967566  23.0852818  74.4123459  21.0962200  11.0712886
  73.6944675  21.6107297  11.4402843  74.2527151  21.1047411  10.1275325
  58.2229090  48.8293886  50.4326439  57.7583551  48.0828238  50.8108854
  58.7691832  48.4482718  49.7452116  21.2728381  21.1232877  13.6023784
  21.5510845  20.3591394  13.0975163  21.4525938  20.8874631  14.5124924
   3.7514994  48.7961292   9.8863715   3.9847347  47.9740906   9.4549876
   4.4976258  48.9887381  10.4541993  58.1178522  72.1475077   8.1814814
  57.3157549  71.6253996   8.1982881  58.3407974  72.2737932   9.1037494
  78.8292694  23.9987922   2.7349702  78.8831902  24.8441553   2.2892259
  79.0156078  23.3552408   2.0513380  69.1309977  40.1282310   1.5585279
  69.7960424  39.5001817   1.8404913  68.3188534  39.8103976   1.9530392
  18.0239630  55.9794712   9.6813017  18.9448905  56.1557722   9.8737615
  17.5998378  56.8358946   9.7350138   4.5024645  56.5691519   9.9897945
   3.5742581  56.3476992   9.9148178   4.5955762  56.9133854  10.8780885
  18.2953286   8.9768165  55.3390360  19.0886259   9.4175053  55.0345612
  18.1163549   8.3163345  54.6697330  14.9555802  41.5149403   0.2843140
  15.3976774  40.8036327   0.7478063  15.5773103  42.2421789   0.3127196
  51.6815996   9.5052308  40.5605125  52.0378780   9.6115315  39.6784711
  51.6803122  10.3896964  40.9265041  22.4919152  61.7355967   3.6184150
  22.0896935  62.6041794   3.6208716  22.6139665  61.5255499   4.5442745
  57.2894382   9.4380760  19.7719407  58.1461096   9.7984070  20.0010729
  56.7099619   9.7327358  20.4745197  31.2311482  33.7381887  10.3205359
  31.9705653  33.8547015  10.9171259  31.5969419  33.9009666   9.4510937
   2.8350124   5.1406807  41.7975473   2.0249623   5.6495953  41.8300486
   3.2164732   5.2416682  42.6696253  78.1913233  38.7404609  22.4401021
  79.0766001  38.9955330  22.6998210  78.2155132  38.7319899  21.4832449
  21.1088228  42.4970293  61.3785458  21.5306306  43.2109308  60.9003735
  21.3038278  41.7149067  60.8623171  50.1194382  27.2793722  43.0705214
  50.5207729  28.1164575  42.8371859  50.7873392  26.6266966  42.8603888
  50.5348396   6.3099676  51.8096113  49.8817062   5.6201017  51.9268084
  51.2939882   6.0083300  52.3085451  56.6798115  73.2927465  61.9530678
  55.8526421  73.6469412  62.2795105  56.4302301  72.7557039  61.2010527
   1.7118381  23.1783795  16.6056955   1.4683124  22.2617698  16.7351317
   2.3082259  23.1643414  15.8571267  63.2143831  63.8487148  10.3149402
  64.0492105  63.9915705   9.8689753  63.2049894  64.4970131  11.0191059
   1.0288487  47.7635574   7.1825856   0.5746018  47.4979210   6.3830048
   1.5593478  48.5151672   6.9182324   3.5190484  32.7992558   1.9402823
   3.6569619  32.3652387   2.7822089   2.5693667  32.7936983   1.8206778
  40.0715117   0.0483307  30.2839565  39.9712686   0.4537328  31.1452532
  40.9876815  -0.2273051  30.2541447  48.1795263  63.2503033  25.0573778
  48.9459944  63.7180424  24.7257519  47.5601578  63.2576895  24.3276095
  66.6558504  51.5614080   2.9127058  65.8353567  51.0821009   3.0279690
  66.4449310  52.2488451   2.2809005  17.7276802  46.3923979  32.4491787
  18.4409821  46.5812826  31.8394613  18.1671786  46.1473227  33.2634330
  32.6451731  66.9026375  17.4272418  32.1741724  66.5171242  16.6884792
  33.1891918  67.5852966  17.0344925  44.5318937  68.8864851  45.7365417
  44.9183130  69.5150328  46.3463259  44.8211765  69.1815329  44.8731232
  62.9293251  43.0641985  41.1481428  62.9777384  42.2320795  40.6775427
  62.4573851  43.6480761  40.5543518  55.4991627  11.6936374  57.3931265
  54.8882771  11.0544765  57.0263577  55.1511240  11.8852484  58.2639790
  67.0623064   4.4078550  49.1743565  67.1814775   4.4483328  50.1232433
  66.5233898   5.1715022  48.9678526  23.3100247  48.3133364  59.2162085
  22.6055145  47.6660442  59.1860628  23.5547066  48.3581543  60.1405239
   8.8713163  44.9429893  20.0954103   8.3748591  44.4516182  20.7498670
   8.2131559  45.2337027  19.4641089  45.0596809  61.8922424  33.9054179
  45.9844017  62.0833683  33.7485719  44.6512985  61.9603539  33.0423903
  54.9972820  26.5600133  51.1129570  54.6774149  26.9352722  50.2925301
  55.7609224  27.0915508  51.3377953  64.2849588  11.8595409  35.5580926
  64.6590996  12.2745848  36.3352609  63.5188675  12.3931587  35.3469324
  67.8800821  30.1831102  46.4142179  67.1066093  30.6418538  46.0863113
  67.5481558  29.3357086  46.7108107  65.8103704  34.3046284  52.4276114
  65.6561184  33.7949300  53.2229996  65.3015614  33.8552809  51.7527485
  51.2714577  23.6532140  60.4535246  50.8898592  22.9248834  60.9435797
  50.5843973  24.3195677  60.4410505  54.3006659  49.2752218  15.8383524
  54.3581343  50.1499462  15.4539156  55.0271034  48.7922382  15.4443467
  67.9298353  51.2561512  27.9667306  67.3307657  50.9807348  27.2728300
  68.2820272  50.4382181  28.3177066   9.6442837  32.0364809  11.7645836
   8.9090794  32.6237392  11.9401789   9.6958995  31.9962478  10.8096230
  11.7303741   5.7359552  22.5737095  11.3447130   6.0498500  21.7558050
  11.0774338   5.9443921  23.2418823   0.4350354  57.3422146   4.2734164
  -0.4378263  57.6883698   4.4592091   0.6810467  56.8725109   5.0703430
  73.5824919  51.2347031   4.9230483  74.3831348  51.2705612   5.4464138
  73.2834148  50.3290892   5.0045717   8.6673373  23.2645297  11.5267754
   8.3031315  23.2778239  12.4118805   7.9152966  23.0899453  10.9609246
  59.1860485  13.1444395  49.8589134  58.5982704  12.7655315  50.5124998
  58.7678146  12.9510629  49.0199137  18.9401782  40.4238462  60.3436375
  19.8558843  40.4032278  60.0656271  18.8211071  41.2996244  60.7111454
  53.9668036   9.8491490  55.7708263  54.5505905   9.3379962  55.2103376
  53.4190655   9.1954803  56.2054920  38.9254260   0.6507915   8.3633447
  38.4240627   0.8548532   9.1527915  39.0005517   1.4874214   7.9043913
  18.1187093  49.5503378  37.3739529  18.4772003  48.6758661  37.5256824
  18.2726169  50.0180292  38.1948113  47.1194839  36.6113400  53.6471415
  46.6313839  37.2884727  53.1786537  47.5903368  36.1377335  52.9614115
  60.9712410  10.1606429  56.0242414  61.1144114   9.5611632  55.2918768
  60.3018141  10.7680023  55.7092619  36.6359901  64.8985481   1.8654440
  36.3691211  65.4021597   2.6344594  35.8745933  64.9247456   1.2859413
  77.6279736   1.4344235  64.0723801  77.6208496   1.4460865  63.1152773
  76.8888760   0.8747706  64.3105984  35.8612680  17.3671806  60.7768965
  36.2614632  17.6859605  61.5858841  36.4993668  17.5772893  60.0950527
  51.7667150  12.1892691  41.5567541  52.4163961  12.3548341  42.2399330
  51.8116808  12.9604506  40.9915209  63.4084320  13.5198116  62.2698498
  63.8185024  13.0091786  61.5717554  63.5495281  14.4314206  62.0143223
  47.5086260   3.8538730   7.5427532  48.1883287   3.4855056   8.1071484
  47.0018196   3.0956757   7.2520381  23.3671021  44.7591639   6.7928880
  23.2812119  45.4079533   7.4914020  22.8414583  44.0163994   7.0899326
  44.0785217  67.8296852  49.2324066  44.8696709  67.5725126  48.7589264
  44.3677950  68.5264826  49.8214960   7.5019491  29.8634005  22.4224377
   8.4311265  29.6688724  22.5449967   7.4426746  30.8146453  22.5110531
  14.0679944  17.6652169  39.2635846  14.0651023  18.5959542  39.0400863
  13.1832767  17.4936056  39.5861602  18.9497781  63.6587572  16.1998522
  18.6987925  63.6345768  17.1232450  19.9062705  63.6933327  16.2124598
  44.0921450  74.0068722  62.2033262  44.8837137  74.1991138  62.7060080
  43.6627722  74.8559380  62.0986700  23.2301402  67.7782154  38.2848954
  22.9690671  66.9878387  37.8122687  22.6149631  68.4488773  37.9882383
  13.7461304  -0.2861515   6.9417709  13.2951951   0.5129465   6.6691411
  14.3244576  -0.0048224   7.6507306  21.0606027  63.0542755  22.4145842
  20.2010894  63.2322407  22.0327497  21.5633821  62.6623249  21.7005682
   5.6581938  51.2853336  21.7873025   5.4137659  52.2107887  21.7827606
   5.1758891  50.9066153  21.0523319  68.8386011  68.7194490   2.0275429
  68.2108593  68.0537224   2.3085757  68.8329363  69.3668079   2.7326149
  65.0715733  68.7457085  18.9716673  65.3718615  67.8815508  18.6900795
  65.8719778  69.2657185  19.0435588  10.5086362   1.0742390   8.1453091
  10.0577426   0.2609709   8.3722931  10.6943035   1.4884123   8.9880550
  75.1985550  27.7987194  53.7770987  74.7640181  27.3298335  53.0646706
  75.8535957  27.1825290  54.1049099  37.6769662   8.5264736   2.4237277
  38.2228518   8.3174491   1.6657379  36.7800927   8.3929217   2.1171084
  59.8684931  55.7916594   9.6148145  60.2845669  56.6122246   9.8789728
  60.1874638  55.1471567  10.2465641  43.6209965  53.9257002  54.7901106
  43.2030344  54.7663260  54.6033049  44.0278339  54.0459347  55.6481647
  38.7225604  51.3881922  41.9226027  38.8623333  52.1918297  41.4217424
  38.6090350  50.7085657  41.2581825  57.8281736  39.5756698   7.4734139
  57.1378756  39.6289945   6.8124509  58.4463930  40.2647924   7.2302127
  40.0053167  40.8481073  53.4930086  39.6583533  40.1255989  52.9697227
  39.8628569  41.6252232  52.9526138  52.0366287  50.1074123  54.9673796
  51.5979624  49.4278574  54.4555092  51.3972282  50.3542089  55.6355810
  18.6833346   7.3324883  12.3398018  18.7404346   7.1490145  11.4020872
  18.0649757   6.6826290  12.6737881  14.5138037  58.9354610  16.1315775
  14.9406731  58.1178951  15.8754539  14.2580378  59.3417597  15.3034854
  67.7156067  23.2674932  59.5428085  67.7767086  22.3449421  59.7905970
  67.9392862  23.2808661  58.6122036  74.0248251  33.2925749  46.3695240
  74.5543051  32.7144456  45.8203030  73.3816433  32.7126861  46.7772961
  25.3065443  55.1398563  50.1228333  25.2559090  54.2789936  50.5382633
  24.5818329  55.6338263  50.5062532  24.9167728  73.0419922  33.8174748
  24.2896557  72.8241920  34.5070553  24.7736740  73.9733219  33.6490250
  67.7846384   8.5962838  48.1395674  68.6302519   8.8382334  47.7619076
  67.9922771   7.9059368  48.7692785  26.5699339  50.4368162  27.4548841
  26.0745049  49.7468519  27.0135975  27.4304795  50.4190207  27.0361042
  72.0130014  10.7653213  34.6274304  71.4832020  10.1231790  34.1549921
  72.3673105  10.2812457  35.3733325  76.6624928  73.9713144  16.7814934
  76.3346195  74.8104763  16.4581645  76.9924021  73.5262537  16.0009098
  76.0997057  71.7352629  20.7922196  76.9295073  71.8405008  21.2576103
  76.2820148  71.0746861  20.1239133   2.4928857  28.4461951  24.6446204
   2.9643121  28.3887482  25.4756975   2.9658592  27.8543901  24.0595603
  21.8519521  58.6880112  57.3506308  22.7518725  58.4579706  57.5818396
  21.5643024  57.9800081  56.7742395   2.6991883  38.5618234   5.0928128
   3.2465333  38.2408142   4.3761560   3.0843073  39.4057512   5.3288317
  29.6243358  45.5998421  14.6453428  29.6223450  46.5423441  14.8124218
  29.9189234  45.5180120  13.7382853  75.3325891  27.5069404  35.9261966
  75.8931494  26.9559646  36.4724874  74.8081589  26.8869853  35.4193830
   1.9726062  35.5022359  36.9762540   1.9082303  34.5548105  37.0965624
   2.0147981  35.8542585  37.8653717   0.5551812  46.9375372   0.2345590
   1.2405849  46.8047428   0.8894021  -0.0208678  47.5970507   0.6211317
  14.2394316  37.0966315   6.9585681  13.3235264  37.1321774   6.6827297
  14.5911658  37.9577518   6.7327690  63.7356377  27.6703167  59.4686699
  63.8075781  28.2771850  60.2053976  62.7991199  27.6411819  59.2729330
  12.0981693  53.3249569   9.0798044  11.1819017  53.4370089   9.3330425
  12.0616460  53.0522585   8.1629997   8.8258988  66.1196470  18.1858969
   8.7023360  65.1715708  18.1398714   8.0093801  66.4844465  17.8446496
  69.0602160  25.6942654  39.3457556  69.5059443  25.0534987  38.7916994
  69.6796274  25.8706093  40.0539017   7.5520933   9.5463938  39.7620201
   7.6691741  10.2472734  39.1207004   6.6832405   9.7029030  40.1319265
  11.2192452  47.6745987  55.1597166  10.6048560  47.9945612  55.8203125
  11.4216864  46.7802095  55.4341507  52.1714687  25.7636809  43.0295181
  52.7164698  25.0898194  42.6231718  52.7937078  26.4263821  43.3293009
  15.9220088  20.2604675  35.1127362  15.9897184  19.3345594  34.8796272
  15.0261569  20.3615832  35.4343820  19.9849069  54.3702221  15.8611369
  19.9954569  55.2813721  15.5680084  20.1815271  54.4173241  16.7967403
  33.6654758  72.9646826  38.4670472  34.5672822  73.2541561  38.6055422
  33.7468505  72.0526743  38.1880260  37.0850945  50.5542803  52.2096682
  36.1414075  50.6220293  52.3549271  37.2405481  49.6190882  52.0774603
  54.8967648  37.2811818  51.7780924  55.2764273  37.2785068  52.6567698
  53.9711094  37.4808931  51.9177437  70.6065559  17.0320940  58.8664865
  70.6217432  16.1153948  58.5914135  69.7328377  17.3400021  58.6255836
   5.5144614  55.0059175  55.0839806   5.2099031  55.0752497  54.1791773
   4.7386852  54.7410488  55.5781937   5.8498174  30.2966833  37.3370862
   6.7843634  30.1140499  37.2396135   5.8162624  31.1565900  37.7562141
  69.1696024  30.4628348  33.5845089  68.4688663  30.1271939  34.1435719
  68.8627625  31.3264298  33.3083105  58.1088638  11.1857009  44.7507286
  58.6642408  11.4499605  45.4841805  57.3095846  11.7014301  44.8575592
  12.6229322  57.6765823  17.7581763  11.8680227  57.3569965  17.2640038
  13.1062102  58.2177734  17.1338439  19.2666554  51.8100786  31.6825151
  20.1525736  51.5261984  31.4571452  19.3885577  52.6561689  32.1132112
  49.4127560  44.1787863  50.3898954  50.1019382  44.7315693  50.0215387
  48.5993910  44.6365309  50.1774359  70.5543280  29.1239858  46.3042879
  71.2656784  29.6398902  45.9247398  69.8248291  29.7393680  46.3775492
  15.2777493  42.5974846  55.8737612  14.5074165  42.4824572  55.3173590
  15.1843536  43.4799147  56.2326813   6.1590499  63.4964514   7.2122461
   5.5016792  63.5087013   7.9079080   5.6499052  63.4852886   6.4017653
  49.0068102  40.4576111  43.2608509  48.3472538  39.8294759  43.5552406
  49.6392155  39.9299741  42.7731085  36.7925978  71.0541630   3.8391060
  37.3357844  71.2055922   4.6125710  35.9039116  71.2649393   4.1255361
   9.5636284  26.0292673  58.9627600  10.0893831  25.5646229  59.6138525
   8.8658082  26.4439249  59.4700480  54.0580750  27.3720884  43.9733839
  54.9241877  27.1318722  44.3025970  53.8958549  28.2419324  44.3384695
  50.7170010  68.4652948  63.9853907  50.3947687  67.8227186  63.3533335
  51.0063028  69.2039251  63.4496975  60.3754568  57.0052862  55.7030630
  60.2593517  56.4518166  56.4753485  60.2329969  56.4159155  54.9624014
  51.6894293  39.0641260  10.2459657  52.1637964  39.7964382   9.8523593
  51.3100100  39.4270158  11.0463297  25.0636411  54.8377562  30.6121492
  25.3009081  55.2093267  29.7625208  25.0379491  53.8928223  30.4615593
  34.6400762   7.0390058  42.6261139  35.0047088   7.0552772  43.5109949
  34.6798015   6.1182350  42.3675919  34.2219710  15.5420327  13.7771094
  33.5110617  15.2503848  14.3478823  34.9676132  15.6616473  14.3652761
  52.3126554   6.5996891  18.4369588  52.1316147   6.0613805  19.2074645
  51.8957472   7.4397933  18.6283886  62.8967476   3.1256226  59.2478275
  63.8177776   3.1692860  58.9908648  62.9160023   2.8350031  60.1596403
  60.5541849  30.1037693  60.8716583  59.7715139  30.6543112  60.8478880
  60.7089043  29.9475145  61.8032598  76.3436317  54.9686909  58.5738087
  77.0874548  54.5503664  59.0073538  76.4218426  54.7054720  57.6568365
  12.5459492  64.1636848  22.6966262  12.1717334  64.1566706  21.8156338
  12.0808148  63.4671259  23.1599712  34.1373849  74.1958570  33.3287191
  33.7045383  73.3555460  33.1778646  34.1396141  74.2966557  34.2805934
   6.9977367  14.0645289  60.2514219   6.4192379  14.8271346  60.2532339
   6.4248490  13.3298421  60.0317240  10.8459568  53.2007313  15.6852078
  10.3205383  53.2385015  16.4844203  10.2535987  53.4986258  14.9948430
  51.4031267  30.2267957  58.1697083  50.4769039  30.4397607  58.2836771
  51.4148664  29.2814422  58.0200434  10.9654129  44.5839453   3.4288019
  10.6749415  45.1760864   4.1225076  10.2234817  43.9952660   3.2901442
  68.4638834  39.8147917  17.7256536  67.9012346  39.6664906  16.9656110
  69.0388489  40.5330372  17.4615145  68.0707979  17.0148242  57.7739477
  67.9256439  16.4049518  57.0506096  67.9054022  17.8785062  57.3958826
   8.0926526  53.6161947  53.7555790   7.2500664  54.0520906  53.8831520
   7.9155511  52.6938391  53.9403248  74.0862131  55.2499008  47.3075199
  74.8987198  55.7355785  47.4495840  73.7635422  55.0599813  48.1884527
  76.1676979  53.1111336   2.0415196  75.3177786  53.5493994   2.0838062
  76.6853428  53.6496305   1.4429405  76.2446499  17.9221940  45.1708460
  76.2417793  16.9778454  45.0145531  76.8096018  18.0367768  45.9350014
  69.9955416  45.5499744  11.0033834  70.0927401  45.7604980  10.0746930
  70.8567095  45.7289934  11.3809645  32.2538280  48.6318254  24.9092627
  31.3242412  48.8241434  25.0322008  32.2725534  47.7241468  24.6059489
  29.9097633  73.9133072   9.0835249  29.4828296  74.6649170   8.6723816
  29.2933249  73.6267519   9.7574115  60.9777212  53.2484436  56.2798786
  60.8366346  52.5384092  56.9061232  61.6136599  53.8220549  56.7074203
  63.3583879  32.5534034  61.8619299  64.2853689  32.7496481  61.9976759
  62.9489994  32.7335715  62.7081966  47.1951246  53.0266047  14.6343887
  47.7567005  52.8240585  13.8861656  46.5171623  52.3511696  14.6147954
   0.6295046  30.2133584  17.6062918  -0.2197181  30.0037384  17.2175598
   1.2489857  30.1445723  16.8798316  23.5222578  70.2667189   4.1189298
  24.2042732  69.9993324   4.7350395  22.7048826  70.1608133   4.6056652
  39.0156484   3.6064327   9.4266176  39.8538542   3.9437664   9.7426105
  39.0696716   3.6847758   8.4741598   5.8122408   6.4042288  44.0491724
   6.1954534   6.0780919  44.8634291   4.9177691   6.0634309  44.0520763
   6.2920958   6.0438573  24.2317820   6.3266045   5.8223015  23.3012152
   6.6916943   6.9119483  24.2862868  59.7573662  31.3139558  56.8205261
  59.1120005  31.6918612  56.2230968  59.2764378  31.1760831  57.6365757
  39.3406272  11.7383826  18.9779723  38.9899468  11.6079879  19.8590255
  39.5303297  12.6754665  18.9319551  68.3713579  13.9729297  28.0105925
  68.9943027  13.2908130  28.2613683  67.8132057  14.0823424  28.7804818
  19.1489649  26.9642258   7.5603932  18.6059737  26.5128875   6.9141066
  18.9752162  27.8937507   7.4119687  78.4356928  57.5015545  45.1837063
  77.8649378  58.2189369  44.9083328  79.3138838  57.7816248  44.9256945
  62.2742224  36.1089492  55.9973192  63.0436230  35.9024501  55.4666471
  62.5317812  36.8799448  56.5027475  69.9601221  63.9005613  30.9550691
  69.6611691  64.3892956  30.1882577  70.7234859  64.3869400  31.2664366
  22.0384932  43.6289644   1.8939072  22.7863431  44.2255354   1.8614598
  22.4091315  42.7692080   1.6947189  67.8535604  48.0472517  45.4036474
  67.3331261  47.4345303  44.8840809  67.2059870  48.5841179  45.8604383
  33.2773566  48.0921459   7.4988437  33.1278872  48.1879234   8.4394383
  33.2754040  48.9886808   7.1635044  26.9065547  23.1202531  11.6729128
  26.3896084  23.0011916  10.8761537  26.2768650  23.4329796  12.3224711
  77.2500706  16.0309327  37.2307467  77.0587111  15.7845545  38.1356835
  77.4973726  15.2095222  36.8060613  52.5181389   5.4439306  36.5298438
  52.7532673   6.2932742  36.9034243  53.1416559   4.8304307  36.9185281
  74.6458626  69.4697905  19.2383456  75.0470591  69.5237446  18.3709562
  75.0550032  68.7055969  19.6443594   3.6770537   7.4073488  60.0524855
   4.5031482   7.8898114  60.0203991   3.5611454   7.1921748  60.9779596
  50.2707100   4.7715431  16.7681420  50.5426311   5.6396621  17.0658994
  49.3214846   4.8399693  16.6655481  59.7303486  26.2947392  37.3615479
  58.9956951  25.9576154  36.8488455  60.1704788  26.9090772  36.7740941
   2.7018714  31.2354469  55.8412552   3.5582069  31.6614747  55.8035421
   2.6535711  30.7229567  55.0342560  73.9981556  49.9951839  57.6614380
  73.8065863  50.6481743  58.3345842  74.2511749  49.2129517  58.1516695
   9.6959680  49.8195553  61.0401011   8.8901800  49.3740654  61.3017845
   9.9399424  49.4063711  60.2118540  11.0034966  42.4553061  57.1865940
  11.3658535  41.9785690  57.9333544  10.8250904  41.7782497  56.5339136
  73.6725330   8.9261240  49.0969610  73.8209724   9.3039256  49.9638271
  72.7647161   8.6234975  49.1198349  59.8172426  30.6460595  40.7392883
  59.1921520  31.3322020  40.5054045  60.5977726  31.1205435  41.0254145
   2.2018449  33.5303307  49.3257999   1.3799173  33.3666015  49.7882509
   1.9345409  33.9159322  48.4914827  35.4820347  64.9414206  34.6389103
  36.3695526  64.9677896  34.9964690  35.1952338  64.0385771  34.7761917
   9.7519684  37.0388556  48.1700325   8.8582414  37.3691535  48.2616234
  10.0821722  37.4585128  47.3756218  50.7020426  17.1574116  28.4110141
  50.2740145  17.9574072  28.1060052  50.6052780  16.5419888  27.6842952
  30.6934762  25.8123755   9.0066558  30.6604075  25.3258610   8.1829798
  29.8568797  25.6219959   9.4310308  19.0784180  55.3272438   4.4752166
  19.7437716  55.1647472   3.8065380  18.6755240  56.1558676   4.2158180
   9.9109739  40.6360054  44.3014193  10.5456495  40.9716749  43.6683750
  10.2357471  39.7642946  44.5269632  15.8447623  65.7638884  18.0436325
  15.6567192  66.4264250  17.3788667  16.2795329  66.2466049  18.7466204
  34.8675728  58.8741541  13.7426031  35.3714418  58.6682844  12.9552245
  34.2885065  58.1210899  13.8601077   6.8372142  53.0290842   0.5114948
   6.6108465  52.8725290  -0.4052820   7.5562668  53.6599207   0.4762943
  63.5800982  40.9599209   3.5039625  63.1926584  40.2226162   3.0322596
  63.2858229  41.7333174   3.0228242  11.2633777  18.1960523   2.1798231
  12.1938586  18.3818924   2.0537345  11.2165904  17.2423720   2.2471943
  39.8119378  24.0096521   1.8162863  40.2118397  23.1853247   2.0934096
  39.0042353  24.0675163   2.3266767  64.2284536  67.2762299   1.1404470
  64.2454243  66.4661551   1.6500768  65.0067711  67.7549267   1.4255801
  55.5408049  23.9256048  41.3960171  56.2527370  24.4124007  40.9807873
  54.7493362  24.2384672  40.9579277  33.1649590  22.8477550  56.2695646
  33.6455894  22.6041293  55.4784441  32.5367117  23.5069776  55.9746695
  66.8183851   6.1932868  14.9462092  66.2090445   5.5897826  15.3713143
  67.1773720   6.7158586  15.6633425  16.0896826  74.1773605  32.4852943
  15.6462801  73.3727980  32.7541971  16.0998595  74.7201824  33.2736301
  46.9888878   1.6198148  51.6591883  47.6493692   1.0642125  52.0730686
  47.3915243   1.8983987  50.8366871  51.1659813   9.6309489  29.6476889
  51.8402719   9.1491103  29.1687441  51.0882950   9.1685498  30.4821849
   3.5944122  31.6341400  12.8198981   4.3692070  32.1521902  13.0379570
   3.8021111  31.2369680  11.9741166  79.1113472  -0.2548856  36.5044951
  78.2674122   0.0232111  36.8603969  79.3801689   0.4657330  35.9346914
  23.4253240  49.7554874   8.5765636  22.4983597  49.5463753   8.6916280
  23.7795496  49.7708464   9.4656754   2.3646807   0.1567920  42.5087357
   2.7329421  -0.4915825  43.1089258   2.7858090   0.9796556  42.7572823
   1.3564856  56.5143633  12.7909875   2.0237567  56.1008787  13.3387220
   1.3669169  57.4345541  13.0543685  74.0627098  44.4761610   9.4559306
  73.6834288  44.6578026  10.3158057  74.8329496  43.9393473   9.6424502
  15.7238233  64.9478245   7.7020383  16.5749025  64.5531988   7.5118637
  15.6291449  65.6399488   7.0476449  45.1948881  61.1041307   7.6871759
  45.6444454  60.3793621   8.1217319  45.3722143  61.8633747   8.2424539
  23.8938546  61.7108774   7.3883492  24.5401931  62.3180485   7.0280433
  24.0486574  61.7289400   8.3327764  64.8384571  38.2057071  39.7550941
  65.7809210  38.2595563  39.9134874  64.6555519  37.2669959  39.7151041
   1.4296468  23.4388471  53.6217165   1.4045320  23.9125633  52.7903366
   0.9979917  24.0241861  54.2440367   9.4732273  26.9623017  16.9100475
   9.9170160  27.3528147  16.1571968   8.7269831  27.5389624  17.0737970
  27.1118712  65.6997061   5.8401734  27.5597763  66.4870453   6.1495459
  27.8116345  65.0578117   5.7196093   6.5601212  29.4198442  48.6784935
   5.9462130  29.3088078  47.9525328   7.2238642  30.0213242  48.3410072
  73.3366060  11.2941301  15.8650899  74.1344786  11.0144246  15.4163170
  72.6429987  10.7630801  15.4737747  71.7780733   2.8693607  19.0306509
  71.7715263   1.9233438  18.8849068  70.8855009   3.1491733  18.8275313
  22.7220273  67.5084639  26.8070769  22.8415370  68.4471416  26.9514227
  21.8333292  67.3300695  27.1146798  43.2544756  67.3197556   7.6942378
  43.2123423  66.6567039   7.0051652  42.5097466  67.8949881   7.5189781
   6.1118680  10.0128889  15.1611245   6.1085671   9.0663660  15.3036582
   5.2960628  10.1872706  14.6917784  60.5364561  10.5128050  31.9756341
  59.5893145  10.5034530  31.8375444  60.8705473  11.1074841  31.3040900
  17.3237586  71.4013004  60.9284735  17.6338208  70.6349373  60.4460049
  17.6279652  71.2592125  61.8248558  40.4203558  58.6415529  28.5839939
  40.4257774  59.1041803  29.4219542  40.6314135  59.3149281  27.9372716
  11.7068088  26.2897587  63.1775379  11.3993359  27.1962285  63.1789064
  12.5088894  26.3096952  62.6555204   8.3230639   4.3209878   2.5145823
   8.7628692   4.9565864   1.9499427   8.3946317   3.4913832   2.0424956
  24.6890521  21.3113713  13.7186587  24.1120815  20.8829618  13.0863595
  24.5699954  22.2470880  13.5558903  55.7566357  25.3326964  12.2727501
  56.5208101  24.9331450  11.8572628  55.8307314  25.0887752  13.1953788
  62.7528954  11.5969443   0.0803156  63.6640692  11.8700337   0.1871986
  62.5675774  11.0712051   0.8584468  66.8190670   3.6222875   7.4584603
  66.1162376   3.9690769   6.9089144  66.9518280   4.2925361   8.1288141
  53.9673281  18.9517343  17.6970935  53.8847589  19.8092294  17.2798204
  53.0901337  18.7618077  18.0297947  53.4872961  57.0175076  24.7765040
  53.8508844  57.7574968  25.2627635  54.2125607  56.7078400  24.2339802
  76.7629147  68.0094337  62.3803329  77.4379969  67.4452877  62.0031929
  77.1714211  68.8738632  62.4263906  38.6293459  73.9304161  29.4555449
  39.1834402  74.4431496  28.8670611  37.7535796  74.2998266  29.3423986
  43.4933090   6.7220521  10.2407467  43.0306053   7.5409436  10.4183841
  43.6806297   6.7514557   9.3025148   8.7537205  13.7741065  55.4688025
   7.8524542  14.0321541  55.6620979   9.0832794  13.4184778  56.2941217
  35.5767441  71.7778492  30.8023500  35.3482461  71.2711191  30.0230908
  34.9095798  72.4627924  30.8467841   6.7720407  22.6033425  35.4183006
   6.5524632  21.6724873  35.3791928   7.4261129  22.6661015  36.1143494
  29.7591281  28.4573650  63.2991600  29.2742348  28.7912178  62.5444078
  30.6792855  28.5833287  63.0674744  76.9892693  45.5509949  33.0446458
  76.9562912  46.1301947  33.8060069  77.8419542  45.1206779  33.1078243
  13.7885403   1.1936649  33.1602812  12.9818845   1.2378439  33.6736917
  13.8893389   2.0732530  32.7964163  73.5500193  67.0074511  58.3184671
  73.7415361  67.2485161  59.2248011  73.0943489  67.7687693  57.9593086
  21.8076158  66.0624695  55.4965258  21.0531521  65.8015728  54.9683714
  22.3588920  66.5636253  54.8955488  60.8516884  17.5053298  19.9247849
  60.1109600  17.0105958  20.2752018  60.6855583  18.4085667  20.1945877
   8.6007017  25.7152295  25.8294296   7.6751637  25.9216380  25.6990147
   8.8463062  25.2143478  25.0515938  38.8579321   7.1434301  19.8239684
  38.8883519   6.5213454  19.0971136  38.2793760   7.8417158  19.5175350
  63.5530663  27.2318625  41.6406965  63.6455297  26.6492796  40.8868551
  64.1203833  26.8493080  42.3100519  62.1630096  46.0867262  62.6470566
  61.3971853  46.6239929  62.4443340  62.3993731  45.6820107  61.8124485
   6.9403940  53.6861229   8.0969560   6.0943127  53.5555029   7.6688010
   7.3852634  54.3374205   7.5546122  74.5463562  21.2178636  55.5568647
  74.6982908  20.2740884  55.5075312  74.3687296  21.4794111  54.6533871
  27.6520252  33.4361577  57.2271252  28.2193398  33.5828519  56.4702463
  27.9954171  32.6402640  57.6331615  24.4331312  22.2318482  59.1815186
  23.5323453  21.9459867  59.3334961  24.4479823  23.1429195  59.4747019
  55.7373996  21.0646505   0.6244012  55.7657235  22.0098752   0.7726451
  55.4301973  20.9727592  -0.2774934  16.8190897  46.5711308   8.7084270
  17.5666094  46.4389658   8.1253493  16.1408472  46.9466257   8.1469822
  11.5466225  25.0631118  51.3850975  11.5234470  25.8043790  51.9902515
  10.8358908  25.2357197  50.7676029  47.2590971  30.5416942  61.1026049
  47.6706457  30.9728765  61.8515682  47.9926491  30.2522922  60.5600357
  24.0020919  16.2004042   4.7991833  24.0021610  15.2807558   5.0646615
  24.6622467  16.6109574   5.3576380   9.2443526  64.9489498   4.5793152
   9.8339015  65.6450033   4.8694429   8.9559329  64.5266104   5.3884351
   5.9690630  25.1333094  51.8514872   6.0876405  25.3446794  52.7775002
   5.0243628  25.1959229  51.7105913   7.5983524  54.0940857  58.5238838
   7.7196491  54.8207664  57.9127741   7.7745086  54.4732952  59.3849277
  32.6741767  44.7107697  61.7324162  31.8961453  44.5483255  62.2658110
  33.1576157  43.8849640  61.7562675   1.3800097  35.3180838  33.1586695
   0.6700539  34.8273969  33.5727000   1.3458599  35.0579786  32.2381210
   3.6549041  23.4956861  18.7153602   4.0760124  22.8754640  18.1201923
   2.8155741  23.6939478  18.3000910  43.0473995  62.0281792   9.5626503
  43.8951206  62.4602699   9.6670532  42.9629993  61.4754581  10.3395736
  10.6874824  16.0408604  21.5439868  10.7430661  15.4615700  20.7840085
  11.4574981  15.8220160  22.0687866   7.0162433   1.4637433   9.0027303
   6.9901758   2.2452444   8.4506357   6.7515421   0.7508604   8.4213841
  30.7374358  49.1750813   4.8547629  30.6368327  48.2413626   5.0399125
  29.8629546  49.4628668   4.5926672  55.9853983  71.0258770  20.4634690
  55.9196854  70.1016331  20.7036471  56.7208767  71.0627317  19.8519588
  27.8240275  10.5899310   1.7958841  28.0694199   9.9450719   2.4593380
  28.1038499  10.1999140   0.9677431   6.5960062  40.2973032   8.7483382
   6.9125313  39.3955541   8.6945117   5.8679026  40.2589464   9.3685210
  54.4820929  73.3973932  38.4036040  54.0908098  73.9708519  37.7446055
  53.9481449  73.5328484  39.1864061  45.6956387  37.2715640  57.6039600
  45.7403660  38.0586958  57.0611382  46.1491585  37.5117469  58.4119606
  48.9627743  52.6099014  12.7214766  49.0905809  53.4208965  12.2293496
  49.3738031  51.9347954  12.1815515  59.3397379  47.6133204  15.5679274
  60.0971985  47.6998138  14.9891305  59.6486378  47.0604467  16.2856615
   2.3718812  58.8535213  14.0126395   2.1969812  59.7931576  13.9604795
   2.9549861  58.7598848  14.7659338  56.2480688  22.4252081  62.3288393
  56.5400219  22.9100609  63.1007910  56.3434219  21.5048265  62.5738668
  21.9876742  60.3844738   6.1092210  22.3173690  59.5752621   6.5000045
  22.6676750  61.0329628   6.2916988  77.0193529  70.2681971  13.4323049
  77.7257395  69.6222448  13.4330940  76.2660027  69.7988415  13.0739796
   5.1594377  42.8371286  26.2624073   4.5563856  42.6931095  25.5331469
   5.9867764  43.0772877  25.8451962  25.5337882  69.7316980   6.3057214
  25.9416032  69.0489960   6.8384892  26.2647033  70.2767944   6.0144120
  67.6564741  59.1401720  51.3370800  68.4612989  59.6565723  51.2943697
  67.4018860  59.1692734  52.2593403  49.8401117  65.3774118  36.4073038
  49.3681955  65.8164597  37.1149516  49.1930676  65.2873707  35.7076931
  64.1828775  10.3341115  23.7850547  65.0357103  10.0128484  23.4923100
  63.5535145   9.9056286  23.2049394  78.2629013  71.7675543   4.3949813
  77.5365305  72.2788525   4.7516197  78.8988924  72.4228382   4.1080192
  14.1190469   7.4449873   0.9139591  13.2418692   7.8103459   1.0293028
  14.6484768   8.1835413   0.6131694  70.2750111  13.1121194   5.9469217
  70.6425571  13.4787953   5.1427484  69.9499750  13.8719308   6.4299023
  11.0558236  67.5680923  17.4328768  10.4572082  66.8819284  17.7279520
  10.8333719  68.3277369  17.9711008  39.1094899  55.3827572  26.1177921
  39.8599672  55.0452328  25.6288218  38.9661503  56.2595177  25.7614493
  29.0436792  70.6373024  57.4007750  29.2329097  70.6506920  58.3389854
  28.3525848  69.9819565  57.3051548  73.4978914   7.7499378  20.7191253
  72.7769041   7.1598953  20.4994464  73.7788725   7.4707198  21.5905142
  65.8646679  23.6960459  10.5492508  65.4611921  24.4745135  10.9332061
  66.6598749  23.5596657  11.0643005  17.4905860  71.8465137   2.8737935
  18.2492638  72.0232248   2.3175439  17.0128882  72.6756430   2.8978115
  39.1198444  57.8487396  57.7762508  39.2452288  58.7853241  57.9289627
  39.4434571  57.4305344  58.5741282  11.3632309  64.8644447  20.1891518
  11.5888393  64.3056250  19.4454765  12.0278704  65.5532312  20.1814890
  21.8710709  68.8925266   6.0100240  21.1447525  68.7314177   5.4077494
  22.1697521  68.0193233   6.2640637  49.7175169  55.4516888  17.5161350
  50.3877926  55.5926895  16.8474948  49.3010187  54.6265030  17.2674775
   7.0988727  63.9774847  17.7287996   6.2839192  64.3107367  17.3532653
   7.5371671  63.5393286  16.9993138  75.3579092  53.4576750  42.5066137
  76.2263441  53.0560637  42.4789572  75.4606152  54.2832136  42.0331478
  51.0745859  70.0979280  56.7515755  50.9079075  69.1643381  56.6217041
  51.9215155  70.2505875  56.3324785  64.6091986  50.6369019  15.2500904
  64.7498751  50.6410456  16.1968875  64.2755365  51.5123034  15.0536895
  44.2996454  31.5227294  60.4022551  45.1706028  31.1275268  60.4407930
  44.1936445  31.9520164  61.2511969   7.4106532  74.4284582  48.5672712
   7.4771607  74.8298693  47.7008581   8.2705355  74.0349579  48.7155771
   6.8201095  14.7890735  16.9291830   6.9150329  13.8436687  17.0450771
   6.9144070  15.1491463  17.8110492   3.7219334  11.9440877  52.7498913
   4.0510532  11.7091358  53.6174822   2.9131022  11.4408541  52.6561928
   3.6287022  18.3864522  58.5297728   4.0912801  19.0745842  59.0080309
   3.4358805  18.7757146  57.6768208  43.4127903  63.5397625   5.1744127
  44.3662310  63.5330820   5.2588779  43.1138754  62.8619909   5.7806396
  46.9357634  71.9695902  11.0120583  47.6223087  72.6237011  10.8815777
  46.7059469  72.0450497  11.9381917  19.2345178  64.6368217  55.5342770
  19.4246829  64.6581793  54.5964003  18.8328874  65.4863358  55.7166338
  70.0049162  46.0255575  26.6382813  70.1225233  45.9605694  25.6905603
  69.0758562  45.8419800  26.7774868  77.4669933  65.6291103   2.1863531
  78.0305147  65.7493258   1.4220087  77.9437447  66.0469913   2.9035121
  33.0537534  35.9267926  57.5844908  33.8192081  35.3539157  57.6305914
  33.4185839  36.8100166  57.5293303  65.6651831  39.5976639  21.8245029
  65.3176451  40.3039694  21.2799072  66.1061764  39.0140438  21.2071323
  58.2593155  12.4401963  64.5193434  57.9270077  11.6004169  64.2022085
  57.5049686  13.0278730  64.4765043  49.3553305  72.2692394  48.7000322
  49.8223305  71.5677738  48.2460690  49.8843431  72.4446201  49.4782495
  67.7178860  57.4314022  15.0661039  67.7785635  57.2392988  16.0018635
  67.4523354  56.6023493  14.6681261  33.4037709  15.2494752   2.5072587
  33.4478188  16.1572409   2.8076798  33.3893466  15.3136528   1.5523216
  49.2345476  73.2019567  10.9652913  49.5944929  73.8692236  10.3809774
  49.9937677  72.6854134  11.2354684  46.1932945  67.1771860  11.8281436
  46.9591570  66.7276716  12.1853864  46.5370750  68.0039215  11.4896750
  51.4758015  41.4789152  17.9592955  52.0638084  40.7237434  17.9733014
  52.0458412  42.2227383  17.7643180  58.3627224  69.8228884  13.5908067
  58.8637829  69.5105982  12.8373849  58.8587284  70.5754805  13.9130175
  29.8542857  22.2284174  19.8320198  29.4079208  21.6476560  20.4482222
  30.4071450  21.6457868  19.3113244  77.5406218  49.6182251  31.3923669
  78.1360006  49.5635796  32.1398735  77.1189976  48.7595463  31.3587093
  75.7887220  39.0442538   4.0503052  76.6560745  39.0110588   4.4538277
  75.6558037  39.9694514   3.8439620  39.1781950  72.5333977  20.1152325
  38.5660219  72.6966381  19.3977165  40.0415993  72.5523663  19.7024262
   7.1165687  37.8256369  16.5523922   6.5223205  37.0884562  16.6926253
   7.4541807  37.6958942  15.6661546  35.1572037  25.5537248  62.2050333
  35.4086637  25.5388641  63.1284904  34.6683455  24.7408247  62.0768070
  73.5157967  47.9782200  21.9348621  73.5501575  48.5545254  22.6983571
  74.3017626  47.4367809  22.0079041  66.7127848  53.1917858  45.6922913
  67.0919514  53.1599092  44.8139668  67.3441029  52.7283621  46.2426662
  30.0473237  25.5212855  63.2361364  30.9254456  25.7697535  63.5249186
  29.5834684  26.3527369  63.1373453  58.2434607  60.3491211   1.6407952
  58.7243080  61.0433006   2.0915045  58.7167263  60.2252197   0.8180562
   2.5981259  27.3504043  54.2733908   2.2589430  27.0153165  55.1033926
   2.1543649  28.1902027  54.1548729   0.7690655   7.0626110   4.9001387
   0.5911005   7.9728913   5.1366752   0.2753027   6.9242471   4.0918779
  68.5674429  10.4073596   9.1229439  68.5486412   9.9611408   9.9695653
  68.6896944  11.3311589   9.3417603  28.7042928  47.4690485  11.0656810
  29.2660117  46.9865894  11.6722596  29.2498112  47.6054859  10.2910674
  64.0464878  27.4332380   6.6213024  64.5870352  26.6996145   6.9142801
  63.7556744  27.8544784   7.4301386  74.8711109  12.0478833  29.2831779
  75.4012680  11.4540434  28.7516522  75.5070114  12.6324284  29.6956944
  78.6690044  11.0138619  17.2619128  78.8118601  11.1691296  16.3282549
  77.7951956  10.6259894  17.3092628  15.3924036  15.3284299  15.0431097
  14.6808732  15.7520545  14.5630062  15.7450438  14.6840286  14.4294131
  14.9993169  60.2164125  60.9623098  14.9365747  59.5179749  61.6138268
  15.2832258  59.7733116  60.1627541  64.6591282  57.0296144  23.8026214
  65.3943157  56.4741659  24.0618658  64.4984198  56.8022156  22.8868175
   5.5729300  73.4990263  28.0603456   5.7512379  72.6502752  28.4653807
   6.3889456  73.9889860  28.1617975  22.4596930   3.7265959  31.0143280
  22.6320815   3.1837428  30.2450275  22.4983883   3.1169143  31.7512298
  15.3550208  26.1298561  21.1705375  15.1911974  26.4023185  20.2676773
  15.3660512  25.1734233  21.1338329  63.1224966   4.3310776  56.0559559
  63.7185907   4.8622987  55.5280256  62.4319839   4.9383903  56.3216543
  39.8766088  51.1197710   1.4507852  39.9340773  51.9007921   0.9003871
  39.3569136  51.3963604   2.2055367  64.6349096  34.2249155  16.1388230
  65.2613831  34.6342993  16.7356241  63.9696550  34.8972607  15.9917963
   9.1789967  12.2030210  38.8156462   9.7737235  12.4457669  38.1059933
   9.3023521  12.8853798  39.4754934  71.6054630  36.7794919  57.1864939
  72.0279121  35.9275079  57.0774317  71.5013075  37.1111035  56.2946367
  64.9472380  60.6855011   6.8957692  65.6178617  60.7581663   6.2166405
  64.8996258  61.5609074   7.2799963  10.6362700   8.6859518  10.2606785
  10.5999243   8.9021659  11.1924303  10.8260536   7.7479899  10.2396834
  61.4816952  54.0142012   4.6642134  61.9533634  53.9264774   5.4925048
  60.6694937  54.4637775   4.8975435  71.5707827  58.2581949  42.1173143
  70.9409857  58.1453705  41.4053774  71.5738106  59.2001629  42.2873831
  77.0316458  70.5903578  18.2486594  77.7895641  70.8269358  17.7140379
  76.8465137  69.6813345  18.0127788  15.4015350  53.6055088  40.4869747
  15.5540168  52.6680040  40.3683710  15.3693175  53.9573526  39.5973682
  38.5552502  63.3936214  25.5719018  37.7225161  63.8570404  25.6615019
  39.2131877  64.0248299  25.8633256  39.4739747  72.3901606  12.7499163
  40.0187445  72.6085901  11.9937778  39.0297484  71.5802336  12.4990940
  18.6708272  57.5002384  51.7507648  17.7918255  57.4418163  52.1251631
  18.8253212  58.4392405  51.6476536   2.3266354  68.3964443  52.0893574
   1.6461238  68.9647150  51.7285252   2.2199652  68.4675837  53.0379343
  57.4521208  59.8483849  17.2319770  57.1324587  60.5862999  17.7511334
  58.1979609  60.2018595  16.7471933  74.0777063  35.3315759   2.6566845
  74.0684080  34.7590470   3.4237280  74.9328041  35.1791835   2.2544166
  69.8536396  49.5228815  12.2043145  69.8701620  49.5937490  13.1587446
  69.9526787  48.5865545  12.0319200  63.4345293  42.3368979  30.3303313
  63.0354071  42.1920490  31.1882067  63.8871145  41.5163612  30.1351070
  64.2282295  64.7594643   2.1357164  64.4337034  63.9657211   2.6296636
  63.4844542  64.5134830   1.5856946  55.4631710  55.9973145   4.3822485
  55.5525970  56.2715721   3.4695512  55.5240726  55.0425148   4.3524948
  76.5197325  27.1930766   7.8653437  76.7195702  26.4274645   8.4039819
  76.4112234  26.8422937   6.9813710  75.9106731  52.3527193  27.1694875
  75.9196949  52.1103334  28.0954456  76.2791777  51.5925932  26.7193270
  20.8410335   0.1988362  28.5998082  21.6783571   0.5164057  28.9378452
  20.4698849  -0.3110049  29.3199062  22.4920583  58.3615494   7.8437644
  22.3291922  57.4488640   7.6056278  21.6648626  58.6621666   8.2200754
  11.6451836  44.4765759  14.3706453  12.5557685  44.6154022  14.6310198
  11.1768925  44.3493080  15.1957142  32.2694206  34.1236830   7.6713324
  32.6761365  34.9566293   7.4325585  32.7383661  33.4705734   7.1519399
  78.3498162  11.8007982  14.6625149  77.6893615  11.7184591  13.9745820
  78.7962446  12.6249969  14.4685304  76.2356997  12.6062548  12.7744532
  75.3091860  12.3684978  12.7387893  76.2347651  13.5526669  12.9177547
  18.3153641  63.2744694  51.7981005  17.9782081  62.3811388  51.7308664
  18.6787069  63.4591579  50.9320164  63.0063438  54.6233749  57.4403906
  63.0383921  54.9867392  56.5554190  63.4298801  55.2855158  57.9866648
   6.0512984  53.7656879  27.4280834   5.1498091  53.8026524  27.7477431
   6.5272349  53.2890892  28.1082058  60.8732939  14.5328307  51.6811562
  60.0798035  14.2787814  51.2099218  60.9291172  13.9125693  52.4080658
  26.9673204  48.9950848  64.3363142  26.8257070  49.7327852  63.7430429
  26.8806672  48.2206488  63.7804651  15.4170918  10.4454076  19.9865520
  16.1747694   9.9995607  19.6079004  15.3976655  10.1527703  20.8977151
   9.9197376  34.0565181  40.3312492  10.2450025  33.6956358  41.1559916
   9.6639788  34.9534273  40.5465984  44.0437412  39.5578814  61.0659885
  43.3192825  39.4972491  60.4433203  44.5553541  40.3091192  60.7657814
  59.4269733  68.2716737   0.9234210  59.0552501  68.4063206   0.0516864
  60.3061132  67.9306970   0.7588692  57.3806763  35.4044652  36.4445853
  56.7753983  35.6301188  37.1509480  58.2434130  35.4047084  36.8592167
  74.2116737   4.9568298  18.8214779  73.6189461   4.2149898  18.7007177
  74.5604324   4.8432907  19.7056198  21.1636376  23.7692285  52.9611397
  20.3275418  24.2067504  53.1216002  21.0411859  23.3174419  52.1261978
  12.1796262  35.4477811  63.0746889  11.9087744  35.0980568  62.2258282
  13.0017865  35.9036922  62.8946066  68.7965727  59.9459076  30.1686406
  69.3643188  60.5728149  29.7204423  67.9381132  60.0677395  29.7631335
  74.4698429  62.6943731  13.2824481  74.0544605  62.0902014  13.8978028
  73.8800526  62.7116776  12.5287402   5.9430593  10.9848940  31.9620037
   5.6103009  11.0794890  31.0695052   6.8203819  11.3665366  31.9322300
  20.5730653  14.8621261  47.2038889  20.8658600  14.2070127  46.5703821
  21.3199306  14.9778664  47.7912807   8.6492848  51.6126966  44.5515442
   8.3896458  51.3406086  45.4317617   8.3435881  52.5169802  44.4804430
  28.0745697  11.7831647  21.7816305  28.1986904  11.1595535  21.0661340
  27.1389365  11.9844675  21.7642927  40.3372288  49.3817282  55.3675985
  40.2643442  48.7366772  56.0710335  39.6535730  50.0236273  55.5594730
  70.2136326  62.2890997  25.8218718  69.7122288  61.7409134  26.4254570
  70.9027624  61.7129135  25.4911995  34.4050598  17.3596764  17.6085997
  35.2680492  17.6446152  17.9090846  33.7894630  17.8079915  18.1885004
  29.2421985  52.4255133  33.1990910  28.8454390  51.5621424  33.0833197
  29.4883633  52.6965237  32.3146772  13.6328423  44.1676712  63.0676174
  13.6007535  44.4249773  62.1462059  13.4758794  43.2234716  63.0582285
  19.2929792   5.8078998   0.5014104  18.9074945   6.6746432   0.6294317
  18.7652290   5.2276379   1.0500520  73.1074047  30.3929353  50.5603504
  73.5279942  30.6088567  51.3926458  72.2308350  30.0961661  50.8048487
  38.6862946  63.1826305  35.1063013  38.5681200  64.0752792  35.4310250
  38.4905386  62.6257658  35.8598351  23.3712053  47.9428768  50.0893545
  23.0935812  48.1960869  49.2089891  24.0476823  47.2809982  49.9460697
   1.1376048  65.3445482   9.0216285   0.5689168  65.2756882   9.7884947
   0.9162738  66.1915731   8.6345977  68.4603596  17.2949493   9.6600574
  67.7094460  17.8874755   9.6244478  68.4533978  16.9529307  10.5540407
  76.2216282  33.4232235   7.2793669  77.1349096  33.4488201   7.5648296
  76.1964226  32.7307844   6.6189706  55.8358622  71.1489344  26.6728878
  55.0709009  71.7059517  26.8171191  55.8288717  70.5371380  27.4090147
  71.3273716  33.8448977  57.7649546  71.5677452  32.9393744  57.9611206
  70.4252911  33.7902784  57.4495077  40.1018238  65.1710701  46.7636013
  40.9673166  65.5762196  46.8184280  40.1715136  64.5550203  46.0343122
  55.3938580  39.7674966  54.9788523  55.4553270  38.8921046  54.5965719
  55.8357620  39.6911311  55.8245039  46.8915749   7.6756972  22.9853582
  47.5889158   7.1750778  22.5618863  46.7308092   8.4104878  22.3933554
  10.9719670  38.9479136  60.4148340  10.7003605  38.4706092  61.1988258
  10.2034974  38.9286780  59.8444700  65.7198286  18.9992070  53.5919333
  66.0316181  19.8805058  53.7976837  65.1243830  18.7822485  54.3092918
  51.3234234  57.7130938  54.4129086  52.2030878  57.9559851  54.1240740
  51.0747051  58.4023476  55.0287819   0.3220196  23.8505030  61.8762827
  -0.5230216  23.4861135  62.1396494   0.6778737  23.2095718  61.2608099
  22.1754909  11.0470045   5.9078813  22.9597235  10.7018995   5.4811311
  21.5380168  11.1384094   5.1997119   3.0692267  49.7411442   7.2705019
   3.3253998  49.4491529   8.1453443   2.5851858  50.5530787   7.4211735
  12.0253658   8.1718147  19.8337138  11.7424273   9.0726978  19.6769106
  12.8090763   8.0694854  19.2937505  27.5139976   7.6694918  22.3406386
  26.7019463   8.0571443  22.0142508  27.7418160   7.0065379  21.6888547
  62.7689171  62.0167208  14.6146977  63.2746410  62.7482557  14.2606747
  62.8162909  61.3425398  13.9368594  52.3083639  47.5409460  17.1978116
  52.6535988  48.3279085  16.7762244  52.5044107  47.6613712  18.1269491
  73.5874796  12.8469968  52.9327917  73.6383533  13.6107004  52.3579836
  72.7989769  12.9927659  53.4555244   9.9137563  12.1330118  13.1771457
  10.0166833  12.8062677  13.8497257   9.4563454  11.4189219  13.6210859
  23.9280534  37.5124311   4.5384130  23.7179780  36.6383839   4.8672670
  24.7281837  37.7573061   5.0032365  11.5854895  51.9957924  47.5695133
  10.6598055  51.9341803  47.8051949  12.0518792  51.6995430  48.3511448
   8.8797045  18.1399870  24.5317864   8.7153089  17.7343845  25.3830743
   9.7298932  18.5684776  24.6308160  18.4102571  12.7928019   5.1051217
  18.9922357  13.2918561   5.6782520  18.9346027  12.0420778   4.8263609
  66.1289024   8.7080097  22.8357363  67.0514011   8.6342674  22.5912166
  65.6916142   8.9994478  22.0356894  60.1962233  14.9286461  22.5404978
  60.8230352  15.3315949  21.9396877  60.6983852  14.2490613  22.9901958
  15.0202298  24.1661906   1.5608352  14.4513607  23.5879803   2.0690596
  14.4794071  24.4454408   0.8220778  62.1376705  31.0698080  38.6178613
  61.8238354  31.2946129  39.4937634  62.8263760  30.4224563  38.7690282
  76.1481571  31.3456154  56.6771412  75.7396841  31.5934992  57.5065613
  75.5102062  30.7669830  56.2594891  34.4769764   9.2174476  30.5846190
  34.5695806  10.0875676  30.1966143  34.0007734   8.7111688  29.9264836
  35.3144860  54.7864771  63.8317299  35.6928205  55.5387211  64.2869473
  35.8446956  54.6940470  63.0401707   0.9842422  36.7880440  39.4154310
   0.3810371  36.2139273  39.8874140   0.7087278  37.6731038  39.6541595
   3.4751263  21.3858271  33.8302755   3.9516658  20.7579231  34.3733025
   4.0327287  21.5098929  33.0622125  42.8817606   8.2359582  41.4223576
  41.9751787   7.9464519  41.5249443  43.1234694   7.9579085  40.5388975
  15.1799905  45.8354568  24.9738383  15.1516879  46.1766100  24.0799451
  15.2304804  44.8856640  24.8662281  23.6395288  10.2366185  55.2116156
  24.5852685  10.1290536  55.1104164  23.4525371   9.8996055  56.0877895
  19.1181636  19.8788011  48.7225914  18.5076296  20.6015944  48.8676786
  18.9860022  19.6338153  47.8067589  65.0437927  55.8157492  45.9516048
  65.7938337  56.3983631  45.8323193  65.4315424  54.9524689  46.0952234
  23.4725404  21.8047023  62.3465252  24.0207744  21.8030453  61.5618801
  23.9577937  22.3373604  62.9766321  19.5239890  22.5454473   2.9991335
  19.5738125  21.8029308   3.6011454  20.4356861  22.7373695   2.7795705
  27.9621458  59.5387840  49.7249222  27.4909902  58.8175488  49.3077087
  27.3798370  60.2924299  49.6291971  10.9339237  22.0206165  33.0163670
  11.5343785  21.3178635  32.7677226  11.0280311  22.6728797  32.3221564
  35.6867194  18.5466552  12.1771300  35.6928205  19.4778526  12.3986363
  34.7588658  18.3257294  12.0964336  21.9349527  11.9825542  11.2021244
  21.2591052  12.4147153  11.7243314  21.7381883  12.2345567  10.2998984
  11.0510123  70.0528669  13.4650886  11.2616634  69.9605227  12.5359321
  11.1279047  69.1661835  13.8173854  53.1558466  70.0958157  14.3948674
  53.9686441  70.0402308  13.8923717  52.5637770  69.4811583  13.9614177
  57.0287180  21.6956878  56.7575979  57.2308207  22.6117277  56.5671873
  57.3057318  21.5730381  57.6655960  58.4823513  39.3850493  63.2574272
  58.2214212  39.9144340  64.0110207  58.5405827  40.0097513  62.5345230
  77.4620199  53.4239197  34.8096704  77.2830296  54.3310738  34.5621419
  76.6110229  53.0759764  35.0760794  76.5384769  28.2172203  25.2038145
  76.3452148  27.9426050  24.3074512  77.4660063  28.0125785  25.3222966
  49.2687798  60.3877068  59.6200180  50.0754690  59.9508190  59.8931551
  49.5000410  61.3157797  59.5821142  35.1848364  17.8236306  28.8430667
  34.7006369  17.0818245  28.4804296  35.8880115  17.4235964  29.3546820
  58.2832241  16.7252195  49.9406528  57.9962730  15.8295238  50.1184797
  57.4889231  17.1800244  49.6605206  61.2954044  40.1072645  51.8176842
  60.7960272  39.3705058  51.4654875  62.0859623  39.7086692  52.1815157
   3.1484926  55.6628180  61.8900728   4.0387902  55.5992222  62.2358418
   3.2066542  55.2927637  61.0092163   3.5387647  49.8248959  62.0022678
   3.5428593  50.6900215  62.4118662   3.2621732  49.9881220  61.1005545
  61.3697815  72.5658846  48.0156231  60.8184958  72.8543234  48.7430334
  62.1208000  72.1467829  48.4358120  58.1918955  12.2156835   6.3073272
  59.0175152  11.9616318   5.8949620  58.4087086  12.9969871   6.8160397
   2.6554745  44.4825840  16.5663600   3.3650774  44.7098970  17.1672130
   3.0982512  44.2462158  15.7513058  79.0069771  73.5350227   2.4886158
  78.5663939  72.8442287   1.9937214  78.3506441  74.2269707   2.5703162
  71.7869997  45.0681496  56.9356346  71.7926359  44.5348024  56.1408138
  71.9618464  44.4466829  57.6423407  74.4242477  72.1157932  13.3496249
  74.4431448  71.2072563  13.0488944  74.4100428  72.0517445  14.3045735
  48.4460545  11.7515314  16.3617253  47.5046539  11.6139686  16.4669228
  48.8144159  11.5561795  17.2233403  55.8477116  68.4612513  21.5827346
  56.1039543  67.5400257  21.5390229  55.1166296  68.4774542  22.2003841
  15.6805480   9.5307314   0.1620719  16.2453175   9.9771935  -0.4687523
  15.6894350  10.0966692   0.9339967  27.8486371  49.5692253  12.7027416
  27.0705175  50.0497913  12.4202168  27.9021430  48.8257551  12.1022260
  53.7391758  35.5470872  63.1193876  54.6636009  35.2990818  63.1068087
  53.5627222  35.7674026  64.0340233  40.2460146   3.5734868  49.1733170
  40.0044918   3.9296621  48.3183098  40.9568596   4.1385448  49.4760466
  65.7434464  36.9925594  15.2852404  64.8872280  36.8993664  15.7028961
  65.5830479  36.7928767  14.3629432  10.5110371  66.6505766  22.9209256
  11.1675680  66.0126352  23.2006216   9.8051482  66.1209488  22.5501895
  10.4088140  11.3679624  19.0210783   9.8924011  10.6077743  18.7533784
   9.8069608  11.8924034  19.5492518  15.4771888  57.3482847   4.0010643
  14.8875475  57.5434494   4.7293955  14.9251199  56.9020891   3.3589086
  17.6060247  45.3290653   4.0687373  16.9646668  44.7521687   3.6539081
  18.4325612  45.1207352   3.6332279  78.0443621  23.1769347  29.4969773
  77.5673342  23.6452627  28.8118887  78.3502531  22.3760915  29.0711689
  75.9994602  17.4383223   5.6628817  76.7368841  18.0343950   5.5319762
  75.3430176  17.7265286   5.0286496  57.0135880  15.5266154  53.3661985
  56.4417553  15.9089804  54.0318060  57.6956415  16.1842406  53.2299423
  62.3139191   7.7752864  53.9830303  62.4598694   8.2499170  53.1647062
  61.6467714   7.1239579  53.7664270   1.7609230  11.6881156  28.5320187
   0.8627281  11.4665747  28.7777758   1.8414447  12.6203358  28.7337971
  65.2697420   3.6270341  57.7526999  64.5484543   3.8393664  57.1603441
  66.0129070   3.4570262  57.1738768  31.9204450   2.8243381  54.9683571
  32.4197912   3.3781537  54.3682146  31.7809701   3.3727416  55.7403898
  18.2129884  70.8582115  63.5083580  18.0522227  70.6674480  64.4324780
  18.5502577  71.7540169  63.5038662  28.2707095  30.2634954   1.8272056
  28.2974339  29.5010996   2.4053654  27.8385353  30.9422207   2.3456557
   2.7407530   8.6031502  26.0629916   2.1289244   9.2790502  25.7713485
   3.5566667   8.8048756  25.6049275  72.7277470  58.3614731  36.4067292
  71.8893194  58.7825298  36.2170315  72.5853109  57.9075813  37.2373486
  66.4436674  59.8787117  28.6021399  66.1465597  59.1654682  28.0371237
  66.1468029  60.6740761  28.1599832  75.6358624  68.0273724   5.4950172
  75.4884672  68.9327860   5.7683885  76.5705252  67.9874849   5.2924335
  73.1713486   6.5861911   7.1369916  73.6086798   5.7819587   7.4166059
  72.9190397   7.0178449   7.9532313   2.9155174  10.4423249   0.0839784
   2.6355511   9.6172321  -0.3123449   2.1174896  10.8073378   0.4662732
  26.7880321  13.2042146  46.7538500  26.3336277  12.8865147  45.9735823
  26.0924816  13.3409083  47.3970842  36.6109681  74.4952106  52.7784204
  36.4040565  74.1473341  51.9110107  35.7583761  74.6845579  53.1701660
  49.6385288  44.5751476  62.4822664  48.9978647  43.9139605  62.7442026
  49.9228334  44.3009949  61.6103506   1.7001650   8.7771624  51.1527634
   2.3170093   8.5187286  50.4679680   2.2241858   8.7929076  51.9536304
   0.2534428  25.3377771   7.5671726   0.3337420  26.2907767   7.6069027
  -0.5113425  25.1391268   8.1074256  67.5156546  54.0692997  56.5021992
  67.1001720  53.4412241  57.0930719  67.4398947  54.9096537  56.9541836
  57.1530342  26.5158319  23.1215334  56.6477728  27.3279071  23.0830979
  57.2510386  26.3387704  24.0570951  67.5394106  51.6460562  15.5042827
  67.7442646  52.5810289  15.5140078  66.7051601  51.5788031  15.9687567
  46.2573099   6.2783438  15.0859773  45.8218384   5.6950092  14.4644344
  45.8280468   7.1247476  14.9612188  70.0585175  45.5838060  23.6693954
  70.5160904  44.7753334  23.4386849  69.1638136  45.4503012  23.3564854
   7.7038646  36.9940639  53.6727381   8.6503339  37.1308708  53.7141085
   7.3506552  37.5524306  54.3653440   8.6805546  14.4999516  36.1467004
   7.9941565  14.2936158  36.7811418   9.4494182  14.0254796  36.4628601
   9.2413223   0.6880193  58.6642981   8.4909105   1.2423173  58.4501314
   9.9491984   1.0191923  58.1116104  15.8634043  15.6438279  27.5155306
  16.1960316  15.8346629  26.6385055  15.1559162  16.2752306  27.6460004
  63.3548737  53.1064081  15.0840235  63.4573698  52.9799938  14.1407597
  63.7846422  53.9430523  15.2616465  59.1600466  53.4686661  51.9314337
  59.2240810  52.6260233  51.4818907  58.8752127  54.0809870  51.2530851
  11.7090249  21.8884420  16.3001955  11.3784528  22.5741887  15.7199323
  11.4110804  21.0716653  15.8997750  18.9389110  72.3689985  23.8053823
  19.7938144  72.0625639  24.1078234  18.3096397  71.9137907  24.3648767
  16.8165004   3.9038876  39.8953104  17.0264888   4.8110399  40.1171446
  16.1980069   3.9721975  39.1679645  76.7756367   3.5215914  23.1578660
  77.4902534   3.6026409  22.5262117  77.1792555   3.1164822  23.9254665
  62.5469971  64.3060493  17.5743425  63.1672382  64.9989080  17.3474467
  62.7000713  64.1429138  18.5050344  62.9154158  20.9681129  52.9353237
  62.7110863  20.5255675  53.7591171  63.6015511  21.5951204  53.1640434
  66.1574697  65.6335402  18.1097043  66.1542416  65.1985312  18.9623404
  67.0849037  65.7277060  17.8923762  79.0598235   0.9576871   3.5193878
  78.6457770   1.8009853   3.7028152  79.0405822   0.4942529   4.3566993
   4.7904301  18.7482417  26.7492414   4.6820018  18.6231375  25.8064675
   5.6229973  19.2126811  26.8350339  60.5551195  60.4327202  51.1066484
  60.7182646  61.1243677  51.7479277  59.7201729  60.6714773  50.7040453
  76.5304232  20.0477123  38.4033656  76.3409233  19.2558873  37.9000425
  77.4843168  20.1237011  38.3801818  45.4793072  71.9461775  39.0204263
  46.1028337  72.0369864  38.2998681  45.1428843  71.0541248  38.9350581
  50.3209305  70.3590393  51.7788649  50.3739214  69.6019697  51.1955404
  50.9074068  71.0055637  51.3860750  65.8950424  67.6162148  10.9064150
  66.6845608  67.1941566  11.2451863  65.6048679  68.1874228  11.6175747
  35.8959389  51.1106682   8.5274959  36.0301447  50.4342508   9.1913337
  34.9669409  51.3312864   8.5947508  17.9035687  21.7320251   5.3652143
  18.7003672  22.2293615   5.5496055  17.4432147  22.2526407   4.7069839
  22.0806003  17.6282060   8.6428940  21.7935872  17.7504408   7.7379555
  22.9498339  18.0277848   8.6745226  55.9920454  56.3354826   1.5771273
  55.8184433  57.2510529   1.3584210  56.8162632  56.1353779   1.1334455
  51.9783783  19.6298969  47.7773142  52.3768711  18.7702870  47.9133511
  52.3712683  20.1852942  48.4506655   9.9293035  11.3626111  30.1849961
   9.6325642  10.4803348  29.9619150   9.3902981  11.9403589  29.6447062
  73.3042145  60.4649067  14.6717072  72.5990438  59.8201275  14.7284448
  74.0047646  60.0129223  14.2014194  63.9039612  17.9968083  12.1355975
  63.0157804  17.9748833  12.4918056  64.4711781  17.8971982  12.9001725
  62.6852751  60.6909895   0.7506255  62.4781513  61.6099787   0.5809347
  63.2644892  60.7127190   1.5123822  42.4842739   8.2000178  15.0921190
  41.7952919   8.8608044  15.0221574  42.0179749   7.3878038  15.2898645
  28.5188675  62.3533964  57.4761438  28.4912634  61.4022923  57.3718739
  29.4504857  62.5588369  57.5543118  77.1443701  12.8998899   8.3703774
  77.8339958  13.2594895   7.8124070  76.4613008  13.5704470   8.3691746
  36.5546107   7.3657322   9.2131072  36.8110061   8.1761336   8.7729460
  36.8744206   6.6698098   8.6389595   9.5203179  12.8271949  58.2640457
   9.8399943  12.1499598  58.8601923   9.8941231  13.6405730  58.6030388
  65.0441313  13.1926954   0.2459970  64.4914484  13.9319181   0.4996249
  65.6883764  13.5697961  -0.3531482  67.4102736  12.1059918  32.9093051
  67.1416140  12.9530299  33.2650876  66.5882730  11.6631472  32.6985168
   7.0099270  71.3097668   5.5314511   7.9415768  71.1080694   5.6185037
   6.5963942  70.4632568   5.3622085  31.3019300  61.7285824  34.4717336
  31.8490219  62.4078989  34.8660040  31.7215753  61.5403509  33.6322689
  51.7887592  40.6558561  50.5830574  52.6140308  40.9959173  50.9287739
  51.1150599  41.0629034  51.1277294   6.7265856   7.4486476  15.5859959
   7.3781002   6.7507505  15.5174291   5.9582138   7.0225281  15.9658086
  26.1581111   8.1633580  36.9656873  25.5508542   7.9752648  36.2500787
  26.2349439   9.1174591  36.9700789  39.8207927  63.0667400  51.1849546
  40.5279922  63.0106354  50.5423403  39.4470096  63.9382029  51.0542774
  17.3598623  36.0294056  50.9222412  18.2139122  36.3758087  50.6637144
  17.1852994  36.4326239  51.7726374   9.2414588  13.2023191   8.3757454
   9.2830718  12.4264026   7.8167695   8.8650763  12.8859556   9.1970140
  23.7110591   6.0378599  32.4462366  23.0460024   6.7112476  32.5893474
  23.2851315   5.3979659  31.8758392   0.6047053  11.6605365  42.4783754
   1.0166003  12.2196066  41.8195772   0.1454848  10.9911287  41.9711876
  68.3139467  38.7494707   7.6719737  67.9590607  39.2132640   6.9135660
  68.1621361  39.3424153   8.4079099  13.5478139  17.1691811  57.5174475
  13.0634499  16.6960549  58.1940413  14.4558120  16.8890357  57.6327276
  38.8265538   8.0526614  16.2971723  38.1149912   8.1580079  15.6656563
  39.5103550   8.6473340  15.9889317  51.4746952  48.4245491  60.6105566
  52.0721388  48.9103127  61.1791754  50.8863306  49.0911818  60.2560711
  63.3300209  57.9307318  53.3093166  64.1882849  58.0769539  52.9115295
  63.2598639  58.6071539  53.9829397  51.8438673  59.3327761  59.4665861
  52.0530224  59.1541386  60.3834105  52.3977661  58.7284374  58.9724159
  59.0437078  27.9928589   7.7860725  59.0942287  27.8464985   8.7306666
  59.7438335  27.4511075   7.4219793  27.5116110  44.7417307  16.3476503
  26.8166232  44.7350311  15.6894863  28.2908440  45.0265455  15.8702552
   8.4314650   4.3479329  31.8731594   8.9809412   4.7751868  32.5302458
   7.6628888   4.9136540  31.7991161  14.8660648  24.8124957  59.2782927
  14.1467762  24.2681694  58.9580345  15.1538265  24.3803048  60.0824308
  44.9653387  66.4928246  41.8781042  44.6836805  65.7588196  42.4241209
  45.7673740  66.8076038  42.2950983  47.1570206  33.8498545  48.0857229
  47.4397516  34.2295599  48.9176607  46.6257620  34.5340371  47.6784277
  49.9797916  50.8664465  56.5577745  49.1144991  51.0636520  56.1991501
  50.2009535  51.6338539  57.0854139  17.0651257  42.4001217  10.2752864
  16.4937401  43.1191826  10.0056577  17.8700066  42.5331163   9.7745770
  49.3851948  14.0744221  15.3501201  48.9222097  13.3088970  15.6904876
  48.9908028  14.8163140  15.8086896  59.3191719  72.9667330  59.2486286
  58.6935282  73.6863184  59.1649771  59.3985748  72.6141310  58.3622885
   8.2977837  45.5997133  28.9897442   7.7494931  45.7293034  28.2159138
   8.7461263  46.4370298  29.1085649  46.1604595  47.3868227  41.5985298
  46.2746334  46.4398909  41.5178108  45.8449221  47.5146246  42.4931431
  20.7508063  33.5943198   5.7137227  21.0673451  34.1044998   6.4592099
  20.6400728  34.2372060   5.0132453  62.6085806  58.0319691  19.2110479
  63.4704828  58.2718086  18.8706994  61.9910097  58.3924055  18.5747147
  57.9076147   0.9750693  50.9909678  57.7569962   0.7894419  50.0640965
  58.7354755   0.5383067  51.1912584  75.0422812  71.0919714   3.5187960
  74.9786186  71.7972946   2.8748286  75.8451366  70.6260681   3.2851422
  14.6914577  41.3269806   4.3713939  15.2185977  42.0298386   4.7513193
  14.4186902  41.6661882   3.5188869  46.5188313  57.0550728  20.5661798
  47.3912525  57.4377203  20.6594133  46.5966511  56.4602470  19.8202860
  38.1188560  32.2186852   7.6661927  37.2327662  31.8605900   7.7195579
  38.6309910  31.5287828   7.2443146  15.2663374  56.4902687  59.2881823
  15.6292903  55.8765268  58.6495781  16.0293388  56.8240929  59.7600174
  49.0595436  57.4343967  19.1191137  49.2156172  56.7105961  18.5124981
  48.9473152  58.1996155  18.5551298  48.5617924  66.8433714  61.3051224
  48.3957481  66.2446070  60.5770111  48.1002474  67.6467133  61.0646200
  64.9954987  22.4352241  53.8778067  65.4091835  22.1154118  54.6795654
  65.1506853  23.3797002  53.8885260  60.2803469  47.8918314  53.2391167
  60.2271366  47.6902008  54.1733265  59.6744394  48.6227036  53.1169415
  55.8352757  70.8146048  35.0699902  56.0371065  71.7387342  34.9234247
  55.1232433  70.6251240  34.4589758  11.9465828   2.8313053  36.9617939
  11.1872351   2.5153786  37.4515009  11.5808117   3.4372523  36.3173795
  39.6097779   4.7841373  27.9372597  39.9143195   3.8834959  27.8262115
  39.1972065   4.7926939  28.8009381  64.6559477  15.5235386  45.4133844
  63.8793468  16.0160923  45.1478386  64.3829918  14.6068954  45.3747511
  32.1614504  28.4600997  62.5855350  32.3638177  27.6457095  63.0460215
  33.0051661  28.9045715  62.5029516   3.6479357  68.4810829  46.6246223
   3.1872377  68.2096100  47.4185276   4.3655923  69.0303278  46.9401073
  40.4451418  23.4462166  63.4230566  40.2224445  22.7420545  64.0319824
  39.6442294  23.5889173  62.9186678  49.5942307  16.2000453  55.8632374
  50.0267076  15.3598320  56.0156822  49.0893650  16.0674632  55.0608873
  28.3389068   4.1649953  32.0966005  28.4520102   5.0274432  31.6970730
  28.1808519   4.3488583  33.0225849  36.9890475  52.4776125   1.3049927
  36.4913583  52.9507399   1.9718397  36.6783094  51.5745878   1.3699809
  19.1015720   3.6794892  14.3178082  18.5500979   3.7174538  13.5363567
  19.1912842   2.7445620  14.5024550  22.5465417  72.5157499  29.8083329
  22.1933222  73.2649994  30.2880120  21.8346429  72.2454596  29.2283559
  78.2272243  21.5433002  47.5629425  78.8467264  21.4932299  48.2909155
  78.7639713  21.4083743  46.7819595   2.3194258  23.7871122  12.1784008
   1.7247030  24.4806528  12.4639511   2.6688290  23.4215450  12.9911184
  14.5640087  29.5755601  52.4164772  15.4980314  29.6139359  52.6222944
  14.2915964  30.4918933  52.3679447  33.3954521  74.7503064  45.8679104
  32.8195043  74.2652581  46.4588785  32.8657337  74.8972138  45.0842953
  55.4063892  61.1797047   0.5005546  56.1148024  61.1860371   1.1442533
  55.8408499  61.3489628  -0.3354054  76.1000919  68.5690498  52.8497982
  75.2469397  68.4853458  53.2756615  76.6466713  67.9093838  53.2767916
  61.3826609  52.7719688  16.7292309  61.0785675  53.6619186  16.9074214
  62.1935797  52.8904724  16.2346601   2.2683716  30.6647158   3.5773036
   1.4897341  31.1784840   3.7917700   1.9510159  29.7638631   3.5141915
   0.7880722   3.1105518  46.0744667   1.1798583   2.7044529  46.8476534
   0.7336134   4.0406317  46.2940502  17.8978848   8.0564767   0.8223810
  17.9579675   8.7463158   1.4832473  17.1013868   8.2623017   0.3330364
  17.7582383   1.0058887  59.2437458  17.9786730   0.0951659  59.0482330
  16.8933749   1.1320735  58.8534641  40.9660435  10.0533557  42.6252985
  41.3578510  10.4455149  43.4056377  41.6275978  10.1659834  41.9427395
  62.6340485  46.5272093   3.6335900  61.9665051  47.2024965   3.5127556
  63.1168222  46.5170574   2.8071165  62.5916004  49.9260044   9.2091280
  63.3823013  49.8988724   9.7479117  61.9978952  50.5074310   9.6841943
  72.9732037  16.9524205  56.6810226  72.2460318  16.8005455  56.0773802
  72.6061535  17.5176001  57.3607874  39.8247194  56.3850021  59.6759987
  40.6557322  56.0240269  59.3672228  39.3898702  55.6496811  60.1077890
  50.0648212  63.1767559   0.8984376  50.4371881  62.9444933   1.7491034
  49.1183329  63.1685352   1.0409966  53.3535004  12.0329750  54.3764019
  53.4650755  11.1723769  54.7803259  53.7635374  11.9485164  53.5156059
  15.9110880   8.2598203  51.8317413  15.4610670   9.1046226  51.8364286
  15.3091717   7.6703250  51.3774014  51.1789656  17.5784183  57.7468920
  50.8106756  16.9432569  57.1327591  50.6248856  17.5089443  58.5243273
  42.3509359  31.3788199  54.6882915  42.2785282  31.6097331  55.6143951
  42.8742599  32.0832515  54.3060112  70.7204580  53.4586954  21.0056233
  70.0850630  53.3242321  20.3024673  71.1298704  52.6018238  21.1255693
  64.6979284  29.6553636  54.1283083  65.2473307  29.7690248  54.9038553
  63.9473295  29.1488862  54.4386530   7.3549640  24.1540551   1.8666701
   6.4383322  24.2150092   1.5977786   7.5275880  23.2139349   1.9177069
  77.7368212   3.0198616  25.5350757  78.1085539   2.5274411  26.2669015
  77.7163935   3.9262661  25.8420706  62.4513674  49.3818378  25.0265694
  63.2912302  49.2881298  25.4761076  61.8087292  49.0336180  25.6446218
  30.9565449  25.9769273   0.9547049  30.6016088  25.0897622   1.0111953
  30.8052969  26.2380171   0.0463063  49.4664097  25.2498698  44.8355055
  50.1851368  25.2341127  45.4674959  49.5687103  26.0839748  44.3772030
   4.4645140  51.7498636  36.0157990   4.2296201  50.8561277  36.2653804
   4.8703504  51.6589642  35.1536703  50.1095247  25.5479383  53.3477831
  49.9745655  25.3257155  54.2689991  50.0580215  24.7093821  52.8890848
  26.0285258  19.5842218  23.6016107  25.1781464  19.4856393  24.0298247
  26.3859272  18.6967540  23.5716677   8.1202424  58.8439417   6.2630504
   7.7263266  58.1562710   5.7262301   8.5812438  58.3719063   6.9565159
  44.8953819  58.2890797   2.7713099  45.5002642  59.0130901   2.9330543
  44.0257788  58.6785221   2.8627175  67.7188015  74.8127270  39.9647212
  67.8631306  73.9534187  39.5685029  67.5945520  75.4017878  39.2205405
  25.3052688   4.8198357  57.7101755  25.2530646   4.2589262  56.9362974
  24.6257114   5.4800081  57.5737715  40.6607723  70.5251169  32.0037937
  39.8008466  70.8603430  31.7500544  41.0570097  71.2374592  32.5055861
  57.1136427  57.2159624  57.5557947  56.9427967  56.3722420  57.9743385
  57.1668005  57.0135784  56.6217470  32.1488476  20.3248811  61.2704992
  32.7029371  20.3853703  60.4923248  32.6927018  19.8754978  61.9174242
  40.0113106  25.6922555  58.6521053  40.1357031  26.1781693  57.8368473
  39.1113925  25.8882403  58.9128208  35.4304266  65.1328564  44.4435549
  35.7242584  65.8073711  45.0558662  35.5415511  65.5290890  43.5793304
  73.3125830  33.4768200  62.0153856  73.3651114  33.9157152  61.1663628
  73.1017065  34.1762328  62.6339197  49.4314766  72.3360348  55.9268093
  49.9497843  71.5643215  56.1549616  48.6729765  71.9856071  55.4597950
  20.5115128   2.2711779  26.5359831  20.5238104   1.6435149  27.2585607
  20.6975269   3.1147549  26.9483042  24.2934656   6.8588191  21.2633920
  24.1259122   6.6592664  22.1844435  24.4519544   6.0060477  20.8585525
  43.0517292  51.3952637   2.4731916  42.4235964  50.7625103   2.8214750
  43.7075520  51.4869833   3.1643605  48.0677557  56.8885326   4.0469605
  48.5848427  56.8764067   4.8523834  47.3615456  57.5096464   4.2250514
  65.0436926  62.3073387  27.1122336  64.6162367  62.8302145  27.7905512
  64.3275023  62.0142841  26.5488267   9.8039550  13.5526025  15.6296861
   9.4343948  14.3530893  16.0023487  10.3907847  13.2207739  16.3092101
  64.9621868  43.3745718   2.0437236  65.8781958  43.2106495   2.2679663
  64.6996975  42.6084042   1.5335099  58.3174086  33.0383205  50.9469843
  58.4825230  33.7395263  51.5772867  58.8674879  33.2577872  50.1950026
   6.1615735  34.8562741  15.6166327   5.4366261  35.0331974  15.0171471
   6.9455296  34.9274445  15.0720406  32.1420622  17.1578002  48.5487461
  32.1423173  17.8617954  47.9001951  31.6072106  16.4689231  48.1542683
  78.2334518  45.9127474   8.1386131  77.9158878  46.4295053   8.8791168
  79.0934896  46.2828207   7.9395795  47.9987764  29.9148440  19.8340261
  47.5616598  29.2281604  19.3304133  48.2385731  30.5738592  19.1825461
  64.0072680  20.0386596  27.6075888  63.5287857  20.5640364  26.9662881
  63.3292723  19.6948016  28.1892395  71.4125204  69.6989679  12.9063141
  72.3217201  69.8230124  12.6339102  70.9804487  69.3280602  12.1369147
  36.9245195  11.5462947  25.3316474  36.5316534  11.6479599  24.4647264
  37.8394842  11.3269174  25.1557374  48.7851048  26.9486594   7.0128262
  48.1243420  26.5050197   7.5446266  48.3425093  27.1310067   6.1839175
  57.6598310  35.6555128  47.4344349  58.1556988  36.4278126  47.1625900
  58.3279467  34.9986768  47.6304483   2.7657333  12.7716279  63.0363178
   2.1921195  13.2942414  63.5967398   2.7295440  11.8915188  63.4109259
  11.8571115  69.3659973   6.1152267  12.1109927  69.5008993   7.0282310
  12.6377177  69.5989847   5.6126297  26.7521334   3.7191552  42.6795864
  27.1993494   2.8999358  42.4671936  26.1939764   3.8909331  41.9211721
  23.1066966  10.1464522  43.3428240  22.4678469   9.5584637  42.9398727
  22.5914025  10.6841111  43.9441776  65.0215387  33.3874512   5.7318556
  64.2695045  33.7351465   5.2524954  64.6398735  32.9583406   6.4976406
  35.4826117  62.3764563  48.0467463  35.3592896  62.4621820  47.1014023
  36.3621068  62.7192163  48.2056093  14.6581781   5.9910578  21.3462806
  13.7956572   5.9930080  21.7613530  15.2534997   6.2991756  22.0295715
  47.3541069  71.3457060  54.5267391  47.3796177  70.4058599  54.7063780
  46.8702030  71.7174625  55.2642107  33.7520576  20.4949975  52.0613337
  34.5773506  20.2155566  52.4576139  33.4576845  19.7347367  51.5597582
  68.7468767  41.8115044  20.7948637  68.3528757  42.2239685  20.0261855
  69.6318197  41.5782213  20.5143428  13.3846879  54.8744345  30.9843755
  13.7797034  55.1298571  31.8180156  14.1252184  54.6049213  30.4410434
  29.4503260   1.6220137  37.5827408  29.2102146   2.4213693  38.0513668
  29.6523595   1.9165300  36.6946673  30.5934262  34.3522239  57.2021532
  30.6378222  33.5887766  57.7778339  31.4793444  34.7144270  57.2159290
   4.3693066  35.1023054  18.3395946   5.1384681  35.5759263  18.6563075
   4.1376808  35.5416036  17.5213051  14.8660290  15.0162613  43.7426758
  14.4151235  15.4810309  44.4475937  14.2036080  14.9175572  43.0588007
   8.9494932  41.8791246  12.6177108   8.7022519  42.5293064  13.2752562
   8.5756463  42.2102070  11.8010998  19.0327239  24.6908259  42.4748802
  18.3343840  24.5026684  43.1018972  18.5811806  24.7934890  41.6371441
  72.0883131  69.5753527  56.6025209  71.1820984  69.6101570  56.2962627
  72.5962305  69.3513584  55.8227301  70.4340887  64.1589117  53.1105947
  70.5529785  64.8677826  52.4784565  70.8408022  63.3978558  52.6963282
  32.6526189  45.4171896   6.8568945  32.9772854  46.3158846   6.9132125
  33.3520532  44.8855877   7.2369212  73.4319592  68.3259106  54.7604609
  73.0255079  68.9644337  54.1745281  73.2260180  67.4768782  54.3693495
  24.3925190   2.8347018   5.1729536  23.4359360   2.8003258   5.1735491
  24.6224737   3.1202593   6.0571539  76.6300583  63.4624624  50.0908566
  77.4439049  63.0423880  49.8126173  76.3590240  63.9836836  49.3351460
   9.8578244  12.2529340   5.2674729   9.2211467  12.3841834   4.5648730
   9.4526136  11.6008472   5.8391541  24.5909595   7.2970945  53.5860825
  25.0373840   8.1310099  53.7327862  23.6595154   7.5123757  53.6340284
  38.0918932  58.4203815   4.4622186  38.2449245  58.7749529   3.5863784
  37.7167797  59.1508198   4.9541405  53.6243105  22.6414156  60.8815622
  53.6666632  22.5296235  61.8312645  52.7301407  22.9397488  60.7151556
  29.2514491   6.5427536  63.7007618  30.0859904   7.0038491  63.7853956
  28.7038302   6.9092584  64.3950415  75.5912113  39.6580911  19.5474875
  75.9531450  40.4428291  19.1358781  76.3567400  39.1238070  19.7590005
   4.8962089  15.3200948   9.0516388   4.3596596  14.9062693   9.7277272
   4.8737913  16.2527955   9.2656446   5.2678430  21.1832619  28.8479042
   4.5060718  21.3215470  28.2850409   5.6609458  22.0515084  28.9365077
  33.7879062  44.5864201  11.7552352  33.2769561  43.8030672  11.5514624
  34.0902424  44.9032879  10.9041071   8.7960368  23.0953526  45.1554155
   8.0991054  23.6448026  45.5140591   9.1612226  22.6444101  45.9166813
   3.7823051  58.3189249  22.0005465   3.9504313  58.3172178  21.0582280
   2.9639247  58.8059473  22.0969462  61.4795542  50.4278994  58.1233692
  61.8081665  49.5627069  58.3676863  61.9460201  51.0329103  58.7000895
   1.7618607  62.0943594  58.3383179   1.8390130  61.3443565  57.7485943
   1.5883529  62.8370142  57.7598810  63.5919094  73.0981541  55.0372219
  62.9719591  72.3866940  54.8768520  63.3090496  73.4795284  55.8683491
   5.8068669   3.9408401   0.2361436   4.9842590   3.7332392  -0.2070829
   6.1097223   3.1021473   0.5841446  36.7267394   6.5112686  51.9083214
  37.1525097   6.5071821  52.7656031  36.3062358   5.6536669  51.8456507
   1.6154112  47.6522446  13.2465422   2.3505637  48.1390142  12.8739309
   1.9983748  46.8238497  13.5352063  37.8134704  10.1402223  53.9915466
  37.8344035  10.8681929  54.6127176  37.3779655   9.4324720  54.4665813
  18.6342096  54.4747257  60.5063152  17.7930236  54.5354843  60.9590244
  19.2672586  54.2921305  61.2006807   4.6366316  26.3470483  39.7087741
   4.2424598  27.1666145  39.4101572   5.4345530  26.2609959  39.1870952
  26.9715071  66.6034555  50.0531101  26.7473507  67.2035742  50.7643318
  27.5865388  67.0956373  49.5093060   4.8951229  50.4718828  28.8744354
   5.0128806  51.3153648  29.3113613   4.4867754  49.9141169  29.5365381
  75.8664227  51.1990261  22.2565079  75.2470970  51.4572287  22.9391479
  76.2695074  50.3972816  22.5896168  71.1723471  14.4762921  13.2907033
  72.0918274  14.3698013  13.0468845  70.8137369  13.5891473  13.2661009
  66.0558748  18.7565553  29.0428042  65.4039860  19.1597033  28.4694386
  66.8114710  19.3422675  28.9954090  50.8869505  21.9175959   1.2331919
  51.6333914  21.4197588   1.5666729  50.9552002  21.8428516   0.2813587
  53.1082773  68.9616966  22.3873782  53.3695364  69.8112583  22.7426505
  53.0446577  69.1062069  21.4432907  65.0786877  41.6174126   9.5444226
  65.7839489  42.2634125   9.5053470  64.5965385  41.8371201  10.3415990
  49.3807268  39.2228937  23.9791918  49.4474030  40.1085806  24.3360400
  49.0356255  38.6987972  24.7020078   6.6707593  57.2224045  56.1471987
   7.5139976  56.9592667  56.5158939   6.2869161  56.4080477  55.8220577
   0.8466040  68.8143730  17.0596945   1.5959835  68.8349962  16.4645159
   0.2928077  69.5404720  16.7727757  61.7219400  26.6630077  13.7256384
  62.3969126  26.0516214  14.0203345  61.4139366  27.0846462  14.5278788
  27.9290152  65.6726933  12.6331258  27.1990108  65.2730846  12.1602237
  28.2683134  66.3367558  12.0330155  52.9797745  65.7757330  18.9411056
  52.2058821  65.8793163  19.4948089  53.3368635  66.6601801  18.8606846
  70.5522394  41.6038132   8.4447569  70.9681559  42.4611330   8.5355812
  69.6773863  41.7965460   8.1075406  48.4815025  34.4932842  60.1746893
  48.9675808  34.7947645  59.4071817  47.5616407  34.5744348  59.9227047
  32.5375781   0.5080208   3.2143375  32.9928378  -0.0728909   3.8238567
  31.9442276   1.0171207   3.7665913  73.4352636  59.5042658  54.0782499
  74.2751837  59.0755701  54.2425346  73.3995962  59.6046305  53.1269932
  62.8379583   9.4710910   4.9489254  63.4771729   8.7586153   4.9528718
  63.1864691  10.1020563   4.3191186  68.3685017  30.8232307  23.7800145
  68.7886715  29.9744725  23.9189243  68.4325314  30.9706092  22.8363967
  59.4925690  44.1987991  50.0823975  60.0121880  44.3420744  50.8734083
  60.1401567  44.0346193  49.3969011  57.9578352  19.8724914  44.9477482
  58.1135893  20.8111429  45.0521708  58.7308407  19.5516551  44.4832468
  12.2970653  74.5694876  25.0793505  11.9884336  73.6634159  25.0822496
  12.7943885  74.6505117  24.2655087  71.7791843  64.9395514  63.6975145
  71.3636923  65.8002377  63.6444330  72.5561666  65.0140905  63.1434584
  18.4386671  40.3352880  64.0920353  18.4630764  40.0852633  65.0156784
  19.1649747  40.9505415  63.9911747  20.4369998  34.6666336  52.8699160
  19.7138166  34.8327065  53.4746122  21.1879230  35.1070476  53.2678890
  74.0712547  62.8002167  31.8967009  74.5339537  63.3121634  32.5600672
  73.7004519  62.0616722  32.3796964  74.9913311  38.3492732  10.9626234
  75.9122324  38.2006884  11.1773276  74.6800852  37.5021815  10.6435728
  22.8629708  71.1600733  52.8882504  22.1602464  70.5277538  52.7379656
  23.3306241  70.8214617  53.6517143   8.5963386   4.2890057  56.5615797
   9.4766635   4.3529692  56.9319439   8.5994226   4.9049163  55.8288622
  28.2550287  12.0192885  48.4318876  28.2355070  12.8546894  48.8987446
  27.8227377  12.2010815  47.5974369  50.8805990  46.6634750   5.5738163
  51.1515617  45.7979727   5.2676803  50.7555389  47.1725035   4.7728917
  52.2117615  65.5734634  27.3508620  52.1871042  66.1741829  28.0956841
  52.9639244  65.0074720  27.5244498  49.8711443  17.3694026  62.6064014
  49.2185068  17.9405081  63.0115318  49.4811201  16.4960480  62.6433563
  72.5304985  30.2572751  44.5338583  72.9479980  30.2230191  43.6731863
  72.9898405  29.5943904  45.0494337  79.0345192  68.8675499  21.7419815
  78.9013863  69.8136377  21.6834068  78.6074781  68.5167456  20.9604430
  21.5957808  14.7015655  59.0531397  21.9303942  13.9832556  58.5162067
  21.0762191  15.2309465  58.4481239  44.8684216  73.6396027   9.0910649
  44.4263363  73.3408594   8.2963681  45.7527208  73.8656044   8.8026613
  63.0708027  47.1230173   8.6790752  62.7052927  48.0023289   8.7762827
  63.5233545  47.1436214   7.8358632  58.7168169  39.6906996  54.5667839
  58.4836483  40.6143999  54.4738054  58.2223272  39.3946075  55.3310108
  74.5304680  71.0470295  40.6921148  74.6297407  71.9896698  40.8255482
  75.3406239  70.6699371  41.0351562  44.9031925  41.6412735   2.7779615
  45.3350067  41.2083387   2.0415263  44.0155458  41.2830591   2.7793813
  41.5891409  42.0469761  55.2443695  41.0467291  42.7807522  55.5335045
  41.0931683  41.6500521  54.5283413  27.6133895  28.4031534  55.8020163
  27.5270319  28.9837575  55.0459290  28.2042336  27.7106857  55.5060005
  20.9986329  52.5945473  41.7875290  20.5069327  52.9048300  42.5479126
  20.3765106  52.6477528  41.0620213  38.0808830  64.8000193  54.0123224
  37.7366543  63.9554214  54.3028164  38.0785370  65.3434420  54.8003054
  49.8008823  47.4405718  19.9960959  50.3423071  48.1804037  19.7208786
  49.4177628  47.7203369  20.8274722  32.8912115   5.3651446  28.1288362
  33.1979632   4.7686625  27.4459410  31.9760156   5.5346358  27.9054093
  48.2965374   5.1173383  42.5573635  48.9260769   4.5681983  42.0900774
  48.7221241   5.9727043  42.6161480  27.9660249   3.3557585  21.0271811
  28.1221414   3.8872063  21.8078351  28.6444163   3.6309394  20.4105020
  14.0675306  73.7616777  18.5421324  14.6626997  74.0233088  17.8395975
  13.7874866  74.5867348  18.9384747  26.2545037  10.0838244  59.9003506
  25.6138659   9.4060987  59.6847010  27.0512629   9.8143393  59.4434214
   1.3904370  49.6721458  10.8644867   2.2516295  49.4779348  10.4945385
   1.0471800  48.8197851  11.1326015   4.1819710  53.7269831   0.6725920
   4.2748982  54.6770382   0.6018949   5.0568485  53.4175587   0.9072785
  69.7757578  19.4695473  21.3973808  70.5383158  19.0264463  21.7694020
  69.3589354  18.8070321  20.8464098  53.7967825  39.6978855  18.9895332
  54.2938519  40.3713179  19.4539082  54.1171217  39.7422457  18.0886185
  13.4021056  57.6797342   5.5887026  12.8304219  57.1411371   6.1358035
  12.8115773  58.0912113   4.9576747  40.4532385   6.1993456  58.0766869
  39.6986723   5.6190872  58.1775045  40.5250883   6.6474414  58.9194679
  50.4878998  69.0237904  17.1511459  50.1112986  68.8638544  16.2858009
  51.0129833  69.8165035  17.0410490  42.7878904  16.6738617   0.8493525
  43.2565832  16.6574514   0.0149126  42.4230909  17.5572634   0.9018253
  61.0282850  68.4506226   3.6430967  61.4762878  69.0275335   3.0244675
  60.6070185  67.7903318   3.0928481  28.3367920  29.3445659  61.0020494
  27.7431774  28.6275721  61.2251520  28.5417533  29.2068624  60.0772476
  11.5760422   1.0370873  57.0711660  11.9598401   1.9128978  57.1146059
  12.2827494   0.4520806  57.3442316  19.3870616  21.7197037  40.0917244
  19.0648806  22.5606799  39.7673893  18.8076627  21.5073204  40.8234501
  76.5299320  46.8763828  27.8241944  76.2163544  47.6995993  28.1986523
  75.7722282  46.2926245  27.8607702  44.5642376  24.8360133  61.1129475
  43.7275696  24.8190260  61.5776300  45.0540113  25.5463624  61.5273905
  60.4399300  33.6965871  61.2337065  60.8693266  34.4837260  60.8986473
  61.1151695  33.0194020  61.1924124  32.3423958  45.3741932  58.9499235
  32.6886463  46.2662935  58.9276934  32.5008440  45.0780392  59.8462582
  79.3208313  54.9483490   7.8369206  79.7485113  55.7805824   7.6351482
  78.4920835  55.1978874   8.2457572  32.0202804  29.0885305  58.3528280
  32.6121688  28.3858037  58.6212921  32.1047068  29.7487044  59.0407801
  51.4976406  13.4838080   4.1881907  50.6144476  13.6915398   4.4932309
  51.8336439  14.3119836   3.8454619  53.4402323  57.5991964   9.8319024
  53.5670710  58.5174274   9.5931697  53.5671663  57.5785923  10.7804251
  16.3892734   2.5833330   8.8976759  15.7599819   2.5501272   9.6181768
  16.4535964   3.5128790   8.6785001   7.9767758   1.8496664  18.5024691
   8.5540545   1.0926846  18.6022663   7.1592069   1.5845963  18.9238369
  71.1127996  50.3810835   9.3384093  70.3494263  50.2188396   9.8926371
  70.7935667  50.9748411   8.6588681  45.1835394  29.1499138  56.4390087
  45.2881718  30.0657845  56.1812019  46.0144567  28.7379813  56.2021065
  74.9139595  72.5336361  30.5614877  73.9653730  72.6022577  30.6696820
  75.2197695  72.1352720  31.3763595  31.7407537   2.0845696  40.0395775
  30.8878112   2.2731036  40.4309559  32.3678541   2.2390103  40.7460690
  73.7705326  41.9940376  24.3165636  73.7551546  42.6894665  24.9741149
  72.8488970  41.8408728  24.1083360  54.1074276  40.9554148  58.3764791
  53.5081625  40.2171850  58.2663631  54.9637699  40.5503559  58.5137463
  17.1738744  17.2089481  12.3323894  16.5812159  17.6668501  11.7363071
  16.6202962  16.5630281  12.7712166  42.1168661  47.8458309  53.6463499
  41.3871908  48.3196354  54.0454912  42.7357578  47.7105713  54.3639278
   8.3259994  12.8222573  20.1501846   7.8595793  12.0285201  20.4122257
   7.7060890  13.5315049  20.3202176  27.3662567  19.6390533  63.1846571
  27.2458935  20.5409002  63.4820080  27.0390606  19.6377611  62.2851181
  52.2501469  37.9938674  51.4635468  52.3402596  38.2780838  50.5539703
  51.8575859  38.7435079  51.9109488  66.2549210   8.2718611  39.1086054
  65.7884645   8.6479849  39.8550510  65.9649181   8.7911141  38.3586001
  37.4438381  41.6064930  61.8850565  38.2078671  41.4099264  62.4271393
  37.0165586  42.3385239  62.3297977  67.5707436  29.6716833  35.5124903
  67.9832268  28.9724612  36.0196209  67.5792313  30.4290557  36.0977650
   7.6470882  16.0518229  44.7426367   7.9313022  15.1379931  44.7234297
   7.6313889  16.2782741  45.6725311  68.3511639  23.2700109  11.8294680
  68.3895206  22.3319650  12.0160937  69.1722822  23.4575057  11.3746703
  20.0058889  47.3717451  63.0019855  20.7734370  47.9432535  62.9801130
  20.1783895  46.7665243  63.7232256  60.4759312   4.4745448  28.7159920
  60.4850817   3.7533998  28.0866289  59.9912596   5.1718211  28.2742596
  56.1320734  70.7308722   5.5206531  56.6714096  71.3136053   4.9860793
  56.1440325  69.8963833   5.0519186  44.9779272  50.3681183  20.3742552
  45.7089472  49.7723627  20.5383182  45.0540257  51.0344124  21.0572600
  61.5459251  42.9008675  43.5175848  62.0317984  43.1652594  42.7363968
  60.7717752  43.4638214  43.5200977  60.6839848  42.1221161  53.5490322
  60.8169127  41.4441061  52.8865623  60.9180975  42.9381609  53.1068850
  57.5634289  53.2313824   8.8684905  57.3357534  53.9102840   8.2332796
  56.7484331  52.7483702   9.0052897  52.8790140  74.8558378  29.4027114
  52.3144531  74.0845346  29.4536805  53.6472654  74.6252632  29.9250650
  67.3439503  53.6440325  11.3010955  67.7891827  52.8908396  10.9128928
  66.7926550  53.9854288  10.5970013  49.3767357   1.9030651   0.2877186
  48.9177656   1.8299407  -0.5490794  48.8212061   2.4759416   0.8163303
  44.1929197  24.0145326  64.9492311  43.4665012  24.6362162  64.9945974
  44.7871542  24.3876171  64.2981339  58.9197826  36.7905045  42.2313118
  59.3620777  37.0803022  41.4334249  58.2499647  37.4558711  42.3890066
  73.3601665  32.8735924  31.9780350  73.3085966  31.9213891  32.0609927
  72.9402924  33.2062125  32.7713203  23.3143473   6.5529388  57.5850105
  22.7368689   7.0547950  57.0097780  22.8336978   6.4890003  58.4103107
  61.0044575  39.7736144   6.8976772  61.8559599  39.7503781   7.3342878
  61.0552502  40.5304050   6.3137972  57.1898603  68.5839367   7.9231489
  57.8021717  68.8237953   7.2276062  57.0416212  67.6464748   7.7989835
   2.4244787   1.3080488   1.3769701   1.8835185   0.9316244   2.0711593
   3.2554361   0.8369678   1.4388090  73.7183237  37.4274611  50.7911253
  73.5339212  36.5220618  50.5411720  74.6351671  37.5604081  50.5503845
  71.8201971  38.6422563  64.2526865  72.4812841  38.7369013  64.9384260
  71.7843771  39.5023727  63.8341761  36.0658240  63.8947058  57.6254034
  35.7634473  62.9866314  57.6112223  35.2930999  64.4005585  57.8768969
  61.1027288  62.5548124  11.6768897  61.5470123  61.8123341  12.0862377
  61.7795086  62.9767323  11.1475658  12.2363698  27.9480076  18.0194330
  11.5493834  28.5815787  18.2264876  12.3023617  27.4017406  18.8026750
  52.6405811  25.2661061  58.4686852  52.5934792  24.6511912  57.7366400
  52.4396086  24.7360921  59.2400026  72.6952171  25.7644486  60.4000568
  72.1473408  25.0051951  60.5990505  72.1013069  26.3838005  59.9759054
  40.1565504  22.3415995  53.2615709  40.9980822  21.9117618  53.4141922
  39.7824025  22.4527884  54.1355753   1.4582188  58.6077118  10.2074695
   2.0491478  59.1251326  10.7545638   1.7436406  57.7030993  10.3356755
  10.3970718  -0.0133771   1.7184125  10.3909624   0.8627652   1.3329656
  11.1277390   0.0019987   2.3365721   7.2184777  28.5965896  11.7121601
   7.4612790  29.1608930  12.4462175   7.7750802  27.8239870  11.8096709
  47.0584011  23.6609221  50.8999777  46.6367292  23.2023764  51.6267252
  46.9849014  24.5879531  51.1267900  38.5855603  68.8028193  53.7954140
  39.2540193  68.2320881  54.1744375  37.9953146  68.9967775  54.5235777
  56.1550188  57.7126932  14.6568894  56.8166924  57.5617552  15.3319001
  55.6533003  56.8980742  14.6269023  32.6895976  24.1626096  44.4227600
  33.0969596  24.8821902  44.9049330  32.0086741  23.8355541  45.0106478
  25.4662299   8.3041364  49.0047741  24.8508787   7.6750976  49.3814468
  25.5010986   8.0779344  48.0753374  41.5656948  58.2394695  64.3837214
  41.3331699  57.5053024  64.9521971  40.8715963  58.2614756  63.7249517
  28.8931775  25.8052659  54.8315382  29.7206688  26.1000371  54.4512749
  28.8279700  24.8843718  54.5786905  41.1699915  72.5100374  17.6349461
  41.0592031  72.5951767  16.6880000  41.6521692  71.6907787  17.7469802
  48.5380220  58.1206226   7.7169830  49.3284464  58.6491299   7.8271931
  48.8350010  57.3402882   7.2488880  43.7785578  20.9212637  12.4012733
  43.5199738  21.2641168  11.5458107  44.6940374  20.6649280  12.2898078
  62.6559544  44.1809464  18.9698160  62.1141100  44.8664808  18.5790741
  63.1492138  44.6283102  19.6574140  11.1627066  71.7327309  15.7156646
  10.9305632  71.0610104  15.0744665  10.3790343  72.2778559  15.7858670
  59.6305943  62.3377848   2.3479471  60.2957821  62.7892160   1.8283644
  60.1231670  61.9109726   3.0489695  66.0451126  23.2828641  42.8796959
  66.5385342  24.0171933  42.5142860  66.0105324  23.4615231  43.8194418
   9.2874414   1.3469826  26.4165020   8.8036299   1.5855989  27.2072124
   8.6105853   1.2107269  25.7535315  34.0195537  14.0032172  45.7753086
  33.8986015  14.1084814  44.8316336  34.8761082  14.3922865  45.9518671
  70.2114344  68.8876867   8.0040431  70.0654697  68.3185244   7.2484070
  70.0106573  69.7671080   7.6838309  13.8622642   7.8961855  31.0615873
  14.5220971   8.5010928  30.7225561  14.3172371   7.0564139  31.1249518
  75.7741690  70.3760624   7.2258270  75.1935196  71.0949039   6.9761306
  75.8161640  70.4228306   8.1809610  42.6821375  27.7036452  62.0035934
  42.1492386  28.3507395  61.5415192  42.3981476  26.8615484  61.6479874
  44.0827513  28.7713146  59.1955233  44.2643690  29.0150428  58.2878685
  43.1881714  29.0745234  59.3505239  30.3683496   2.2865868  14.3117845
  30.1009250   1.3995811  14.0710855  29.9359560   2.8496453  13.6697328
  54.2956114  35.5273271  55.5455303  54.9500942  36.1087179  55.1584005
  54.2568970  35.7891059  56.4654255  69.6495295  65.7974195  10.4353189
  69.3364811  65.4169369   9.6146685  70.4799795  66.2138987  10.2048051
  30.0343156  26.7120552   3.7303120  30.2137351  26.3949442   2.8451675
  30.8996129  26.8647814   4.1100031  73.6599731  17.5502253  50.6029034
  73.5861540  18.4653103  50.3319740  72.9994488  17.0924556  50.0829172
  65.8543062  33.7947822  61.8058872  66.1843061  33.9414310  60.9194183
  65.3872108  34.6012926  62.0240498   5.6355298  47.6537228   1.9397201
   5.4289442  48.2147598   1.1921982   5.5829984  46.7632294   1.5925901
  56.1863899  66.9050407  12.4834502  57.1142292  67.1333694  12.5401473
  55.7373238  67.6099348  12.9500246  21.1984706  47.9702377  42.9540062
  22.1066356  47.6761484  42.8834248  21.2400198  48.7428427  43.5175562
  67.4094057  48.5215092   3.9243564  67.4761629  47.5827551   3.7496901
  67.7087736  48.9374399   3.1158936  29.8436594   9.4823718  62.2844648
  28.9408231   9.3029648  62.0219183  29.9788165  10.4038048  62.0632696
  13.3574188  20.3914165  61.3249588  14.2267323  20.6391692  61.0100842
  12.7906322  20.4811096  60.5588388  40.7936382   8.1660932  55.8041048
  40.2277231   7.5210267  56.2282085  40.9840775   8.8056195  56.4903784
  75.1156330  72.8171110  34.7253776  75.4878187  72.2875023  34.0202379
  75.8689976  73.2610798  35.1146913  58.6057043  64.4802856  21.9140673
  57.8668165  64.7805214  22.4433446  59.3313503  65.0490665  22.1712852
  43.1736708  36.0007858  57.2031403  43.8960409  36.6027713  57.3820925
  42.3874998  36.4931464  57.4392557  49.3368244  40.3123760  55.2750397
  48.5395241  40.3481865  54.7465849  49.6061993  39.3945193  55.2402592
  65.3503323  25.0435662  54.3653679  66.0543823  25.2748275  54.9712229
  65.6947088  25.2682757  53.5009956  47.7385283  31.5318394  50.7184982
  47.9555464  30.7352066  51.2027597  47.4753761  31.2212992  49.8521566
  63.1719255  71.9031811   3.9807856  62.3257160  72.3477411   4.0310913
  63.4744549  72.0644665   3.0870885   6.4292264  16.6498005  39.3741965
   6.4160997  15.8438504  38.8579559   6.6734594  16.3660121  40.2551317
  12.0606804  12.4354291  31.4877963  11.8299520  13.0165911  32.2125363
  11.2243044  12.0726037  31.1961389  18.0583870  61.1164761  15.3819144
  17.1311295  61.0306740  15.6034172  18.2516718  62.0443964  15.5154574
  38.3221078   7.5070357  46.5873814  37.8065872   7.2893620  47.3639727
  38.7881756   6.6984165  46.3749027  35.4245424  65.1104450  62.6124907
  34.4711232  65.0284100  62.6346540  35.7169747  64.3648052  62.0883322
  53.3915472  39.7196651  63.6115217  52.7294922  39.9665022  62.9657793
  53.9812565  39.1331363  63.1377506  45.7273579  28.8416243  47.0900345
  45.7838583  29.7710609  47.3118210  45.8754539  28.8115001  46.1448431
   6.4459074  59.8598242  40.8519363   6.4316726  60.0504494  41.7898560
   6.9457859  59.0466642  40.7803583  71.3542223  50.1337194  52.3522329
  72.1264839  49.8732090  51.8502522  71.2468815  51.0653257  52.1603346
  37.1295023  17.7561212   2.0884040  36.4585400  17.5975466   1.4244056
  37.6342964  16.9433737   2.1176858   4.7496502  38.3336564  64.6675897
   5.5728523  37.9775711  65.0019253   4.8964302  38.4336946  63.7270155
  46.8097401  60.4166698   2.7453387  47.3083878  60.5273771   3.5548609
  47.4509573  60.0962496   2.1109809  57.9999256  69.9341011  61.3100529
  57.4230623  69.2395306  61.6279030  57.5713778  70.7451916  61.5833902
   4.1663307  40.8227110   5.4692757   3.9726928  41.5181351   6.0978633
   4.2227590  41.2713432   4.6256050  70.9168339  37.8206730  11.6982782
  71.8103981  38.0891275  11.9120812  70.7620192  38.1782818  10.8239889
  20.0310087  30.7586861  61.8974257  20.8116817  31.3105464  61.8501759
  20.3625703  29.8953605  62.1443415  52.8742981  49.4472122   5.2093238
  51.9482470  49.6811104   5.1464462  52.9881907  48.7456179   4.5682132
   3.1417853  56.6809130  28.7169194   2.9970858  57.6235437  28.6348510
   3.1452426  56.3597250  27.8152227  20.2607369   0.3896966   6.6978550
  20.6902981   0.6336825   7.5177217  19.3660104   0.1655637   6.9537055
  78.8436985  48.1174898  58.1281471  78.1078005  47.6161909  57.7768755
  78.4804201  48.9856720  58.3028698  35.3623247  69.7988129  33.6459017
  36.0360837  70.4013252  33.9609504  35.8001328  69.2826462  32.9690528
  67.6332474  57.5477791  35.3359151  67.0423794  56.9996834  34.8194909
  67.2397995  57.5682688  36.2082744  56.1109686  47.8762436  52.6891518
  56.4221478  47.8849649  53.5943174  56.6879845  47.2560310  52.2434807
  29.1444945  40.1110744  61.5390539  28.6321855  39.3076038  61.4484835
  28.7228370  40.7322121  60.9452343  45.0614214  43.8708162  16.7339826
  44.9494600  44.3353701  17.5633729  45.5174923  44.4950056  16.1695147
  69.6409321  23.7020540  29.4960928  69.3292999  23.6905909  28.5911155
  70.5755138  23.8963556  29.4251370  63.7494564  42.2152758   7.0891964
  64.2092752  41.9304657   7.8789341  64.3605328  42.0297146   6.3761848
  68.1033182  55.3516197  21.1355948  68.9925241  55.5812740  21.4054132
  67.8865671  54.5791769  21.6576862  49.2235470  25.7887006  56.7340469
  49.6462584  26.0928392  57.5371933  48.3027220  25.6832051  56.9731903
  49.8245001  16.3339496  59.9982786  49.9185658  16.5835929  60.9175539
  49.8789215  15.3783083  60.0028372  64.9653482  53.7583447  29.1107774
  65.2464390  53.1603336  28.4182429  64.9013662  53.2078409  29.8912168
  76.3488674  44.7972918  58.7547636  76.0039473  43.9162254  58.8996172
  75.7564354  45.3695869  59.2423439  27.9861927  35.6685472   0.6150207
  27.3444366  36.2606144   1.0072420  28.1475306  36.0327864  -0.2553415
  67.0451403  38.8140965  49.8250580  67.2752857  38.5481477  48.9348125
  67.1793222  38.0266786  50.3525019  63.0823088  28.8340688  63.7614346
  63.6082554  28.7131333  62.9708719  63.3597231  29.6828604  64.1061449
  65.3630018  45.3490829  52.4903774  65.3087044  45.7052517  51.6035700
  65.5412769  46.1097002  53.0434704  15.1162028   7.5297159  58.2970524
  14.6624887   8.3049619  58.6277628  16.0341811   7.7950877  58.2411432
  32.5493050  16.3880360  53.5431433  32.0422816  15.7461560  53.0460024
  33.4553719  16.2387407  53.2729864  12.9286361   7.9028583  34.0806341
  13.3750534   8.3310956  34.8110843  13.4197426   8.1767923  33.3060336
  74.6642876  73.6673927  40.6586552  74.7153187  74.3785763  41.2972784
  74.3374729  74.0843630  39.8614335  70.0321245  30.9258127  15.6710720
  69.1175413  31.1845231  15.5577469  70.0258970  30.3538132  16.4385414
  64.9378252  18.0460596  39.8082542  65.4401875  18.2654476  40.5929422
  64.1287136  18.5504127  39.8930764  36.5120864  30.1707864  57.6571226
  36.9799328  30.5137968  58.4185028  36.5783739  29.2198181  57.7437019
  55.7473421  74.5703411  28.1326747  55.6935167  74.0132999  28.9092302
  55.2818108  74.0811682  27.4542809   1.7854854  72.2539377   8.3933759
   1.2426785  71.5694809   8.0020803   2.5391880  71.7858124   8.7525791
  71.4797735  72.2912407  47.5055456  71.0511065  71.5130997  47.1492100
  70.7861233  72.9496241  47.5456429  65.5161572  41.6897106   5.3315425
  64.9298620  41.3947248   4.6347800  66.1588287  40.9856176   5.4178876
  26.2344146  15.8212149  59.1220331  25.3970647  15.7927418  59.5849228
  26.6022348  16.6764021  59.3447304  32.7737927  70.6610441  32.7042460
  33.6775208  70.4346514  32.9239202  32.4362421  71.0894966  33.4908319
  53.8240957   6.2887007  55.4689169  54.6570206   6.4813769  55.8994246
  53.1688976   6.3878107  56.1596584  25.7654595  13.7629282  22.8360844
  26.4037800  14.1402268  22.2307539  26.2963223  13.3464420  23.5150218
  50.5396175  12.5899875  32.0316863  49.9910069  13.3634353  31.9011784
  50.3272438  12.0184290  31.2938190  57.2015429  32.4940348   6.6364306
  57.5654984  31.9318342   7.3203170  57.9660702  32.8150511   6.1582255
  75.1255417  49.1966391   9.3104827  75.8906841  49.7112608   9.5672894
  74.8750591  48.7266636  10.1058519   9.8050469  70.9611797  34.4474411
   9.6258730  71.5048647  35.2146029   9.5795405  71.5173721  33.7017655
  69.9507523  34.8177218   4.8844448  69.6955299  35.7187486   5.0825500
  69.1236305  34.3375182   4.8456484  34.2367983   2.4215531  58.9836931
  35.1233172   2.1625590  58.7322235  34.0517783   1.9092172  59.7707796
  68.2313108  65.5963564   2.4394876  68.6062622  65.6923389   1.5640280
  68.1795740  64.6502829   2.5754821  69.7230387  26.1014557  16.7232203
  69.6166897  25.2401590  17.1270669  69.5647335  25.9502625  15.7913876
  59.9002695  56.2318659   5.0767213  59.7199106  56.6827583   4.2518586
  59.0695286  56.2595034   5.5514133  47.8332090  37.9211044  47.3014975
  48.3829498  38.3646107  46.6554928  47.5913334  38.6083198  47.9223537
   3.9828730  58.9829636   6.5052706   4.8031157  59.4440317   6.3296342
   3.3688134  59.6733713   6.7552698  62.0073271  55.9573126  22.3144507
  62.7066374  55.4825306  21.8652606  62.0737028  55.6749392  23.2266402
  47.8056049   7.6511574   5.4212511  48.1238461   8.1675607   4.6807900
  48.0513382   8.1618476   6.1926413  39.5376682  27.6354837  61.4469624
  38.8418722  27.6065183  62.1036625  39.1602635  27.2063947  60.6790543
  69.4058990  34.8215365  24.5281577  68.9375925  35.0851560  23.7360573
  70.2151585  35.3323841  24.5091605  16.7398640  74.1807576   0.6191300
  16.0962292  74.4683185  -0.0283858  17.5314089  74.6749191   0.4058475
  53.7373781  33.9724183  59.2472124  53.7148428  33.1844664  58.7041998
  52.8613520  34.3482757  59.1603708  12.6406181  41.2044477  48.9864969
  12.0244098  40.9121561  49.6581268  13.0253780  40.3965855  48.6465740
  10.2496696   9.9892592  41.0095596  10.0560856  10.9080017  41.1957598
   9.4997388   9.6853393  40.4982185  10.6738579   1.5418479  33.9000607
  10.1056242   0.9768979  34.4236755  10.6181073   2.3976834  34.3251133
   3.3526328  13.7455451  11.0423017   3.5601240  12.8127229  10.9873152
   4.0391013  14.1111195  11.6002870  38.1387472  11.8217528  55.8852482
  38.8077903  12.4966431  55.7706404  38.4751463  11.2682521  56.5900230
  40.6384611  62.7949238  55.2021551  39.7404408  62.5855064  54.9453640
  41.1557531  62.0516205  54.8920918  72.2039080  11.2908030  43.1354380
  71.8118286  12.0351076  42.6788044  71.8577385  10.5222070  42.6819420
  56.5261126   3.9909884  32.6081777  56.1867285   4.4782159  31.8574047
  57.1379185   3.3606547  32.2279119  11.4135861  15.8950913  11.3467145
  11.3047957  15.3040540  10.6016827  10.5522358  15.9159064  11.7636967
  71.1765909  67.3664808  30.9626818  71.4411879  66.4661598  31.1514711
  71.9924831  67.8663588  30.9886551  72.4058151  54.1226625  13.4965038
  72.9183960  53.6058378  14.1181040  72.2174263  53.5171032  12.7795398
  61.3229179   0.2140730  15.2028275  61.1169958   1.0133261  15.6876183
  61.2943029  -0.4797465  15.8616352  28.8023639  66.2324429   2.0194335
  28.0057478  66.7418909   1.8707712  28.4933567  65.3346682   2.1408631
  52.2683668  68.3443022  35.8071709  51.3998938  68.7463427  35.8258915
  52.4406672  68.1038713  36.7175221  66.4050579  74.0443087  31.2907720
  65.7042265  73.5315037  31.6933775  66.6003895  74.7277451  31.9318604
  64.7124672  22.0445609   3.3583856  63.9020014  21.8086410   3.8097382
  64.5068741  22.8649163   2.9100752  25.6542277  31.0044527  63.4708166
  25.9268165  30.0872684  63.4973383  25.0183964  31.0859990  64.1816616
  73.7374496  16.2330127  28.1693244  74.1498184  16.4903343  28.9939260
  73.3811712  15.3614223  28.3414531  23.7164760   6.9388908   6.6889358
  23.6477971   6.6000372   5.7963592  24.2699409   6.3042897   7.1441197
  35.9943223  15.8563340  46.0083675  36.5364742  16.1796451  46.7279339
  35.4460812  16.6030335  45.7673264  77.8661489  38.0471063  54.4077396
  77.8372765  37.0903587  54.4133663  78.6215591  38.2671404  54.9528742
  34.4760442  22.3075294  54.0171719  34.2991948  21.5568995  53.4501553
  34.7759557  22.9931426  53.4203339  73.7813520  21.8328238  63.4126139
  73.9681244  20.9059167  63.5615730  73.7355709  22.2119927  64.2903185
  13.0318415  55.3767872  23.0563498  13.3913052  55.2713633  23.9372039
  13.7588763  55.7265329  22.5412464  32.3742795  72.8639603  54.0489674
  33.2708049  72.5410318  54.1394615  32.0293736  72.8665876  54.9418640
  42.3631430   7.8948539  29.8464704  42.4860287   7.2539306  29.1462207
  41.5356350   8.3263606  29.6337008  66.7418385  11.4411092   4.9752545
  67.6090050  11.3597357   5.3722882  66.9139576  11.7459714   4.0843755
  10.0612152   5.6235939   0.6675397  10.9152842   6.0369617   0.5413443
   9.7751927   5.3903139  -0.2156382  50.2105474  63.4594870  30.9259748
  50.6959105  62.6400423  31.0216951  50.0634480  63.5420704  29.9837565
  40.2110434   4.2915839  54.1241026  39.8408580   4.2205307  53.2442427
  39.5822334   3.8384762  54.6858168  43.0453491  66.4414549  27.1713233
  42.9881096  66.6797161  28.0966282  43.1604242  67.2754812  26.7159200
  53.3676052   8.0580503  62.3244619  52.7733326   8.5345060  62.9041719
  54.1351938   7.8750503  62.8662634  16.0206270   7.1604997   7.9614413
  15.5255902   6.9883806   7.1604764  16.5837789   7.9022241   7.7402258
  34.1848707  55.1170778  50.6405401  33.6187434  54.3813753  50.4071379
  34.8980618  54.7210360  51.1412764  32.1821499  18.6343217  21.2397504
  31.8253303  19.3549895  21.7589307  32.3407412  17.9366374  21.8756104
  56.9507933  27.7272224  53.4650040  57.4663830  27.2320127  54.1015291
  57.4911213  27.7372432  52.6749563  63.5587215  33.5694766  50.7601023
  63.8319683  32.6524973  50.7333517  62.6526070  33.5405254  51.0672712
  66.4053679  29.2596078  51.9934464  65.8339882  28.8803864  51.3256502
  65.9078074  29.1805935  52.8073406  73.7964487  28.4089923  46.2755346
  74.6757030  28.4763622  46.6478395  73.7132978  27.4895978  46.0224915
   0.6298266  71.7962694  12.8380775   0.1544974  70.9703875  12.9286981
  -0.0301255  72.4206114  12.5365973  70.8005667  44.9134159  63.8659334
  70.5695963  44.0226984  64.1295671  71.6222286  44.8153400  63.3848143
  13.5022724  11.8851757  15.3268528  12.8522873  12.1755099  15.9667408
  14.3422997  11.9931328  15.7728684  38.7589288  53.2951498  40.1784611
  39.3916273  54.0132618  40.1939440  38.3139157  53.3861446  39.3358970
  71.7523766  31.1932778  58.4763002  72.4250984  30.5209637  58.3682871
  70.9618664  30.8032322  58.1032228  68.8541079  60.7534885  59.9315262
  68.8293934  61.0848856  60.8291864  69.4501686  60.0054502  59.9686956
  69.5483351  58.8133574  47.9057550  69.4662666  57.9594612  47.4810648
  68.8341856  59.3336058  47.5375652   4.5996761  41.5711594  13.2382953
   4.8588717  41.2343931  12.3806012   5.1513398  41.0953045  13.8591480
  22.1165442   5.9919912  37.1218729  21.4391088   5.9207320  37.7943587
  22.0582318   5.1698691  36.6351008  46.4829779  60.9629583  11.5196335
  46.7075109  60.1031160  11.8752861  45.6190395  60.8411407  11.1259282
  62.2059870  65.7803726  26.3695836  62.3127747  65.4086924  27.2451878
  62.9461908  66.3793373  26.2717271  60.7666922  15.5014741  30.2022934
  60.2734995  14.6817434  30.2344537  60.0960588  16.1844563  30.1976824
  20.9246516   2.7938423   5.2872616  20.1196384   3.2973832   5.4082203
  20.7661939   1.9731605   5.7537425  22.0935941  49.3352985   5.8276933
  22.7283645  50.0256777   6.0191852  22.2080731  48.7015390   6.5358448
  43.0113697  65.2428770  49.2366362  43.4069920  66.1117506  49.3057442
  42.0772886  65.4138994  49.1163158  34.1234136   4.9637583  11.7337537
  34.0462422   5.7231247  12.3113680  33.9346409   4.2137069  12.2976851
  23.9922571  37.2548985  17.5907350  24.7309971  37.0849538  17.0062566
  23.7345958  36.3896728  17.9088914  32.1329260   6.9729048  24.7968245
  33.0760384   6.8146408  24.7553372  32.0526075   7.9240090  24.8688126
  72.3479605  21.8664861  50.2801323  72.8491116  22.3391938  49.6155787
  71.6610146  22.4791145  50.5428505  44.0506697  32.9972148  62.8894567
  44.5550299  32.4920893  63.5271883  44.0848064  33.8965893  63.2153225
  69.9818468  68.1615925  18.8048220  70.8305454  67.7334356  18.9171958
  69.8732805  68.6894655  19.5958948  10.1667678  44.8092747  62.0029831
  10.3191364  44.5565319  61.0924149  10.9850812  45.2236271  62.2766829
   2.1024060  57.5729656  59.4643021   2.3079002  58.2600260  60.0983000
   1.1933257  57.7404737  59.2158175  30.5632591   1.2453797   1.1660681
  31.2214851   0.9798703   1.8083103  30.8560419   2.1053821   0.8645628
  76.3845778  55.3935957  14.8248160  76.2777805  55.4485750  13.8751829
  75.5879927  55.7891130  15.1787186   2.9235175  67.1325874  37.4340200
   2.1539035  67.3929119  36.9279027   3.3968747  67.9502201  37.5877619
  20.7725358  54.2816067   2.5738272  21.6717482  54.1390133   2.8693217
  20.7371163  53.8733864   1.7087656  26.5853500  63.7229586  63.1787682
  27.5324726  63.7032747  63.3158922  26.4745951  63.5405064  62.2456694
  51.0975075   8.8047612  19.0533280  50.9435511   9.6777117  18.6920977
  50.2423859   8.3762044  19.0167987  41.9051552  54.0740490  45.7210588
  42.6920748  54.2353725  46.2415981  42.2296858  53.6755943  44.9135065
  41.6031122  43.0139828  59.2486811  41.5632677  43.6466551  58.5314846
  42.3741484  43.2725048  59.7535610  78.3480263  50.6147718  29.1361809
  78.0456829  50.4553461  30.0302744  77.5713921  50.4800558  28.5931158
  19.1585898  56.5597630  14.3391645  18.6942422  56.8846512  15.1105666
  19.4561207  57.3499489  13.8882625  29.8967385  10.5547559  11.4595091
  29.4638300  11.2024093  12.0157170  29.4906640  10.6674302  10.6000674
  77.7131891  12.3618388  54.3420792  77.7938557  12.4742067  53.3949280
  78.4249496  11.7653060  54.5739794  65.9807968   6.5835810  19.5076835
  65.5650711   7.2202879  20.0890708  65.4668570   5.7841027  19.6214056
  79.3006977  61.7992401  30.0692225  78.9652500  61.0722780  29.5445967
  78.7068790  61.8479776  30.8183813  66.4650726  65.1097393  29.9624634
  66.7717981  64.4544077  29.3358088  67.2625923  65.5455351  30.2629280
  26.4550996  17.2311556   6.1483002  26.6643047  18.1651831   6.1559087
  27.1410990  16.8364346   5.6099421  73.0713558  31.2046933  47.8143215
  73.4140444  30.5305791  47.2274923  73.2180548  30.8544612  48.6929846
  79.0320587  19.2897522  14.0727949  78.1085491  19.3145406  13.8222992
  79.4996786  19.1468346  13.2499087  30.0255537  15.6156993   0.8199883
  30.6613803  16.2677491   0.5253911  30.4148459  15.2415979   1.6103880
   3.5083467  52.4887228  62.9567432   3.1624091  52.3092985  63.8310242
   2.8101206  52.2148132  62.3620272  31.8730974   8.3372915   9.2605561
  31.9246674   8.5154313  10.1996183  31.1510587   7.7148551   9.1741467
  25.5102921   4.5696563  20.8011484  26.3646412   4.1647631  20.6515503
  25.3620410   4.4754076  21.7420888   8.3021641  16.8625820  22.3539591
   8.6110318  17.3930109  23.0884504   9.0904880  16.6787004  21.8431115
  25.0849104   4.1270182  37.4907780  25.5148172   3.2840705  37.3463845
  24.6456552   4.3169728  36.6617990  30.7970452  15.8480859  29.0632963
  30.8650708  16.7828941  29.2575622  30.5955911  15.8118141  28.1282401
  11.6829383  27.0309973  42.7511978  11.8943000  27.4770260  43.5713291
  12.4909961  26.5783405  42.5095844  24.9941587  58.0082846  11.9103348
  24.4991803  58.5523987  11.2978232  25.8430648  58.4440613  11.9857371
  20.0758529  71.4118290   6.5841383  20.9795165  71.5790415   6.8518353
  20.0038505  70.4574966   6.5668899  17.6520503  23.9000559  18.7833917
  17.0322037  24.0707970  18.0742586  18.1950176  23.1815529  18.4590888
   7.2227639  53.8015175  46.1125231   6.7009616  53.0056763  46.2154388
   7.4011087  54.0884733  47.0081091   6.4549804  73.5492134  13.3614361
   7.1841258  74.1513634  13.5097253   6.7652488  72.9626656  12.6715589
  56.7374754  35.4948926  58.3372879  56.7468500  35.1607466  59.2342186
  55.8290148  35.7574701  58.1889963  39.6422076  25.9165263  52.6353121
  38.9208555  25.8022308  53.2540369  40.3742552  25.4433417  53.0308342
  23.1156540  20.8885503  23.0495071  22.9682875  21.6077781  22.4353194
  22.3054624  20.8368206  23.5565996  52.1416855  13.3922446  63.3229876
  52.0029259  12.4939835  63.0228138  52.2718382  13.3116162  64.2678642
  45.1022911  69.2214632   4.7413942  44.1679573  69.3509245   4.9041569
  45.4673052  70.1061726   4.7244763  50.5271482  34.5715833   7.7211440
  50.6257677  35.4950762   7.9528075  51.3938856  34.3083858   7.4117422
  48.7063169  43.0490255  39.3284464  49.0209293  42.1507597  39.2266059
  48.0872059  43.0047941  40.0571299  59.0396166  40.7905054  42.7157354
  58.5576916  41.5683985  42.9965591  58.3684778  40.1148891  42.6190710
   5.7322586  67.6390409  25.4762959   4.8986912  67.1787310  25.3787661
   5.8620739  68.0799246  24.6366525  71.6401005  52.9286623  52.7072716
  71.3590479  53.8435078  52.7247477  72.5934172  52.9723549  52.6330090
  27.1719217  16.3680744  13.1962001  26.2849402  16.4802337  13.5381246
  27.5912547  15.7660341  13.8109672  21.2719727  11.1655259  15.4740977
  20.9108233  11.5330684  14.6674299  21.6855025  11.9094181  15.9121048
  37.3229957  14.6151209   6.7008597  36.5869927  14.9718785   7.1981061
  37.5645399  15.3155339   6.0947990  43.5860443  49.9649954  52.7856684
  43.3064890  50.4713964  52.0230198  42.8635263  49.3586206  52.9484892
  68.3195976  62.9936395   0.3622027  68.4556679  63.9398037   0.3123065
  67.9582743  62.7582298  -0.4923467  30.7091284  21.3779879  63.5682726
  31.2730217  21.0015082  62.8926134  31.2653565  22.0147777  64.0169811
  31.0429835  18.0447924   3.5553455  31.7911410  17.5530076   3.8939315
  31.4092374  18.5873353   2.8569639  58.5171080  22.6118565  44.9716282
  59.1808033  23.0014491  44.4024515  57.7053261  23.0603766  44.7348404
  46.7760181  18.1452215  57.4194098  46.3265848  18.1270802  56.5744781
  47.0698309  19.0511823  57.5150108  35.7313752  43.8743114  60.7008982
  35.0917649  43.2667494  61.0723782  36.1428237  43.3835363  59.9895048
  23.9850593  30.8334970  12.6523614  23.9345384  31.2552261  11.7945600
  23.9876366  29.8961139  12.4586213  38.2211590  65.8038712   5.1438642
  38.8511968  66.0578871   4.4695044  37.7561665  66.6136169   5.3544116
  56.7507172  16.7152786  57.0783329  56.2495565  16.8828130  56.2802076
  56.4973974  17.4213874  57.6728678  76.7161179  36.8201518  59.2906332
  77.2626066  36.9584227  58.5170317  77.3147392  36.4613819  59.9457455
  38.2078743  47.4726105  52.0723438  39.0659070  47.1792364  51.7658424
  37.6373768  46.7138815  51.9494867  71.4357615  31.5838981  61.1746788
  71.9514656  32.3899055  61.1495209  71.3660383  31.3154769  60.2585316
  62.6953173  16.8295598  15.6121290  62.7180386  17.1227098  16.5230513
  63.1396103  15.9817791  15.6221974  26.7008734  69.4985199   0.0797910
  26.6434216  69.9905062   0.8988646  27.6342821  69.4945478  -0.1322540
  55.8035755  10.7191586   6.7317820  56.4810753  11.3951659   6.7473429
  55.6298780  10.5755150   5.8014989  53.2882786  64.2550755   3.0051196
  52.8514338  63.5973406   2.4640286  53.4310818  63.8181019   3.8447005
  47.1341324  40.4440689  59.3360233  46.3538980  40.9794521  59.1917086
  47.8130198  40.8625174  58.8066387  17.8420842  16.7141509   7.3135322
  18.2120693  16.9106722   8.1741846  18.4632039  16.1012518   6.9200897
  55.8215284  56.7574024  23.1207061  56.3487148  57.5024509  23.4091640
  56.3245821  55.9891558  23.3908224   4.8386964  71.6277266   7.0914489
   5.7080722  71.6017056   6.6917729   4.9199444  72.2658825   7.8002441
   7.0157081  42.4605274   6.8075389   7.9474127  42.3071957   6.6505480
   6.7508274  41.7491770   7.3906738  12.6516318  16.5251565   5.4949534
  12.5532341  15.5731261   5.5086005  11.8947792  16.8370831   4.9988604
  51.6661596  40.8407545  61.8286180  52.1994925  41.5791988  61.5345335
  50.7635975  41.1472225  61.7409086  65.5210447   7.4229032  52.1770477
  64.5760536   7.5288749  52.0675611  65.7913446   8.1905103  52.6809835
  40.5507517  16.4506042  14.0501654  40.4121113  16.1831367  14.9587202
  40.3688860  17.3903608  14.0467298  48.5656357  55.7188940  62.9417801
  48.8849401  55.8266163  63.8376999  48.9097166  54.8695135  62.6653862
  32.9907370  25.3162503  54.8805809  32.9339457  25.9808159  55.5671406
  33.1388760  25.8143735  54.0767431  17.9225171  31.4858103  50.7132626
  17.8242636  30.7633638  50.0930643  17.3591733  32.1775723  50.3663588
  54.5505953  26.5923762  54.9050522  55.2725458  26.9054103  54.3600512
  54.7670698  26.8957424  55.7867241  33.7012792  63.5913610  59.6169281
  33.6777949  64.4839239  59.2719460  33.0628157  63.5933447  60.3300858
  78.8662863   9.2402118   7.2509390  78.0886269   8.8744169   7.6724458
  79.3997002   9.5675313   7.9752082  18.3170235  23.6064696  27.8626013
  17.7150130  24.3389249  27.7309728  17.7800167  22.9246449  28.2662964
  32.2188854  15.3817749   5.7639658  31.9550514  16.0152197   6.4313269
  32.4536920  14.5965993   6.2585330  18.0875087  29.2667651   6.7358941
  18.5881889  29.9386692   6.2731904  17.2185576  29.6516466   6.8500012
  69.4811392  38.1332898  48.2427406  69.5310450  37.1779776  48.2093000
  68.7342310  38.3537364  47.6861811  68.1124592  16.0904288   3.2690921
  67.2420025  15.8145499   3.5561812  68.6293793  16.1279130   4.0738434
  18.6342883  38.8553834  26.8397880  18.5947180  39.5166397  26.1488414
  18.0136967  38.1815386  26.5622449  13.6741054  55.4012156   9.7728848
  14.4696772  55.0846720  10.2007818  13.2234931  54.6065617   9.4870424
  31.9867873  72.8142166  47.4854279  32.8105211  72.6420879  47.9415703
  31.9637394  72.1672773  46.7803240  17.0682800  46.1060286  52.5320578
  17.1090412  45.4655409  53.2422304  16.6051781  46.8536186  52.9100466
  16.6134250  62.5293016  60.8768845  16.2932193  61.6319704  60.9690428
  17.1345663  62.6798296  61.6655445  26.3183141   2.2951758   8.7362224
  26.1251497   2.1655639   9.6647263  26.6436195   1.4456417   8.4383953
   4.5810965  16.0054505  41.9735670   4.2739803  15.9976482  42.8801298
   4.6412477  16.9340003  41.7490482  26.7902470  25.8269191   4.2563960
  26.9100428  26.7615151   4.0878433  27.1972179  25.3940940   3.5058832
  53.1622553  12.4221802  19.6056080  53.6820221  12.5718093  18.8158691
  52.3887444  12.9743314  19.4914341  41.6002035  22.4840522   3.1112719
  42.2525883  21.8263745   2.8702581  40.8797550  21.9795656   3.4889939
  52.5981236  30.3878617  55.0298214  52.2594357  29.5830965  54.6375513
  52.4688101  31.0555053  54.3562031   8.9145178  38.9747500  57.5889492
   9.3440968  38.1250882  57.6877880   9.2121744  39.2960596  56.7378330
  39.0379906  15.8729649   2.3046899  39.2209268  14.9632585   2.5396359
  39.4675684  16.3877916   2.9878059  52.3817825  28.1921148  60.5635595
  53.1802750  28.7120461  60.4724121  52.2086287  27.8625035  59.6817398
  74.1444826  18.2002330  10.4867578  73.6911821  19.0416169  10.5398834
  74.5904446  18.2214785   9.6400589  34.4328785  67.5251818  55.5014038
  33.9445162  66.8860769  54.9824810  34.3905663  68.3324480  54.9887991
  76.9868135  63.0992270  23.0058670  77.8703451  63.2155752  23.3552504
  76.6454554  63.9890242  22.9166055   5.7104820  16.4607918  60.1552105
   6.3226068  17.0686030  60.5700636   6.0351843  16.3678980  59.2595720
  17.8039789  71.4829206  31.7184591  18.3106446  71.9867659  31.0815430
  18.4045458  70.7992363  32.0153165  39.4112086   8.4720802   4.5000696
  40.2528858   8.4500754   4.0447348  38.7661958   8.6025786   3.8049722
  31.4127588   8.5645211  64.4871283  30.9917760   8.8587582  63.6793995
  32.3091197   8.3526361  64.2265987  14.4004083  52.7420950  47.2149944
  13.4954715  52.4785995  47.3820019  14.5842803  53.4034824  47.8820705
  75.9586000  69.8455334  25.4428983  75.8446598  70.7901525  25.5475235
  75.7554054  69.4828272  26.3050961  47.4077988  72.2307444  37.1554852
  47.5124979  72.9999924  36.5955520  48.2984447  72.0096302  37.4276853
   3.1544146  54.9830580  22.9723048   2.3006326  55.0321960  22.5423360
   3.6593324  55.6978798  22.5845933  53.5140038  31.0070872  30.8582473
  53.9968681  31.7656565  31.1863470  53.6795950  31.0072255  29.9154782
   1.5077016  71.1879778  38.5273623   1.2879282  71.6133404  37.6985097
   2.1797118  70.5465794  38.2966137  62.4101591  35.0561309  59.8274517
  62.6723146  35.9467077  60.0606441  62.1933222  35.1063013  58.8964844
  18.9936900  66.9736052  14.8092926  18.5301971  67.6730013  14.3485856
  18.9269245  67.2108316  15.7342243   6.3212967  11.9808936  27.3445368
   6.3533556  11.0804200  27.0215011   6.2355804  12.5155926  26.5552449
  43.0159712  27.7689815  56.1482859  43.6138344  28.4981561  56.3129044
  43.5844517  27.0517993  55.8677340  78.5599852  63.8590670  48.1693792
  79.1337395  64.6132088  48.0340719  78.5170221  63.4340572  47.3127842
  22.4332952  13.7049139   7.2356176  23.3627439  13.9330566   7.2181249
  22.3788166  12.8843951   6.7457056  26.0091901  20.4265380  57.6136541
  25.5734777  21.1739635  58.0232191  25.4136968  19.6917987  57.7612162
  56.7378521  24.5514822  56.5247297  56.1250353  25.1990747  56.8730259
  57.5754023  25.0129199  56.4821768  57.6230764  69.0783787   2.5078213
  57.0972109  68.8753557   1.7342091  58.5266829  69.0700579   2.1921268
  55.4124928  72.4928904  59.6757174  54.8390818  73.1584597  59.2956400
  54.9143505  71.6786289  59.6045494  43.3310652  40.8560133  56.9265175
  42.6476955  41.3069582  56.4306498  42.8655958  40.4403353  57.6523113
  63.1880760  26.4501929  27.1477652  63.7535286  25.9402657  27.7278233
  62.6758099  27.0030022  27.7378654  42.0330381  43.9553070  51.0475063
  42.8139353  44.4856310  50.8888149  42.1294117  43.2054234  50.4604626
  38.0778313  51.7662191  56.1452579  37.6362395  50.9698009  56.4401340
  37.8970814  52.4084377  56.8316364  72.6376438  59.7124338  58.4153175
  72.9767323  60.2472782  57.6975536  73.1039619  60.0273275  59.1896725
  25.6011677  44.2399168  10.5788243  26.2643814  43.7359715  11.0504329
  24.8322201  43.6700344  10.5650902  78.3211565  14.7212505  17.2342420
  78.3461046  15.4768777  16.6471839  77.8048229  14.0680468  16.7620587
  20.7746053  39.8194170   1.6168861  19.9838257  40.3375769   1.4671895
  21.4944386  40.4173660   1.4155769   6.9618940   6.7610079  48.0647421
   7.5903887   6.0964745  47.7825689   6.1719602   6.2663323  48.2827616
   0.5258382   7.1088725   0.4711834   0.9562141   7.6862729  -0.1593855
   1.2015568   6.4772820   0.7176165  39.7544026  13.2646596   2.9094085
  39.4761515  13.1911957   3.8223225  40.6653690  13.5542941   2.9592419
  24.0806484  42.7708769  13.9830160  23.8918900  42.4644327  14.8699749
  23.5242009  42.2325802  13.4201348  24.8847318  13.6937261   6.2305033
  25.8130479  13.8657260   6.3882226  24.8780179  12.9534757   5.6236947
  68.3038568  44.8237419  46.1543417  67.4800634  45.2919006  46.0186148
  68.4247160  44.8219872  47.1038771  69.8394203  69.0517902  59.0061426
  69.8822546  68.8064384  58.0819130  68.9138842  69.2403507  59.1612434
  50.0607491  42.0924520  52.0664978  49.8231220  42.8169441  51.4878082
  49.2381477  41.8421650  52.4871063  76.8014050  61.2558651  60.2307415
  76.8694782  61.3380671  59.2795086  77.5225782  61.7865038  60.5692196
  43.3036280  56.2122107   1.2085270  43.8625908  56.9240665   1.5200606
  43.3951044  56.2351847   0.2559853  20.0232601  19.6243441   4.0288362
  19.6798778  19.6468568   3.1356320  19.2842984  19.3316424   4.5622158
  51.8583822  52.5782013  63.9008331  51.6950178  53.4549093  64.2485809
  52.8079462  52.5388956  63.7867355  11.5664613   8.3583063   1.8045370
  11.0128200   9.1233158   1.9609731  11.3158870   7.7373999   2.4885839
  71.2360954   0.1217792  29.6591306  70.8296204  -0.1645324  30.4770780
  72.1498251   0.2877636  29.8910165  70.6750345  51.4179850  63.4620810
  71.2156343  51.0442257  62.7661753  71.2935591  51.6176271  64.1647911
  60.2436829  66.4736366  37.5168729  60.0988531  66.9781685  36.7164302
  59.3963337  66.0683155  37.7011275  62.9667282   5.1234013  32.6472640
  62.9251671   4.1861382  32.4574161  63.3940125   5.1758891  33.5021925
  45.6625938  55.4443407  61.6076469  46.3842964  55.0359869  61.1294985
  45.4120541  54.7943163  62.2641039  39.2561841  30.8092809   4.9950993
  39.9960065  30.2171612   4.8598686  39.0311527  31.1159134   4.1167089
  67.6555538  62.6726294  49.5143557  68.4983397  62.4380302  49.1258907
  67.7066946  63.6196947  49.6435356   6.8708736  68.8511086  44.1014099
   6.8830520  69.8077059  44.1329908   5.9412581  68.6239910  44.0798378
  38.4529996   5.8094984   4.0066010  39.2158031   5.2980918   4.2764673
  38.5867906   6.6686064   4.4069320  34.2441440   9.3529320  60.5946493
  34.6635413   8.4946769  60.6557608  34.4588423   9.6623111  59.7146368
  68.2756042  22.5220346  63.1944370  67.7241611  22.9687381  63.8367748
  67.6716614  21.9581795  62.7111673  70.1250935  60.3658390   8.3879083
  70.9472275  60.6592035   7.9951322  69.9329805  59.5365858   7.9501218
  23.4698653  65.3723335  28.8497663  23.6493683  65.8801985  29.6410227
  22.5147057  65.3299713  28.8038993  73.0698967  42.9529333  37.2416496
  73.2079887  42.0120525  37.3507738  73.9346647  43.3394957  37.3794031
  71.5859270  45.8598614  60.9001589  70.6438112  46.0134411  60.9713602
  71.9611549  46.7303944  60.7674551  50.6833744  23.4704566  48.5712862
  50.8893681  23.9445281  49.3769264  50.5776930  24.1551805  47.9108191
  12.3226082  62.8939915  49.2752361  12.1010506  61.9793701  49.4501972
  12.9585040  62.8539705  48.5609055  50.1447487  68.8523912  54.4239998
  49.9640226  69.3237495  53.6107397  49.4247913  69.0947580  55.0063658
  55.4252291  35.2078772  42.0806551  56.1503744  35.3405166  42.6912308
  54.6659613  35.5851650  42.5249481  70.1697254  20.7878065  62.1425009
  70.0767279  20.8714986  61.1935091  69.5609999  21.4338517  62.5007105
  26.2963128   7.5268430  15.8059132  26.2821770   8.3334839  16.3210464
  26.0527825   6.8411851  16.4278448  51.9950485  72.3026848  29.3331194
  52.3178577  71.7558432  30.0493526  51.0640907  72.0893192  29.2697048
  46.5520239  14.3150592  24.7022915  46.3897896  14.6368539  25.5890608
  47.4138212  14.6640289  24.4747901  72.0751715  45.6371021  40.6747675
  71.5829277  46.2337160  41.2386608  72.9870701  45.7528782  40.9417391
  58.5893297  26.5568590  48.0226803  58.8928604  27.4587893  48.1257534
  59.0535021  26.2347627  47.2499990  10.0004315  60.7278872  46.1007690
  10.5440843  59.9817228  45.8479595   9.4124740  60.3796577  46.7710495
  61.0294914  29.6203756  54.9764109  60.4223347  30.1810169  55.4593945
  61.4458609  29.0823126  55.6497240  52.7418900  45.9949589  52.9839325
  53.0571890  46.8963623  52.9184532  53.2971573  45.5950069  53.6532211
  73.3728743  53.0861855  39.2900729  73.7318659  53.7340832  38.6837840
  73.0238771  52.3969078  38.7249804  40.0389194  60.4460812  61.3656616
  39.8089194  59.6367502  61.8220758  40.8736134  60.2517271  60.9393454
  48.6336708  48.6192608  51.1901522  47.9423428  48.3349705  51.7880487
  48.3052206  48.3938885  50.3197718  18.7166750  50.3020620   5.1620185
  18.2230556  50.7022333   4.4461733  18.5560513  49.3631124   5.0681555
  70.2757502  38.1067157  28.5013962  69.6677256  38.6599922  28.9917326
  69.7852612  37.3020506  28.3335781  20.8322215  48.4833431   8.3178455
  20.2526498  48.1745005   7.6214665  20.3043509  48.4212780   9.1139185
  56.2489939   2.4236771  54.9476433  57.1598244   2.1383046  55.0196266
  56.3010836   3.3773682  54.8844576  26.2668610  66.2869406  14.6934772
  26.8566227  65.9280348  14.0304530  26.8135524  66.3835669  15.4732358
  25.5667925  28.5447598   0.2557209  25.5230379  29.0331340   1.0777961
  24.7087860  28.6770988  -0.1474456  64.2960119  40.9586477  54.6519470
  63.3776760  40.9440613  54.9215364  64.7863197  40.8388042  55.4652500
   0.2335323  67.2011852   3.3835092   0.5802635  66.3397312   3.6156785
   0.9853441  67.6735353   3.0258802  61.5930625  54.7649746  64.8975278
  61.8602153  55.1663476  64.0706293  60.8240768  54.2414110  64.6722035
   0.3871089  47.5708437  26.2402487   0.3227116  46.7169523  25.8125162
   0.0923297  47.4123478  27.1370292  78.6167240  38.2541895  51.7873049
  79.0765619  39.0841627  51.9135141  78.2456017  38.0529451  52.6463699
   6.2205303  48.4646845  57.6030064   5.3751874  48.1235886  57.3109818
   6.2453121  48.2728052  58.5404539  63.4340382  70.4358530  62.4957275
  64.3632126  70.5927515  62.6638126  63.4221220  69.6968174  61.8875122
   7.7020943  41.0635471  34.7114778   7.3970354  41.8960381  35.0722122
   8.6568129  41.1227560  34.7466636   0.0521012   4.9523091  14.4488776
  -0.5584077   5.4686016  14.9751449   0.9179373   5.2659941  14.7099376
  26.6863394  71.9328499  10.9802079  27.5653887  71.6333914  11.2122142
  26.6251516  72.8106737  11.3569272  25.7913494  39.4004774  59.2467070
  26.1752677  40.2611589  59.0791845  25.8249927  38.9543891  58.4004736
  63.6853361  14.4167864  10.5071056  63.7617016  15.2540243  10.9647465
  63.0717087  14.5892608   9.7930038  54.3960619  74.7818518  62.9238129
  54.1015434  75.3657246  62.2248268  53.9924574  73.9387512  62.7176094
  71.5056896  61.9540405  63.1720161  71.2242985  61.3778543  63.8826942
  71.4194393  62.8370905  63.5312128  28.8492274  14.6566272  14.4127917
  29.7969079  14.7606659  14.4982982  28.7199688  13.7136114  14.3115699
  73.4204292  35.7213354  11.6357231  73.8870573  35.2567697  10.9409773
  73.8366222  35.4232955  12.4445438   5.4673189  11.0091043   6.1129266
   5.9416556  10.6108987   6.8427682   5.1096332  11.8202901   6.4738572
  31.8503356  71.1344671  21.3727593  32.2407055  71.9702721  21.1172700
  31.2540817  70.9193993  20.6555009  42.7817249  14.2227006  24.5069289
  43.2700682  14.8958063  24.0329266  43.1726456  13.3970928  24.2209506
  24.3481350  60.8067179  13.3904624  25.1019120  60.2339077  13.5316873
  23.7586188  60.2946949  12.8368080  51.9631672  40.4958630  47.6054049
  52.1750879  39.8030162  48.2309341  51.3689280  41.0753965  48.0821180
  59.9311018  14.6151316  27.5497985  59.3399048  14.7685206  26.8127823
  59.3541145  14.3665123  28.2719517  57.7667332  57.5838423  19.1616058
  57.0791960  58.0409718  19.6459198  58.0799484  58.2271004  18.5257244
  14.0288508  35.2372146  31.3406038  13.2238901  35.2631664  31.8579006
  14.0749454  34.3385553  31.0142279  61.5500546  60.4092073  30.1218224
  62.0839167  61.0993767  30.5153775  62.0357847  60.1472855  29.3397117
  16.9023407  14.0410936   3.3074188  17.3982656  13.6106861   4.0038666
  17.2074461  14.9482548   3.3216038  48.5676003  73.2199335  40.3794527
  48.0433369  73.4351540  41.1508560  49.2217684  73.9171219  40.3323269
  12.5750470  13.8322461   6.6519010  12.0930743  13.2794309   6.0368156
  13.3402836  13.3106017   6.8938363  48.7334585  15.6026793  23.8567996
  48.5004473  15.9951854  23.0154443  49.1421175  14.7682095  23.6268187
  21.7697167  18.0627012  17.6485324  21.3002563  17.2678411  17.9015875
  22.4159241  17.7655303  17.0079565  49.2223358  11.6099596  10.8336794
  49.7350359  11.8113315  11.6165066  49.0274382  10.6758237  10.9087539
  65.9990978  58.8477278  46.5163612  66.5238571  58.8260031  45.7161188
  65.8526087  59.7791243  46.6815090  53.1409931  10.3444123   0.2612141
  53.0608940  10.5231798   1.1981548  53.9319181   9.8105496   0.1859998
  24.7140503  35.1066017  64.0244770  24.5676637  35.7549381  63.3356619
  24.8939848  35.6261015  64.8080397  20.1865888   3.9446646  57.5840902
  19.6104527   4.5640913  58.0319834  19.8615777   3.9230755  56.6840124
  58.9514732  56.8020296  63.4577322  59.0395212  57.0055532  64.3888903
  58.1346178  56.3067579  63.3970118  47.0742512  62.9703045  53.5193348
  47.7522755  62.5159216  54.0193844  46.4424992  63.2576275  54.1785526
  75.7286978  62.7397203  44.8374557  75.6708241  61.9175053  44.3507814
  76.0052919  63.3844995  44.1863155  29.6533203   9.1439319  23.4017825
  28.9093328   8.6262578  23.0940056  29.9174023   8.7213695  24.2190552
  44.0201616   0.2050379  13.2279062  43.4195185   0.2572244  12.4844432
  43.9344645   1.0523004  13.6649811  73.7755060  51.0992241  33.3954549
  74.5049620  51.5676451  32.9896092  73.6926985  50.2948952  32.8831768
   6.3399696  45.6551361  51.7577982   6.2781197  45.2104902  52.6031923
   6.5845925  44.9648476  51.1414433   4.9396101  14.5773804  14.8414469
   4.1734225  14.6850550  15.4050016   5.6859505  14.6384108  15.4376698
  29.2222691  18.0487561  17.1433437  29.7212172  17.4384832  16.6003442
  28.3426452  18.0410635  16.7659378  36.0253453  45.8528376  52.4207354
  35.2856517  46.3973904  52.6900864  36.1184859  45.2104044  53.1241798
  59.2838430  21.5404630   6.7790109  60.1309013  21.6994572   6.3625449
  58.7646818  21.1007404   6.1056989  37.1682858  21.0076284  15.4480100
  37.0919323  20.0889945  15.1901102  37.4692702  21.4543223  14.6567428
  71.2207222  38.1711197  46.0799599  71.5698481  37.2829437  46.0058737
  70.9551096  38.2484031  46.9963121   9.8155171   0.8731969  51.1041451
   8.8940662   0.6612144  50.9550714  10.2682126   0.5281044  50.3345966
   3.5033062  44.5506907  40.9511137   2.7162465  44.4508791  41.4866590
   3.3106905  45.2929878  40.3782940  27.4139977  19.0337765  50.1916456
  28.1567216  18.4301710  50.1757097  26.9982862  18.8796759  51.0399771
  50.7427073   4.0877616   4.2710173  49.9191570   4.2678636   4.7244030
  51.4206266   4.3754992   4.8824602  78.1929684  72.1628475  38.9938736
  79.1237831  72.2588444  39.1953778  78.1543541  72.1565914  38.0374742
  69.9956226  59.9166107  51.0419178  70.2136946  59.4411135  50.2403069
  70.7487631  60.4874229  51.1942053  51.5006447  27.4692845  57.6814032
  52.1839809  26.8304181  57.8842211  51.5671635  27.5989509  56.7353630
  75.7845163  55.7341576  30.5985689  76.0618544  56.0940027  31.4410830
  74.8611164  55.9759474  30.5271482  69.8148251  49.3863678  46.9257259
  70.3139639  49.9646807  46.3489723  69.1572142  48.9885283  46.3551950
  31.9475842   4.8773494  56.7598820  31.4354134   4.9592200  57.5643778
  31.7933416   5.6986779  56.2931252  64.6906567  14.9291825  19.5915902
  64.0775681  14.4545364  20.1529026  65.5433989  14.8026979  20.0075960
  21.7391086  40.0018787  59.7102785  22.0873141  40.6589127  59.1075420
  21.8533134  39.1703272  59.2501593  58.0039978  37.1881413   9.5700896
  58.8614035  37.6119661   9.5319492  58.1928301  36.2895155   9.8403603
  48.0334091  37.9527092  59.1551590  48.9481783  38.1956911  59.2979574
  47.5380993  38.7389350  59.3848276  18.7178302   4.1466585   4.5661777
  18.3315194   5.0221539   4.5886087  18.6287713   3.8688549   3.6545169
   3.5771751  68.7434483  58.7822962   3.9393231  69.3419361  59.4356632
   3.8400573  69.1187716  57.9419041   7.6104581  52.1140289  14.3466604
   7.7757090  51.5058851  15.0671351   7.8790021  52.9673672  14.6871507
  52.3440123  42.2757626  12.3631501  51.9600153  42.9936981  11.8598139
  53.0790758  41.9750071  11.8288660  48.9588881  32.8482866  41.5158224
  48.5297632  33.6981034  41.6153240  49.4844198  32.9369783  40.7207203
  70.7940245  29.8264790  51.6741514  69.9921799  29.3070173  51.7327690
  70.9694147  30.0987315  52.5749016  20.2028608  39.5234990   8.5705036
  20.0359178  39.4446230   9.5097268  19.9133897  38.6876345   8.2047594
  16.3526332   2.0739235  62.6567316  17.0070028   2.6066932  62.2048569
  16.7155933   1.1882792  62.6455021   8.6405671  19.1819024   3.3800721
   9.5414567  18.9027882   3.2165954   8.7236184  19.9122286   3.9932269
  77.4963284   6.8255103  15.6623423  77.8639650   7.4368554  16.3005674
  77.1171141   6.1247647  16.1927998  69.0729284  63.5262299  16.7539406
  69.3065119  62.9011059  16.0677207  69.4589615  64.3534184  16.4658964
   9.5293671  19.6847558   0.5897802  10.1722264  19.3115568   1.1928444
   9.9538720  20.4692912   0.2426027  35.4445577  13.1875765  59.0058041
  36.0187864  13.9320481  58.8262033  34.9285650  13.0847156  58.2061815
  15.6314838  17.8931570  33.6810303  15.1935768  17.7023363  32.8515363
  14.9862361  17.6655459  34.3504167  32.9863620  15.0413942  62.4006844
  32.1331930  14.7968566  62.7591991  33.4021139  14.2074513  62.1817732
  28.7910199   9.8963249  16.9148910  28.6922956  10.4909539  16.1713183
  27.8988886   9.7632259  17.2352266  50.7689428  27.9192472  46.4546299
  51.3585711  28.5983443  46.1269140  51.2360573  27.0991230  46.2951660
  23.6886048  38.5924530  14.7543979  22.8471923  38.5142112  15.2039933
  23.9582467  39.4981694  14.9067199  45.0739908   7.5647318   4.4421375
  45.8545542   7.5548685   4.9960840  44.9841499   8.4783590   4.1711280
  50.2399349  63.4310722  63.3575678  50.8271885  63.0578613  64.0148926
  49.8543262  64.1947603  63.7868977   8.0072290  31.9386125  35.6512594
   7.6903087  32.8351855  35.7605720   8.1708688  31.6320086  36.5431380
  26.4786648  41.5183080   0.0242253  26.5391707  40.6030409   0.2978249
  26.4978957  42.0146568   0.8424540  59.0334177   4.5817474  34.5398426
  59.3313742   4.8879322  33.6832786  58.0834007   4.5065480  34.4501472
  33.9071035  54.5754957  60.4464340  34.0579867  53.6319971  60.3891611
  34.7148895  54.9248171  60.8228493  22.9210019   0.9151623  14.7389209
  23.5537863   0.2263940  14.5354211  22.3260450   0.9229508  13.9891219
  66.5121078  54.6553516  40.1885939  66.7326927  53.8433075  39.7323489
  65.7608128  54.4262266  40.7356596  64.2903566  18.6557889  32.5827527
  63.9501476  18.0470538  31.9270611  63.9975262  19.5170093  32.2847891
  31.8241572  20.4893661  57.0717621  32.0247650  21.4129806  56.9203472
  32.0263219  20.0608873  56.2400341  37.9646254  45.0339460  61.6318274
  37.1609068  44.6037912  61.3398838  37.6717806  45.6734371  62.2810745
  63.4819937  28.5957575   3.9377809  63.2034349  29.5114684   3.9272287
  64.4304895  28.6353397   4.0603352  39.7304058  60.8852196  18.2448399
  39.1580749  60.4840660  18.8988638  39.4899869  60.4587317  17.4223220
  49.1149664  45.5975437  53.7422943  49.1829348  44.8617077  54.3507051
  48.7185907  45.2223253  52.9559565  76.2486267  63.0001259  34.0792751
  76.9694328  63.5466671  34.3922710  75.9063435  62.5801563  34.8683882
  55.7951736  60.3671837  59.6888351  55.8825350  59.6690702  59.0398073
  56.3394833  61.0781908  59.3505573  37.1066332  23.5521126   2.8903297
  36.8318629  22.7371669   3.3105657  37.2336793  24.1643286   3.6150920
  55.6046438  32.9321432  47.3509741  55.0747156  33.4767032  46.7688560
  54.9707031  32.5263882  47.9423428  12.9084599  38.4735537  19.1495407
  13.6411285  37.8798914  19.3138337  13.3207464  39.2923498  18.8741767
  32.3586011  73.2194710   5.1238328  32.2978187  74.0834570   5.5313462
  31.6986418  73.2346296   4.4306821  19.2312086  64.2214966  38.0891156
  19.7036505  64.4133520  38.8991904  18.3137655  64.3946934  38.3001447
  45.8815765  36.1185932  46.4665270  45.1162863  36.6920924  46.5072727
  46.6272211  36.7046237  46.5961981  34.8165178  62.7775669  16.9424331
  34.7452569  61.8232107  16.9235337  35.7118392  62.9451132  17.2366393
  39.4683456  43.6265135  52.4055672  38.9202976  44.3131208  52.7856255
  40.2393436  44.0894699  52.0777512  69.3707275  45.7485056  52.7882338
  68.8661480  46.1236095  52.0664787  70.0463581  46.4009953  52.9726553
  46.9478941  40.2530336  53.5918760  46.3202286  39.7120380  53.1127214
  46.7626810  41.1468601  53.3037806  42.6099205  14.3174160   7.0212501
  41.8059349  14.0156615   7.4440789  43.2233572  14.4543469   7.7431774
   6.5563887  31.0719275  10.5216837   6.6264170  30.3578353  11.1552465
   5.8953887  30.7737851   9.8968470  53.1131363  71.1943388  46.5068293
  52.4520540  71.8748426  46.3798952  52.6884699  70.5506754  47.0739126
  24.4595718  12.2283828  29.1789818  24.5440006  12.0820427  28.2368112
  25.3609180  12.2427511  29.5008540  27.6750374  49.8181105   8.7903708
  27.2365117  50.2541637   8.0597675  27.9734373  50.5334711   9.3520194
  12.3220932  61.1617374  16.5709817  11.5380120  61.2879562  17.1053207
  12.7210259  60.3629589  16.9159949  33.8412166   8.2581908  17.4050689
  33.3987927   7.7765942  18.1040370  34.6773839   8.5227036  17.7885890
  10.4663098  70.6344175  56.4188957  10.8508646  70.2327633  57.1980143
   9.5855445  70.2630854  56.3679361  35.3824043  31.6356206  19.1480863
  34.9157214  30.9573507  19.6363378  35.6598687  31.2018681  18.3411765
  28.9040732  47.6453209  52.7648830  28.4102488  47.9458714  52.0019722
  28.3879590  47.9395866  53.5153913  40.5676222  40.8771706  61.8165588
  40.0558662  41.5613508  61.3850069  41.2197161  41.3538170  62.3301888
  17.3123145  19.6412051  13.9085317  17.4207723  18.8968062  13.3166373
  16.6568470  19.3497622  14.5422935  20.8661532  -0.3579298   4.1880617
  21.0265612   0.4503187   3.7009940  20.8403468  -0.0839773   5.1048583
  13.5332310  32.7158785   2.4790975  12.8584743  33.3631372   2.2741821
  14.3217218  33.2343841   2.6393077   3.7578893  21.7169762   0.4037718
   4.0066171  21.8356609  -0.5128962   3.9260951  20.7912326   0.5796558
  45.8735991  12.7562571  22.2064519  45.7524252  13.5598886  21.7007613
  46.2996960  13.0434120  23.0140519  38.2705593   3.7736326  18.5195494
  37.6113296   3.2055289  18.1209207  37.7764750   4.5320046  18.8309729
  20.0060654  43.5923767  14.4995487  20.6741977  44.2111874  14.2047465
  19.3926072  44.1252613  15.0054479  36.0663557  64.8281908  52.1496773
  35.5354953  65.5283546  52.5294018  36.6362739  64.5450735  52.8647089
  26.8349051   1.0314398  50.9498835  27.3106933   1.7211244  51.4126921
  26.6271782   1.4142948  50.0975323  68.6499882  58.7297535  41.1181736
  68.0807018  58.7908173  40.3510952  69.3086481  59.4109154  40.9824467
  70.6922817  55.5517244  51.8124723  70.8536530  55.8379936  50.9134531
  69.7990417  55.8406782  51.9991636  17.9317987  21.6035318  42.7254534
  17.6764119  22.2152162  43.4159994  17.7196515  20.7400441  43.0798769
   2.7877879  52.3277330  54.4417524   2.6698455  51.5123940  54.9291325
   2.5614578  53.0157471  55.0675631  49.3664837  21.8088889   5.0236893
  49.4075823  22.6343298   4.5407936  50.2127504  21.7482638   5.4668480
  44.3046331  56.5191507  48.3536768  43.9450884  57.3257494  48.7229443
  44.2194891  55.8751249  49.0566826   5.9888428   5.2975333  54.5216513
   5.6168729   4.4563961  54.2564011   6.9155300   5.2331185  54.2907095
  61.3046265  44.0094900  55.5199432  61.5770912  43.2107449  55.0682783
  60.9767723  43.7059879  56.3664865  60.1634598  72.8318882  25.6620479
  59.5317364  72.3799658  25.1026511  59.6324778  73.2218742  26.3564539
  62.6223183  16.0935986  32.3168468  61.9493294  15.8949280  31.6658092
  63.4293890  15.7404447  31.9424820  21.6457009  17.3014879  22.3920798
  21.8981671  16.4021313  22.6010036  20.6887817  17.2927678  22.4135542
  71.3937855  10.5337775  10.4521763  70.5700159  10.6474042  10.9262311
  71.9313669   9.9943185  11.0320222  18.4621811  64.7149229  30.0964761
  17.6256514  64.2556429  30.1707029  18.9268124  64.4984722  30.9048676
  68.4864902  70.3487158  63.1320906  68.9309692  70.8767557  62.4688864
  68.4709167  69.4652796  62.7639532  74.4039202  56.8590450  16.5831208
  73.5637283  57.2016430  16.2782645  74.8497057  57.6179361  16.9594049
  34.0678624  12.1092624  -0.2890805  33.1174640  12.0281953  -0.2090959
  34.4096593  11.7283124   0.5197974   4.7215363  64.2319727  59.6462250
   3.9139307  64.2957783  59.1363859   5.4196244  64.2424059  58.9913988
  17.3425889  40.1121235  56.6185188  16.9250011  40.0667286  57.4786282
  17.3724020  41.0471344  56.4157963  74.7188568  10.7012737  51.4665937
  74.5932674  11.2012398  52.2731256  74.5231009  11.3235533  50.7661104
  69.5127821  28.2079101  48.8484573  68.7111950  28.0117822  48.3634615
  70.1553154  28.4228182  48.1722927  59.7922945  37.0825577  54.3060493
  59.3353558  37.8888321  54.5455456  60.7200670  37.2920346  54.4136906
  12.9614055  61.0790300  52.7506065  12.2500944  60.4577255  52.9063416
  12.5362897  61.9366121  52.7581024  74.6612358  43.4507895  49.6762180
  74.5889616  44.3440008  50.0126362  73.8253403  43.0419588  49.9006367
  76.4453173  72.7028751  49.6706724  75.6982803  72.6178694  49.0782738
  76.4038277  71.9215727  50.2221060  47.4309615  17.1147508   0.9619065
  47.4662427  17.3447818   1.8903847  48.3466462  16.9959850   0.7096167
  68.9614153  55.3502083  59.3450260  69.2456007  56.2442160  59.1547203
  69.7365141  54.9256468  59.7127199  29.9452782  66.5272474  57.2215366
  29.6330142  67.3542976  56.8545055  29.9893832  65.9339285  56.4716959
  47.9173326  68.5385942  56.1785936  46.9629049  68.5695219  56.1127329
  48.0992985  68.7091446  57.1027327  52.6850128  53.4191275  18.2270980
  51.7354918  53.2990646  18.2421386  52.8122139  54.3472528  18.4236622
  77.4036741   5.7696795  45.2224731  77.4337816   4.9758694  45.7565069
  76.4752579   5.8884192  45.0220203  69.4397306  69.6214151  21.0239506
  69.1749525  69.7655869  21.9324303  70.3535652  69.9045849  20.9929991
  15.7804251  63.6090851  45.1121855  16.7368448  63.6288691  45.1453829
  15.5785084  63.1056261  44.3235254  65.8772039  63.4012318  41.1131811
  65.5924892  64.1881561  41.5778494  65.3353167  63.3795834  40.3244305
  70.5735874   5.1420951  36.5787101  70.0730515   4.9736241  37.3770285
  70.6730795   6.0938090  36.5547514  42.6316690  17.8842223   8.9402914
  43.4590292  17.6512301   9.3614984  41.9593048  17.5107872   9.5101243
   7.1230555  45.6873512  58.4070444   7.9788369  45.9129906  58.7716770
   7.0246589  46.2661648  57.6510525  47.3024082  20.1054096  50.4909229
  47.0232868  20.6916308  51.1942482  47.5048494  19.2807233  50.9326696
  41.1281347   4.9704704  38.8826752  40.2765942   5.2141041  39.2456555
  40.9255457   4.6033597  38.0221987  11.4139807  68.5865498  43.6933804
  11.5565813  68.9854145  42.8350067  10.7694674  67.8972435  43.5330915
  69.3560123  28.8873267  37.9186606  69.4192934  29.8226070  38.1122541
  68.7040901  28.5582256  38.5374641  65.9497023  11.9538176  53.6258745
  66.9001579  11.8662453  53.6979628  65.8088732  12.3271000  52.7557850
  10.7454956  59.6262264  53.2712126  10.6570244  59.2256784  52.4063587
   9.8484772  59.6878099  53.5995340  37.4351835  23.8439345   8.5826933
  37.0987678  24.6542788   8.2000721  38.3647799  23.8392019   8.3545208
  63.3822775  59.3515301  60.1201963  64.2213726  59.4523239  60.5696297
  63.5057163  59.7939634  59.2804050  28.4741831  28.7459683  58.3233786
  28.1167936  28.9199185  57.4526072  29.2220211  28.1699657  58.1646633
  75.6638002  14.1418839  54.8784685  76.2988186  13.4364843  54.7543907
  75.0571060  14.0499508  54.1438246  54.0358734   1.4383218  28.6960649
  53.7670994   1.8716091  27.8859687  54.6761703   0.7839714  28.4166455
   1.7913206   6.0651076  25.2761412   2.1381876   6.9191998  25.5339003
   2.5619087   5.4997778  25.2229571  18.4662724  19.6943414  56.1297321
  19.1347337  20.2522993  55.7321453  18.9622116  19.0382242  56.6194105
   6.0332572  53.4790468  48.7210274   5.8741510  54.0086222  49.5023489
   5.5831385  52.6526213  48.8960838  76.1318588  46.8364048  22.5703216
  76.2543249  45.8892202  22.6341105  76.1547375  47.1424675  23.4769845
  32.0399547   8.3017832  33.9054060  31.8272305   8.1106734  34.8188925
  32.6009059   7.5755399  33.6331248  52.7401257  23.0553818  18.9151549
  52.6872158  23.9859700  19.1329515  53.2365417  22.6684618  19.6363318
  48.6863518  10.9117293  19.1497719  48.0671644  10.4885304  19.7445333
  48.8281059  11.7790782  19.5290387  42.8396273  50.4403734  13.9096248
  42.8893185  49.8325968  13.1718111  42.5829983  51.2743378  13.5160863
  76.4368439   1.0975432   5.3820181  76.8893909   1.8927041   5.6633568
  77.0500231   0.3899188   5.5807829  44.0248775  15.8250797  22.6378655
  44.6840525  16.5185499  22.6665115  44.1382551  15.4222751  21.7769790
  53.6947632  17.7542961  26.7354631  54.4214678  18.2306647  26.3339615
  53.8479042  17.8330219  27.6770496  34.0384769  10.2668393  42.6640415
  34.7727966   9.6537298  42.6308489  33.3437061   9.8355860  42.1665001
  12.2960246  65.2167559  57.8217649  12.5013781  64.4532251  58.3612871
  12.9105854  65.8894968  58.1149721   0.3413363  51.2619734   4.5815963
   1.2263461  51.4293861   4.2576295  -0.0573091  50.7053900   3.9126205
  21.6128063   8.9604110  60.6111622  20.8626342   8.6340272  61.1081028
  22.3669100   8.5115951  60.9934235  66.7739916  63.8437843  44.5445967
  66.4596462  62.9769230  44.2877626  67.6361609  63.6821127  44.9276876
  28.4078815   0.0838932  45.9419823  29.1495357   0.5758795  46.2943125
  27.6459243   0.4383501  46.4002562  46.2399483   6.7181367  35.7453966
  46.9863319   6.1195028  35.7174540  46.2937021   7.1278316  36.6088152
  18.2410061  63.0069923  49.1206408  18.4458899  62.2690487  48.5464573
  17.5123870  63.4520721  48.6879158  61.7841578  37.7255058  12.5302112
  61.2638044  38.3613420  12.0391154  61.5834856  37.9094839  13.4478796
  70.9432125  34.8850012  10.6129038  71.7718887  35.2382779  10.9365141
  70.9944010  34.9865818   9.6624863  51.8400526  14.2344260  39.7998309
  52.1514559  14.5452213  38.9497328  51.5528202  15.0265956  40.2539158
  45.3648424  68.1772041  52.2597313  45.9533644  68.9117289  52.4339437
  45.9287739  67.5032473  51.8802595   8.6343944  28.1168151   1.6464254
   9.2953610  28.0802155   0.9550387   8.5410553  27.2095180   1.9368196
  20.4157352  60.7848501  20.2051950  21.1867976  60.8079958  19.6384883
  19.7153711  60.4532194  19.6432829  19.2406774  67.2242928  31.7887092
  18.7697554  66.9702196  30.9950399  19.6398032  66.4121532  32.1007347
  60.4666424  59.5665407   0.0371144  61.3183689  59.8698425   0.3514482
  60.4496145  58.6342669   0.2534682  66.3361597   6.1933911  45.3992701
  65.9244156   6.9603151  45.0011158  66.1589861   6.2853473  46.3354254
  75.9334993   0.6384283  21.4717770  75.4464149   1.4579131  21.5579367
  76.2434483   0.4497676  22.3575377  37.4478579  71.5449905  34.2566943
  37.6727486  71.7658806  33.3528900  38.2235074  71.7872572  34.7625685
  75.3607082  47.4186277   1.9637342  76.0175514  47.6563025   2.6181781
  74.7421169  48.1490707   1.9690020  10.1508558  13.3303082   2.3105535
   9.2733872  13.5383201   2.6315072  10.5668676  12.8641462   3.0357155
  25.4534650   9.5990545  20.6386471  25.0247312   8.7478900  20.7277346
  25.2481699  10.0571167  21.4536715  19.1011822  26.9283175  46.8029594
  18.2803440  26.4502072  46.6851997  18.8325465  27.7916455  47.1171713
  34.2925930  63.0208826  42.3823261  35.1974225  62.7233267  42.2875738
  34.1803074  63.1500196  43.3241081  27.2927165   6.3471353  43.4440231
  27.1199226   5.9995955  42.5690460  26.4732647   6.7706811  43.6996412
  52.6350832  19.5549893  56.5033436  52.1361637  18.7981904  56.8108606
  53.0585289  19.8984516  57.2900867  46.8864250  46.4805889  54.7527695
  46.6557837  45.7183743  55.2838659  47.7966404  46.3287497  54.4984531
  38.0741096  31.0150909  59.9829865  38.2854772  31.3834333  60.8408165
  38.9226818  30.7802320  59.6074867  28.4145856  20.9789491  21.9395518
  28.5040808  21.7224360  22.5357461  27.6265216  21.1725307  21.4318967
  79.3591642  32.6280975  50.9927607  79.2395496  32.6287580  51.9424582
  78.7958145  31.9198561  50.6808949   4.2642596  49.0223026  52.3591137
   4.3888322  49.6712446  53.0516434   3.3147907  48.9185286  52.2961044
  27.6886940  65.6845570  40.3177595  27.5377107  66.4325905  39.7399354
  27.1262598  65.8491707  41.0745907  36.7399073  16.0241735  50.2547073
  37.4214959  16.2380612  49.6175909  35.9300232  16.0136557  49.7446012
  25.1870084  28.6092091  56.7105675  26.0519123  28.6345887  56.3012600
  25.0213146  29.5136309  56.9766426  54.4167566  50.7287312   1.5165782
  54.5975637  51.6419220   1.2938078  54.7453690  50.6306171   2.4102330
  14.8200786   3.9575845  38.0832338  14.2265511   3.4366968  38.6241889
  14.4805467   3.8606319  37.1935439  77.6345921  34.8415160  28.9101958
  77.3250198  34.1296792  28.3501220  76.8519306  35.1389647  29.3740940
  40.9526634  73.5186672  41.7284966  40.9444237  74.4691801  41.6158772
  41.7435312  73.2303381  41.2728357  77.6656818  59.5069742  35.4888654
  77.0224714  59.8829889  36.0898042  78.0249357  58.7562084  35.9616470
  61.8634558  57.0832920  12.3096323  62.0308161  57.4039078  11.4233863
  62.5527668  56.4375544  12.4648833  56.2578297  61.3928986  62.2565365
  55.9100246  61.1766815  61.3913679  56.8590355  60.6760979  62.4589729
   6.3845909  61.5080118  30.2739477   6.6407621  61.7923164  29.3965769
   6.0707980  60.6118011  30.1532245  51.5303278   3.2565522  45.0316715
  51.8673849   3.8068050  44.3246746  51.5298891   2.3715600  44.6669531
  27.8118205   5.9135497  36.7674160  27.8956604   5.5858827  35.8719611
  26.8783951   5.8355802  36.9645786  18.8754117  10.9028637   9.4808626
  19.1779065  10.2736199   8.8260496  19.4559622  11.6565061   9.3749529
  72.9653025  39.8305821   6.5483499  73.5503292  39.3518710   7.1355605
  72.9855347  39.3321347   5.7314211  36.6644669   0.7582518  43.8720703
  36.2111449  -0.0847174  43.8605309  37.4553847   0.5978421  44.3868017
  34.6152663  61.4711857  57.2647333  35.0066900  60.8182526  56.6844797
  33.8512826  61.0320902  57.6385689  70.5317402  24.0947747  42.2781086
  70.0152874  24.8315859  41.9515800  70.1688290  23.9134622  43.1450844
  32.6917076  10.9518349  49.3752909  33.6362028  10.8741832  49.5099401
  32.6018906  11.2327254  48.4646511  72.1429729  30.1380301  28.5814714
  72.4846601  29.2543578  28.7178636  71.5884542  30.3008318  29.3445182
  13.8384295  14.5779157  48.3097315  13.9605474  15.2432525  48.9869642
  12.9007840  14.3863404  48.3284903  78.1648588  18.4346700  10.4693818
  78.7033653  19.0626097  10.9509766  78.7199497  18.1504714   9.7432047
  35.3759360  69.9190760  41.1260509  34.8880506  70.5895567  41.6042280
  34.7159028  69.4787025  40.5906439  37.2178912  16.0236549  55.5701923
  37.7920914  15.4823589  56.1119699  36.3472199  15.9028339  55.9490919
  46.9200325  36.0696721   7.6283389  46.9306803  35.1142001   7.5718498
  46.5808630  36.3559771   6.7802674  71.5330362  17.8672123  22.6364160
  71.7906046  17.2765017  21.9286394  70.8866167  17.3713672  23.1389260
  40.5334330  51.2123251  48.3448744  40.4713249  50.4360008  48.9013863
  41.4200783  51.1792374  47.9857159  53.5172987  16.1085033  59.4058990
  52.8743458  16.7176151  59.0428162  53.1692028  15.2412271  59.1987896
   1.5577731  48.9202023  53.0448151   0.9967241  49.6623850  52.8198290
   1.2350741  48.2022524  52.5001621   2.0247385   6.7551154  19.8627961
   1.4826097   6.7337400  20.6513834   1.5073779   6.2921184  19.2038548
  14.6290267  32.0838428  13.0108464  14.8227417  31.5280128  12.2560215
  13.6739337  32.1460009  13.0236912  18.7352967  60.1496458  54.6698713
  19.6211123  59.8899603  54.4166374  18.8553834  60.9611607  55.1630831
   1.9927308  21.0235786  30.5134869   1.5998635  20.2827215  30.0519490
   1.5034136  21.0812616  31.3341403  19.5972216  11.4092946  56.3457251
  19.7089171  11.0086954  57.2078609  20.1610446  10.8951139  55.7678366
  51.4743662  10.8733845  17.0508993  51.8947124  10.9404051  16.1935496
  52.1915054  10.9700787  17.6774693  52.4877024  29.8545241  45.7271099
  51.6877604  30.2053165  45.3356171  53.1276226  30.5607748  45.6379843
  76.7303467  23.2295871  41.9866037  76.3269472  22.7087450  42.6810265
  77.5817490  23.4843922  42.3421621  47.3210144  28.9113164  49.6933222
  48.0074358  29.1787982  49.0821695  46.7081022  28.4062624  49.1590071
  37.9296494  59.9412775   2.0051201  38.8057375  60.0158167   1.6267709
  37.3410082  60.2164030   1.3022427  45.4614401  55.6601048   8.0139965
  45.1242018  56.5151024   7.7466249  44.9724150  55.0326157   7.4816936
  55.8127451  47.8005314  18.3726120  56.7670488  47.7294779  18.3946538
  55.6394100  48.7348270  18.4878707  50.4654936   0.1205953  39.1220260
  50.2384476   0.8097728  39.7462988  51.3700489   0.3110298  38.8735342
  33.7513041  67.3840618  40.9852219  32.8541064  67.1546459  41.2273693
  33.9776611  66.7652750  40.2908850  45.7815027  38.3301377  40.9819937
  45.5761290  37.4105263  41.1504221  44.9351501  38.7755680  41.0208464
   2.5308278   0.4778278  13.6424077   2.5926656   0.7848012  12.7378774
   1.7214239   0.8676094  13.9728129   9.8453563  50.0309277   5.6140459
  10.4755068  49.3171787   5.7125866   9.5976877  50.2572441   6.5105236
  52.2075939   2.5451952  49.9940109  52.3880243   1.6051596  49.9968338
  52.4883366   2.8403628  49.1278172  53.5221338   3.4041181  46.7359734
  52.6548719   3.3506563  46.3344383  53.5631895   4.2882201  47.1005392
  13.3848071  10.1295125  61.6442299  12.6639473   9.4998205  61.6531992
  13.4889925  10.3873754  62.5601339  34.9929142  72.6650190   1.5711422
  35.6488252  72.0922232   1.1737514  34.3827033  72.0670509   2.0027786
  78.9338923  62.2099924  55.2255392  79.2274380  63.1197214  55.1759720
  79.6780157  61.7382574  55.5996704  63.0701780  49.5535946   6.4449954
  63.4406757  50.3053236   5.9825385  62.7455091  49.9157953   7.2693938
  71.6881418   3.2323012   2.0123389  71.2503195   3.2780048   2.8623110
  72.6216221   3.2637030   2.2217637  64.8396254  59.3460369  18.3277309
  64.6919346  60.2911377  18.3623910  65.7443523  59.2341423  18.6195898
  79.3218231  46.3167334  44.2885828  78.7950945  46.6934252  44.9934864
  79.0355492  45.4048157  44.2367506  71.7798376  72.5775242  20.9869051
  72.0276499  72.8082848  20.0916004  72.0247316  71.6562223  21.0732937
   3.6597091  71.7097807  49.2918921   3.6648658  72.5914669  48.9192867
   4.4970542  71.6385269  49.7501564  69.8834085  47.6619673  14.5304203
  69.1910315  47.0057058  14.6089697  69.6818542  48.3052921  15.2099359
  62.7163219  14.3911242  23.8361430  62.8333664  13.6434650  24.4222641
  63.4398651  14.9797034  24.0513062  27.5572634  64.5134497  43.3241224
  27.8428602  63.9185953  42.6307154  26.6646385  64.2337036  43.5270882
  32.5795889  64.1981792  62.2058201  32.3873043  64.9711561  61.6750050
  32.0675278  64.3229151  63.0048609  16.9049895  26.0665226  40.4992771
  17.2631550  26.7401862  41.0773134  16.8680143  26.4841914  39.6388006
   2.0384254  15.5651116  16.4699268   1.3460696  16.0167754  15.9873557
   2.3989367  16.2331426  17.0530200   0.2827426  50.2926016  63.1987190
   0.5946370  49.4303989  62.9238367   0.2293654  50.2350521  64.1526937
   6.7022246  48.9067793   4.1849875   6.0874283  48.3932352   3.6610296
   6.4009768  49.8103952   4.0903631  69.2493582  61.2480259  43.3288860
  70.0821161  60.9817600  42.9392052  69.4297791  62.1037102  43.7180948
  13.2855427  51.3849878  10.9475338  13.4890389  51.7355156  10.0803816
  12.3326182  51.4469385  11.0133338  11.9408703   8.9638174   7.8235477
  11.3214219   8.7122852   8.5085648  12.4241233   9.7010720   8.1965798
  51.8191862   8.9818740  54.1092348  51.3382816   8.1738621  54.2883539
  51.3636732   9.6501988  54.6211720  30.2052736  32.9254913   6.9769061
  30.9514499  33.3943033   7.3506254  30.3769922  32.9137564   6.0353082
  55.8957911   8.4722745  57.6549339  55.1438808   8.5684621  58.2394028
  56.3518620   9.3119568  57.7112198  62.4332619  57.4168348   5.5358386
  61.6504097  56.9053268   5.3315610  63.0307865  56.7885780   5.9414053
  47.0928812  16.3937557  59.3408394  48.0451822  16.4458263  59.4223690
  46.8781519  17.0118809  58.6422396  60.3216982  48.5244703   5.8465701
  60.7881975  48.6681557   6.6699576  60.7727671  49.0845537   5.2148426
  20.5865836  41.9724274  64.1709232  20.9455800  42.2188616  63.3185053
  21.1403799  42.4281406  64.8048544   9.1364461  41.9966793  22.0984697
   8.9466089  42.9297781  22.0008874   8.2988304  41.5634108  21.9344211
  62.0440054  39.9956083  61.7833853  62.9712582  40.2212286  61.8577051
  61.6399145  40.3847027  62.5589800   6.9538552  66.1584139  22.4324703
   6.1254472  65.8248854  22.7770448   7.3267478  65.4208040  21.9496512
  67.0843315  13.8098395  21.3983893  66.8456316  13.3042526  22.1753287
  66.9097137  14.7190785  21.6413379  55.2215004   0.0293068  50.5490875
  55.8082771  -0.1201877  49.8077536  55.6744719   0.6797622  51.0857058
  20.9523296  67.9551172  57.3228836  21.7812252  68.4097672  57.4727392
  21.2076521  67.0969057  56.9844913  64.0542746  50.8877325   2.4685928
  63.6641741  50.0453043   2.2354156  63.4092808  51.5365028   2.1869618
  58.5534096  61.1389923  53.8585567  58.2666969  60.2406120  53.6944103
  57.7528334  61.6604042  53.7998867  47.0067263   9.4857544  57.5831223
  47.8661537   9.1525733  57.8412008  46.4779615   8.7004685  57.4418259
  50.5185366  53.8708496   9.1952604  50.7036209  54.4191504   8.4328008
  51.3405085  53.8570738   9.6855718  72.5596762  33.9732003   4.4348776
  71.6723013  34.0630221   4.7823411  72.5288010  33.1789660   3.9015204
  21.7679358  11.1894751  20.0987005  22.5725532  11.5622091  20.4591060
  21.7254233  10.3079164  20.4692125  66.7285538  44.4151545   5.5045569
  66.2262249  43.6533260   5.7935512  66.0868454  44.9719381   5.0636095
  16.7513263  43.6892128   0.3531303  16.2031424  43.8194418   1.1269306
  17.4212849  44.3698883   0.4169146  67.1405792  57.6633787   4.7461286
  66.2790155  57.4975348   4.3634567  67.7335644  57.0924759   4.2575863
   1.8684408  61.1356497  35.2028990   1.2392086  60.9159851  34.5158434
   2.4662028  61.7588186  34.7898936  58.9522362   6.9228506   3.0775529
  58.9017868   6.3968331   2.2794349  58.9259100   6.2824839   3.7885168
  22.8281403   8.2285815  46.9327927  22.4817657   7.3786116  46.6611195
  22.1719313   8.5718942  47.5392246  67.8599405  70.5972385  33.0369878
  68.1235361  69.7187662  32.7630639  68.5603094  71.1673260  32.7196264
  22.5608087  68.0983305  10.9373093  22.9198885  68.4269571  10.1131141
  23.2849097  67.6187897  11.3397408  69.7451878  19.1176355   0.1386154
  70.5515194  18.9124525  -0.3346311  70.0355434  19.6197069   0.9000938
  77.5909948  36.4227128   6.6462976  77.7092266  35.8532977   7.4065739
  78.1728458  36.0567355   5.9801596  41.1074400   6.1327255  21.4380455
  41.1128330   6.8670094  22.0520735  40.4415846   6.3662559  20.7912564
   8.7944758  10.1236248  14.9179959   9.0026128  10.0907075  15.8517122
   7.8864610   9.8255259  14.8643589  21.4318967   4.1543666  45.6621981
  22.0279813   4.9032515  45.6714773  21.1703730   4.0677512  44.7455025
  47.4455833  37.8350997  62.3652887  47.8087854  38.7112355  62.4945402
  46.7357683  37.7733827  63.0044937   4.8589858  66.6188812  10.6806350
   4.2036110  66.3844013  10.0235701   5.2868360  65.7907581  10.8983254
  16.8274987  20.6435513  26.2922144  16.5417051  20.2044606  25.4911184
  17.7601099  20.8095527  26.1546969  32.8053951   4.0178728  30.5469346
  33.5497594   4.5064542  30.8982801  32.8298879   4.1884133  29.6053696
   1.5669735  13.6139345  49.5699692   1.5822580  14.1394532  50.3698587
   1.3755864  14.2425966  48.8739872  21.7538404  18.9640617  48.3062029
  20.9316850  19.4189477  48.4888792  21.7400193  18.2023573  48.8857269
  47.8874207  15.5024004  17.5798798  47.0527506  15.8964908  17.8333521
  48.2750607  15.2108920  18.4051001  29.0576005  20.7758045  44.8209429
  29.0082383  19.8367262  44.6422625  28.1552434  21.0835791  44.7357512
  34.3413591   5.6322074  48.9127493  34.8451877   5.2196056  48.2112169
  33.5222459   5.8980852  48.4949017  47.5472641  18.4034491  63.5286570
  47.0235300  19.1520536  63.2431269  47.6093817  18.5029948  64.4786358
  24.8994994   6.7325443  39.0662384  24.5225334   5.9352922  38.6940598
  25.3813434   7.1306974  38.3413005  59.5379114  60.6579018  27.6920342
  60.4854870  60.7864857  27.7344775  59.3093681  60.8587074  26.7844677
  67.7342987  41.5702820  58.5622883  68.4879875  40.9860849  58.6453104
  68.0144405  42.2346735  57.9327345  58.2301950  49.3097162  25.6868172
  58.9724445  48.7149429  25.5794001  58.0219364  49.5959044  24.7974586
   4.8075950   1.8888173   3.9421511   4.2468995   2.5998378   3.6318246
   5.6832415   2.1224461   3.6341041  21.4881301  66.2272358  22.0099521
  21.2887311  65.3722572  21.6285372  21.9910908  66.0260296  22.7991152
  49.1032076  26.1720181  48.3896494  49.5176411  26.9695759  48.0604410
  48.1659603  26.3659787  48.3760691  50.3075218  13.7706280  60.9716892
  49.4039679  13.8600349  61.2747192  50.8140516  13.6202240  61.7698336
  13.3584499  20.1322699   4.4660044  12.7028167  19.6123195   4.9307948
  14.0336645  19.5005512   4.2185184  23.9819360  28.3759212  59.0676975
  24.5702243  28.1440783  58.3490896  23.2258296  28.7763810  58.6385489
  72.9782486  42.9825926   1.3545637  73.5480309  42.2864389   1.0275254
  72.8585958  43.5660124   0.6052087  55.1921606  58.1327724  64.2478991
  54.2919016  58.3555651  64.4848204  55.2621317  58.3698511  63.3231640
  48.0142117  32.5367284  57.7597475  47.4465084  33.0266356  58.3546734
  48.9024258  32.7653146  58.0337238  40.7564020  63.7464905  60.0132275
  40.2615070  63.3028603  60.7020712  41.5795231  63.2609272  59.9590540
  11.3444984  62.8721714  39.1124845  10.7825458  62.1274567  39.3265820
  11.3901293  62.8707170  38.1563735  30.6468964  17.2521865  60.9766817
  30.3060079  16.3577580  60.9716606  31.1995912  17.3022389  60.1967716
  62.9549789   6.3151598  49.8820639  62.7684546   6.1800474  48.9529848
  63.4159136   5.5207998  50.1518106  55.7157421  33.3456349  38.0770516
  54.9458790  33.0095267  38.5359359  56.2913036  33.6608195  38.7739158
  46.7804718  22.6709127  60.4569101  47.3903275  23.3584714  60.1893806
  45.9778118  23.1389332  60.6869650  40.9647751  27.8211999  50.9388733
  40.4825830  27.3266196  51.6015291  41.5780878  28.3585334  51.4402294
  13.6886537  20.1548600  57.1274805  13.6799681  19.3818307  57.6919127
  12.7964723  20.4979897  57.1775150  39.8272753   2.7596414   6.7759222
  40.3257084   3.5237283   7.0656925  40.0141096   2.6928395   5.8395135
  32.6347733  18.0922210  51.2184095  32.4110007  17.4801064  51.9194603
  32.4328232  17.6172960  50.4122496  76.0284710  52.8563261  48.9620733
  76.1452293  52.8678274  48.0120897  75.5427599  53.6586332  49.1534233
   4.8696810  47.5792646  12.9043150   5.4018211  47.7651596  12.1306860
   4.7258583  46.6334009  12.8744507  56.0584736  16.0414529  22.5441623
  55.8403015  16.8476284  23.0118299  55.8976078  15.3445220  23.1802773
  43.6951351   5.7431030  20.6778908  43.6008930   4.8050112  20.5125570
  42.7986956   6.0562962  20.7984781   4.0814391  42.2101450  19.6789145
   3.4135166  42.0008564  19.0259886   4.6846449  41.4674473  19.6510422
  60.3533411   2.7417335  46.6203785  60.9866953   2.5179261  47.3022890
  59.9702549   1.9026560  46.3645887  51.9091558  16.4174461  64.7791910
  51.8877029  17.2429228  64.2950821  52.1810007  15.7670307  64.1316652
  40.3365660  15.9623444  49.1730642  39.6646070  15.4123497  48.7703133
  40.8271313  16.3212931  48.4336472  42.6763916   0.3878006  38.8242412
  42.5441456  -0.4859495  39.1920757  42.0929384   0.4193230  38.0660748
  17.3040020  71.2781763  25.6648540  16.7276204  71.7760134  26.2446618
  17.4865437  70.4702520  26.1446118  75.4026413  64.9610806  54.4901323
  75.5770493  64.1074514  54.0937328  74.5988750  65.2621841  54.0664291
  37.5665808  54.8237276  54.6578646  38.4777355  55.1129675  54.6091986
  37.5918317  53.9059830  54.3870544  60.9312296  27.5704360  60.1014519
  60.1335335  27.3948646  60.6005335  61.0646152  28.5143971  60.1873541
  50.0010347  69.4024324  44.4934082  49.4603252  70.1750660  44.6574354
  50.6678152  69.7033882  43.8761044  31.9081354  59.4398260  17.3565233
  31.1954474  59.7350788  16.7898369  31.5820742  59.5819187  18.2451880
  45.8151913   2.6979440  20.9867072  46.6739321   2.3795380  21.2649345
  45.6122828   2.1863772  20.2035332   8.4231699  71.8864202  11.5793502
   9.0632635  72.5951004  11.5138972   8.7019199  71.2503052  10.9206474
  57.8176689  57.8024530  26.9342160  58.2280254  57.5733185  26.1003470
  58.2780552  58.5919476  27.2187734  32.3094749  16.1746860  56.1456823
  32.2933459  16.2783539  55.1942492  31.4694691  15.7670200  56.3564682
  57.8983593  12.7031350  52.6353931  57.3875284  13.4832132  52.4191475
  57.7435780  12.5669992  53.5701323   0.3480088  37.3489738  35.7638335
   0.3101782  37.1145058  34.8365664   1.0584763  36.8137693  36.1174226
   6.3036615   6.6245145   0.2230144   5.4401696   6.9074374  -0.0779320
   6.3620138   5.7073992  -0.0448037  59.1257143   2.8464934  41.2768316
  58.3184338   2.3367725  41.2081718  59.3153572   3.1169313  40.3784275
  29.1996789  33.9787030  53.3562946  29.9387741  33.7182307  52.8066349
  28.7126470  34.6055770  52.8214502  16.3295305  54.1369295   3.3335525
  16.5068924  54.3841743   2.4260035  17.1890998  54.1389465   3.7547025
  61.9738054   2.6793456  50.2551270  61.3397217   2.7568412  50.9679794
  62.7426434   3.1577399  50.5653858  24.6739435  15.7348132  41.6082954
  24.0125418  16.4263129  41.5836096  24.3370032  15.1036990  42.2442198
  40.7960558  13.6184025  64.3959284  39.8581219  13.7978542  64.4615555
  40.8681202  12.9754603  63.6904764  57.5586319  63.9704370   2.9000527
  57.5875282  64.7306442   2.3191209  58.2300711  63.3809471   2.5566837
  46.3172626  11.6024315  44.6615410  47.1331787  12.0707619  44.8381138
  45.7653809  11.7879367  45.4213095  64.3394041  31.1121392  36.8658328
  64.9114799  31.8096042  36.5456700  63.8965273  31.4944506  37.6234150
  54.2640972   4.6837202  51.1932802  55.0439644   4.1290531  51.1738634
  53.5546017   4.1095924  50.9047794  70.6596851  47.8886032  49.1373682
  70.2784395  48.2996416  48.3615255  70.6465387  46.9514704  48.9428329
  21.9900584  13.3548450  42.0327902  21.9666910  14.1978538  41.5799952
  22.7055883  13.4410691  42.6627207  41.5810823  48.8129854   2.8842935
  40.9967089  48.1272793   3.2076347  40.9961414  49.5290518   2.6366562
  62.8747511  19.9027872  39.5077085  62.9020262  20.7858562  39.1393638
  62.5910044  20.0295687  40.4130507  36.8838453   8.3225965  55.7742882
  36.0643506   7.9355258  56.0822439  37.3797154   7.5839877  55.4210138
  52.2870731  17.2133029  48.7432384  52.3788691  16.2768614  48.5675049
  51.5402746  17.2731149  49.3390131  52.2267294  61.5599728  53.4705973
  52.5972223  61.0839987  52.7273512  51.5197182  62.0824957  53.0920029
  40.2623701  65.8150196  49.4910288  39.5138979  65.7937717  50.0873232
  39.9178910  65.4822016  48.6622953  66.8353081  48.1829214   6.5847141
  65.9960604  47.7271509   6.5201533  67.0360518  48.4436226   5.6858432
  48.0160236  30.8056068  55.2825785  48.5700035  31.4775991  54.8853827
  47.2303915  31.2764549  55.5606270  24.6650219  24.0995121  63.7072182
  24.7208738  24.7347641  62.9933786  24.5084858  24.6301389  64.4883442
  60.7183456  16.4859152  48.6528969  61.2912989  15.7388067  48.8254738
  59.8942089  16.2604260  49.0843916  22.9364181  12.8724062  46.3674259
  23.3746099  12.2896743  45.7472324  23.6259651  13.1357157  46.9768715
   6.3132018  70.0905704  12.9025567   7.0226789  70.6328154  12.5578201
   6.5411532  69.9541569  13.8221550  65.5657796   1.0477337  50.5587435
  65.9512953   0.1804050  50.6826401  64.6277837   0.8817085  50.4647589
  11.3785315  31.0674334  -0.3028756  11.0108197  31.4956164   0.4702208
  11.2617290  30.1320004  -0.1368834   7.8739816  47.2199154  14.3632042
   7.4947870  48.0978870  14.4033074   7.5455314  46.8544531  13.5417473
  68.6906624  28.7997198   9.6908772  68.3460045  28.2745075  10.4130924
  69.3832827  29.3277550  10.0879717  52.3096800  12.2705603  29.2475939
  51.9255447  11.4380765  29.5226264  51.5835953  12.8931916  29.2845178
  37.2357484  65.6863123  64.6200647  36.6032180  65.8313137  63.9164224
  37.9700359  65.2435833  64.1945727  43.1472206  22.4325514  44.9105549
  42.3047733  22.6401806  45.3147984  43.1725979  21.4759636  44.8876381
  43.8848162  24.8649406  48.1249857  43.4939957  25.4289031  47.4575710
  43.5141611  25.1780343  48.9500999  62.2281313  25.2513647  61.2755728
  63.1323195  24.9759865  61.4267063  62.3060036  26.0836220  60.8091879
  64.6067095  21.7522240  61.7337990  64.0692616  21.1921263  62.2938633
  64.5392179  22.6214361  62.1289539   3.9306548  72.0811844  24.1194034
   3.8912648  71.6109371  24.9521995   4.3887261  71.4836311  23.5283637
   4.6912956  54.8265362  52.2304010   5.2184236  55.1636982  51.5060472
   4.2391643  54.0665102  51.8641138   7.8923154  43.3159304  15.0148416
   8.4114283  44.0407896  15.3631735   6.9844222  43.5710955  15.1787114
  65.5903006  23.2542968  18.0400980  65.7957602  24.0897918  18.4595835
  64.7176266  23.0317044  18.3643305  46.3370657   6.1549795  60.1085711
  45.9203243   5.3310198  60.3608608  47.2097921   5.9001440  59.8091745
   7.4824417  46.1104774   3.4479180   7.2352034  46.6863155   2.7243757
   8.3393502  46.4321804   3.7279999   5.8206880  13.5481918  44.8611355
   5.0478876  14.1072524  44.7807455   5.4773510  12.6561522  44.8099756
  38.0396914  74.1913414  62.7159977  37.7013588  73.9401054  63.5754395
  38.9821315  74.2921305  62.8497076  48.9313507  69.6017361   7.8062969
  49.8272657  69.5344067   8.1364965  48.8806248  68.9415932   7.1150136
  18.6886966  26.6317320  28.1527162  19.5972300  26.3307548  28.1672287
  18.2250476  25.9691811  27.6405764  51.2515306   0.5539263  52.5725508
  51.6239595   0.0896911  51.8228722  51.8861246   1.2438082  52.7664137
  58.8863087  15.1388180  62.5319481  59.4164848  14.5139372  62.0373106
  58.2654715  15.4859805  61.8914270  15.8217382  19.3292618  24.0293360
  14.9160767  19.2250741  23.7375212  16.3243794  19.4259334  23.2204866
  16.4131749  65.3256416  34.0478992  15.6693876  65.2114010  34.6394753
  16.8616498  64.4801044  34.0609407  28.2061557   4.5101375  -0.0250749
  27.8602294   5.1342887   0.6128855  27.6852588   3.7181730   0.1079293
  78.5119152  38.1809855  19.8441935  79.3405104  38.2972288  19.3792820
  78.0994081  37.4315596  19.4147372   6.0773557  66.3795710   1.4440306
   5.1418501  66.2026882   1.5428829   6.1618638  67.3191929   1.6059105
  68.2206678  55.4594612   3.3220732  68.9882660  55.1471329   3.8011098
  68.5804319  55.8790064   2.5405461  73.9524937   3.8712314   5.2603865
  73.0008125   3.9710936   5.2365518  74.1529703   3.7059075   6.1816394
  45.4832506  33.3337927  45.6535339  45.5533028  34.2794919  45.5232334
  44.6571684  33.0946517  45.2332592  41.7046642  72.0244455  50.6605434
  40.7761621  72.1702433  50.8418083  41.8981457  71.1794567  51.0664845
   5.7964855  45.2099466  37.4633431   6.0701108  44.3007898  37.3416948
   6.4800644  45.7251644  37.0349741   2.7743113   1.5986384  20.7768297
   2.7109960   0.6747519  21.0190225   2.5935236   1.6127962  19.8369646
  38.2254124  49.0023422  63.5335636  38.2103848  49.4841576  62.7066088
  39.1539598  48.9396572  63.7574053  22.3091054   1.2546796  34.1493869
  23.1040788   1.3338922  33.6221552  22.3133636   0.3473619  34.4543266
  31.0542846  60.4858255  50.2822208  30.1448536  60.1918793  50.2296734
  31.2645125  60.4485369  51.2153053  65.3804684  14.6497083  36.8881726
  64.6739531  14.2303002  37.3792601  64.9321222  15.1840472  36.2326550
  56.5108395  11.2177050  34.7306514  56.5902328  11.9742930  35.3116012
  55.6701803  11.3413227  34.2899179  71.7585611  71.7357922  24.8528600
  72.1870470  72.5508976  25.1140833  72.4558496  71.2161684  24.4528508
  12.0932173   0.3468641  52.9078960  11.6344428   0.2355369  53.7405825
  11.4650464   0.8023103  52.3473644  34.0252328   6.6234130  51.3680363
  34.9024391   6.6429120  51.7506075  34.1673183   6.3704240  50.4558754
  36.8600368   1.7171711  58.1415272  37.6462078   1.2470005  57.8638458
  37.1644878   2.6061523  58.3238840  20.5223560  10.4164898  51.7614269
  20.8950686  11.2766492  51.5679216  20.6292224   9.9209911  50.9494591
  47.5980043  16.1454999  29.9007130  47.2993326  17.0503104  29.8093581
  48.2200956  16.0250306  29.1832733  31.2831116   3.1916690  59.5264530
  31.0798812   2.7911401  60.3717375  32.2363377   3.1370667  59.4585419
  71.1626101  47.6714563  53.4581089  70.9831333  48.4428072  52.9204845
  71.6523218  48.0104542  54.2074347  76.3093138  71.1471891  32.5488114
  76.6584349  70.7590008  33.3510923  76.8404913  70.7681751  31.8485093
  41.8384361  28.9950395  48.5885382  42.5830984  29.4324303  49.0013361
  41.4185953  28.5131621  49.3011093  58.6511183  34.4165921  25.2186871
  57.8763294  34.9105024  25.4869843  58.3787537  33.5001183  25.2647972
  64.2124033  46.5929222  47.0957994  64.9941015  46.0444117  47.0301485
  63.6393642  46.2779045  46.3967848   7.7102309  47.7345753   6.4185768
   7.5405294  48.3276224   7.1505147   7.2952294  48.1572437   5.6666732
  49.2852974  29.6672559  47.9046249  48.7896252  29.9642253  47.1415043
  49.9079418  29.0309358  47.5530005  69.9596024  61.9362259  47.8661489
  70.5764294  62.5772476  48.2194853  70.4059219  61.0951328  47.9640627
  54.0015936   7.2643220  39.5906973  53.4410572   7.7205426  38.9630890
  54.8827791   7.5885808  39.4046855  59.7417212  43.2084036   0.0583867
  58.8941383  43.4724951   0.4162956  60.2993488  43.0882215   0.8270480
  78.0577517  13.5885489  43.5212612  77.6131344  13.3216012  42.7167177
  78.9860487  13.4373856  43.3433676  57.3969936   7.8896612  60.4142952
  58.2172966   8.3502138  60.5910110  57.3555565   7.8319490  59.4597340
  19.1076243  16.4596128  21.4711237  19.4109309  16.4302242  20.5637264
  18.2185328  16.1065519  21.4380288  42.2010708  34.4507837   3.6582053
  41.9721079  34.8613620   2.8243986  42.7773237  35.0837469   4.0866017
  59.9183416  67.9699564  35.3094721  60.6349182  68.2640839  34.7471213
  59.4143534  68.7634563  35.4899764  75.0899887  62.3477697   6.2398404
  74.5499325  61.7072678   6.7027974  74.4601154  62.9424763   5.8326375
  78.4329510   2.7533421  40.9702873  79.1173792   2.9851353  40.3425455
  78.8689852   2.7830759  41.8218851  30.7164157  66.5702520   0.0185033
  30.5196724  67.3720513  -0.4658965  30.0874654  66.5659056   0.7400532
  48.8543510  11.6699398  54.7870636  49.3133497  11.7871046  55.6188250
  49.5470190  11.6878462  54.1266680  61.6952991   1.0756612  63.2746172
  62.3027039   0.4246236  63.6259651  61.2968063   0.6472041  62.5170851
  61.6118097  32.3625469  36.0490394  61.8489170  31.5939760  36.5679908
  60.6735229  32.4744868  36.2017488  72.8763628  25.3700566  53.7913179
  73.2464218  26.1157298  53.3188152  71.9775581  25.3042507  53.4687471
  56.4078379   5.9806824  29.8430634  56.4659786   6.6520172  30.5228853
  56.1481142   6.4590162  29.0556788   1.0397649  58.4189844  50.6012154
   0.5577163  58.8521814  49.8967981   1.9137976  58.2735062  50.2390909
  49.5757866   8.8551748  63.5970259  49.2837763   7.9440260  63.5692883
  49.6105623   9.0672487  64.5297909  69.5141268  19.8747694  52.2221851
  70.4681492  19.9438322  52.1860933  69.3456984  19.2509115  52.9283476
  20.8598876  24.1194916  49.3093061  20.9193587  23.9111733  48.3769464
  21.1716795  23.3298874  49.7515106  21.7309260  42.9765368   7.9321420
  21.8265986  42.3129320   8.6153024  21.1221385  43.6155891   8.3025712
  71.7073488   0.7840767  15.2100301  71.1440802   1.5571740  15.2458203
  71.1038971   0.0543348  15.0701940  15.0735331  25.9434533  53.0482626
  14.6247733  26.4913630  53.6921883  15.8048272  26.4811277  52.7443743
  18.4863329  72.2773218  41.1522341  17.6670408  72.2756481  40.6572723
  18.2626379  72.6943111  41.9842863  76.9059944  31.7824292  64.4954824
  77.8629971  31.7962980  64.4820118  76.6765833  30.8773613  64.2846489
  27.7709198  51.7150307   2.2154608  27.4916220  51.4997768   1.3255784
  26.9865441  52.0705938   2.6332667  54.2017365  56.6705418  21.0066056
  54.6431065  56.8122196  21.8440723  54.6977806  57.1996260  20.3819108
  72.8095198  65.0411987  31.1805677  73.6621618  65.4751110  31.1496425
  72.9984140  64.1657448  31.5183973  42.4659777  58.3195925   9.9596810
  43.2657146  57.7986670   9.8869246  42.6690817  58.9788151  10.6233096
   9.8278391  34.6728373   9.7578114   9.0157896  34.5300150   9.2715913
  10.3924692  33.9440250   9.5004046  59.7268534  41.8459511  17.1966290
  60.4396486  41.3601923  17.6115942  59.6528196  42.6493216  17.7117407
  43.3709288  30.6097770  46.2859917  43.2717609  31.4846563  45.9105110
  43.0129433  30.6867194  47.1703911  37.9132009  73.0855370  15.2180243
  37.9833269  72.7078485  14.3412888  38.2510877  72.4046898  15.7998455
   0.4929324  37.8654814  31.0340452   0.4411765  38.2823563  30.1739478
   0.5394717  36.9285560  30.8436847  12.0469046  57.1888876  10.8414459
  12.4905682  56.3916111  10.5520463  11.1365342  56.9229126  10.9707344
   7.3183566  41.7216778  18.2862449   6.9128972  42.5834751  18.1906474
   6.7548937  41.2593842  18.9067495  64.7539425  46.1121655   1.6356786
  65.5074167  46.2884760   1.0722721  64.8768520  45.2077103   1.9239287
   5.2541298  37.2602534   8.9805657   5.9094942  37.6420426   8.3966428
   4.5484900  36.9797349   8.3978015  19.2922950  33.7648296   2.2220983
  18.4463334  33.3503580   2.0524082  19.8236358  33.5470033   1.4562905
  19.5000732  44.7836161   2.0442900  20.3973341  44.4632053   1.9521292
  19.5132720  45.6519127   1.6416535  60.6558895  26.4039898  46.2191629
  61.0261106  27.0786810  45.6499863  61.3044691  25.7000852  46.2094355
  63.1356239  46.9139576  23.5105109  62.2192478  46.7134571  23.3200121
  63.0997086  47.5131893  24.2560697  60.4804897  37.6442242  50.8466673
  60.4479170  37.2430611  49.9781990  60.9849358  37.0271635  51.3767624
   5.0282669  19.7036636  35.3790617   5.0530398  18.9302826  34.8155904
   4.8427659  19.3580174  36.2521887  57.6598358  25.5021906  40.1188231
  57.9396725  26.0095358  39.3568993  57.4069643  26.1610126  40.7655382
  73.3883524  41.2068033  63.2918167  74.1722155  40.7087898  63.0599356
  73.6805058  42.1181297  63.3108759  58.6606216  21.8795085  20.8531499
  57.8714275  21.8078351  20.3162503  58.9878988  22.7624393  20.6812239
  45.0856781   4.9994063  50.0813198  45.5746031   4.8926467  50.8972740
  45.3753948   4.2714030  49.5314932  12.2923136  39.6677542  26.2248921
  11.8178213  40.0180101  26.9788218  11.6121030  39.2861247  25.6700015
   8.6071491   3.8742024  46.9852638   8.4682786   2.9271770  46.9757986
   9.1292620   4.0318608  47.7718878  17.7225423  72.7455044   7.0265168
  17.1495223  71.9976997   7.1958321  18.6082101  72.3941040   7.1178538
  27.6262450  45.8780241   4.9827972  28.4353161  45.9679127   4.4792509
  27.5840282  46.6742563   5.5123919  50.8234215  36.9571233  27.0612097
  50.6522036  37.7697277  27.5372243  50.0637007  36.8502116  26.4888287
   3.8155657  39.4539237  54.0571260   4.0340436  38.5474849  53.8406324
   3.0676219  39.3848634  54.6504545  33.8202429  61.0160780  50.1267672
  32.9969668  60.5277824  50.1226234  33.9972281  61.1950254  49.2032480
  54.3500376  30.8370686  51.6781425  53.5990047  30.3519177  52.0199108
  54.1519976  31.7531562  51.8725491  74.5309687  36.4020920  29.0524364
  74.7410631  35.7309818  29.7018218  73.6371469  36.6701770  29.2656183
  43.6902475   2.3230632  14.6222627  44.3724775   2.9491681  14.3797982
  42.8824282   2.8365365  14.6207392  37.6740503  70.1853991  42.6512575
  36.9033241  69.9497795  42.1348286  37.9107928  71.0600662  42.3428011
  69.8548269  26.6782999  41.9089937  69.5510626  27.5168657  41.5614796
  69.9266195  26.8219638  42.8526258   6.9351220  42.8019667  39.2290711
   7.6751477  43.3008862  38.8831306   6.8391216  43.1097651  40.1303339
  71.9406223  21.9740152  34.6364427  72.0882463  22.3031425  35.5230737
  71.6517067  22.7406240  34.1413975  76.7535448  46.7110443  56.9388008
  75.9058142  47.1545029  56.9693232  76.6511250  45.9581900  57.5209951
  59.6384048  22.2478199  47.9441977  59.1863966  22.4621511  47.1281242
  59.4634199  22.9937506  48.5179567  55.0159883  18.7444115   6.7030233
  54.7133827  19.0708923   5.8556330  55.2578259  19.5318305   7.1905863
  69.1155720  58.6928415  63.3578253  68.8295078  57.9079580  62.8905344
  69.7198296  59.1243458  62.7537537  73.0188942  28.8006210  10.2882779
  73.3818150  29.6373487   9.9977517  72.8505850  28.3185124   9.4786620
  62.5705576  21.8276930  45.6545210  63.1868839  21.1375594  45.8996487
  61.7936087  21.3582015  45.3509426  37.5250530  72.4834776  48.7381172
  37.6863980  72.5081301  47.7949381  36.9376683  73.2217169  48.9000082
   3.1750301  29.4060111  32.3474550   2.7993125  30.2706051  32.1814919
   3.0861449  29.2836523  33.2926321  65.4517984  31.3477278  58.2581186
  64.5768404  31.1339974  58.5821581  65.4586601  32.3030925  58.1992769
  59.9327850  23.9887905  60.5705738  60.7683849  24.2528391  60.9556532
  59.8388958  24.5452261  59.7974014  66.8781042  23.9253306  22.1085358
  66.9453001  23.0257773  21.7883444  67.1338081  23.8715196  23.0293798
  71.8546343  30.3779650  38.8290048  72.2768450  30.1595092  37.9981923
  71.9890928  29.6045113  39.3766546  22.2572017  30.4447889  21.4245558
  22.5493598  31.3557768  21.4558172  22.1702456  30.2530575  20.4907942
   0.7000993  33.9311886  45.1797056   0.3875999  33.1877637  44.6640587
   1.6513219  33.9126873  45.0745153  69.1936016  25.7393503  21.5290761
  69.4115543  24.9729204  22.0594668  68.2698584  25.6222558  21.3072133
  22.8101325  33.5977316  10.6104636  22.0096684  33.4082413  10.1209939
  22.5035048  33.9848399  11.4304376  50.1121330  45.5130577  13.6630774
  50.9035969  45.3808069  14.1849315  49.8429728  44.6305180  13.4083152
  63.2750416  62.1154928  54.7575808  63.8621521  62.3851395  54.0513039
  63.3845472  62.7879286  55.4299402  46.7134237  28.3466482  44.5053864
  47.1686506  29.0525794  44.9643660  46.7541885  28.5958934  43.5821056
   9.2587495  33.9785910  27.5656915   9.4880104  34.6915102  28.1618619
   9.8700029  33.2758355  27.7864552  79.1075754  54.5440197  12.2766161
  78.9529037  53.8478661  12.9151118  79.4804430  55.2609921  12.7895975
  72.7873516  21.8272090  57.7811861  73.2652617  21.5539050  56.9981575
  73.1105995  22.7095819  57.9632854  49.0613699  19.4998586  52.7871656
  48.3564472  18.8829482  52.5903511  49.3016672  19.3077266  53.6935759
  68.7585974  13.1833267   9.7945088  67.8993845  13.5527611   9.5907813
  68.9654064  13.5237324  10.6649029   2.9890469  24.3624973  48.8339806
   3.6986077  25.0038695  48.7966013   3.4281775  23.5150266  48.7619352
  16.0831356  38.6239886  13.1595230  16.2060964  38.7662220  12.2209692
  16.9305658  38.3011365  13.4658897  50.3464890  40.5411911   6.6053516
  49.4548702  40.6252909   6.2674570  50.4980183  39.5970702   6.6490221
  32.1611929  10.2846575   7.1705598  32.3818159   9.3564856   7.0927459
  31.3403821  10.2952826   7.6628870  34.3498349  32.9304218   2.7476665
  33.7579966  32.2134805   2.9755977  33.9139509  33.7154484   3.0792823
  54.1056299  69.9595928  61.7386723  54.3062401  69.4289732  60.9676838
  53.7502384  69.3364525  62.3724174  53.1849003  73.7904501  40.9991312
  53.9642811  74.1750431  41.4002371  52.7102232  73.3942127  41.7298222
  58.5887337  34.7217655  53.0552387  58.2955170  35.5659580  53.3981562
  59.2787886  34.4449806  53.6580992  35.1734809   0.3286632  14.4445908
  36.1210034   0.4425462  14.5185089  34.8052827   1.0313877  14.9801683
  63.5986423   3.8652140   1.2905313  63.5011578   4.7827417   1.0358329
  62.7885103   3.6586538   1.7566293   5.9243917  27.6918316  21.4178395
   6.3769680  28.4334660  21.8195701   6.5246469  26.9549179  21.5313458
  37.8375721   5.5732018   6.7603719  37.1793604   4.8860839   6.6561735
  37.7045798   6.1485028   6.0069972  60.0754929  42.5651407  57.4427557
  60.1527405  42.5217009  58.3958483  59.1370821  42.6653433  57.2828388
   7.2396219  18.9741302   8.2818913   7.3307794  18.8881230   7.3329318
   7.4732661  18.1112766   8.6241305   8.5649043  30.6794691  47.1530104
   8.8450038  31.5921831  47.2217751   8.4503204  30.5342078  46.2138605
   3.5725865  18.6862922  24.0344334   3.3670783  19.4996440  23.5735011
   2.7479464  18.2003474  24.0419960  19.2350268  19.8062563  51.3961601
  19.3258023  19.6688902  50.4532242  18.2944405  19.9204803  51.5321016
  20.1061964  14.3126070  36.8983555  19.2238557  14.3361425  36.5280128
  20.6857371  14.4108188  36.1428976  23.6443853   8.9150292  13.6576664
  23.2753181   9.3078220  12.8666329  24.5050263   9.3239182  13.7489843
  64.7853994  25.1223850  28.5953975  64.8372746  24.1680908  28.6488771
  64.8688459  25.4179692  29.5019841  76.4812660   4.2589441  62.0189285
  77.0299435   4.8573178  62.5260115  76.5747070   4.5569059  61.1140966
  52.6361513  32.8799391  62.1159410  52.8249645  33.2596993  62.9740572
  52.9641151  33.5261869  61.4906120  10.7721329  43.0888319  33.1695676
  10.9352112  43.8109350  32.5627661  10.1493669  42.5257158  32.7098989
  74.2134762  69.3594360  63.2748365  73.4843016  68.9401674  63.7317324
  74.7003126  69.8109150  63.9643240  60.4744816  18.5891151  35.6015849
  61.3695049  18.9162767  35.5114269  60.5080128  17.6996160  35.2495909
  13.4229910   1.9759050  46.6255140  13.5467017   2.4545483  45.8058596
  13.4493697   1.0536399  46.3706350  78.2068586  23.8051796  36.5429187
  78.4023714  22.9076815  36.2736511  78.2506037  24.3131948  35.7328343
  11.7151189  50.9477282  13.8056719  11.3849068  51.2719440  14.6435726
  12.3419952  50.2645636  14.0434492  69.8064327  16.0313678  39.4830394
  69.9836206  16.2722111  38.5737371  68.8623238  16.1530757  39.5834303
  35.8838058  58.3792448  11.2969589  35.2863097  58.9351559  10.7967627
  36.3691235  57.8904247  10.6323135  72.6133680  23.8475323  40.7763958
  73.1540298  23.4037590  41.4298344  71.7135525  23.6832976  41.0585213
  20.8063841  38.9217067  53.2870770  20.4611254  39.8000956  53.1275129
  21.7156625  39.0657210  53.5491943  56.5885592   7.6651847   0.7858998
  56.0991383   7.4348098  -0.0038006  56.4820862   8.6130941   0.8656718
   5.2695674  40.1231241  59.7480869   5.5335104  39.7529936  58.9057302
   4.8003638  40.9258080  59.5205355  71.7387581  51.0224009  45.8865356
  71.4243412  51.4894485  45.1124287  72.3169708  51.6468859  46.3246202
  65.3636169  63.8161135   8.6840534  64.7872066  64.1703892   8.0069494
  66.2446165  64.0603018   8.4004253   0.2893372  20.3829980  51.8134356
  -0.2918128  19.8588204  52.3645544   1.0297461  20.5964994  52.3812723
  16.0730398  54.7922421  61.8775177  15.3460038  54.7396660  62.4979115
  15.6532657  54.8085976  61.0174274  71.2941980   6.4023727   5.1158959
  71.9051695   6.4876139   5.8478004  70.6567383   7.1031100   5.2531743
   2.8414315   3.6618015  59.8145533   2.3723702   4.0232745  60.5665827
   3.2850242   2.8866613  60.1589584  44.2617655  37.9857063  50.0347281
  43.7615585  37.2453141  49.6914387  43.9710283  38.7336898  49.5129776
  16.8388927  34.8824453   7.5336975  16.6618657  34.2749524   6.8154728
  16.0110795  35.3443956   7.6662123  62.4344301  47.7541018  59.6014166
  63.2706594  47.9012966  60.0433350  62.1846056  46.8646049  59.8516464
   8.6675340  40.7180691  53.5349560   8.4338981  41.6293526  53.7116098
   8.7332225  40.6681871  52.5813198  58.7918949  32.2302437  36.5203381
  58.0077934  31.6848207  36.4576435  58.4641790  33.0921936  36.7770076
  37.6053524  17.3164177  63.0499935  37.9694915  18.1115937  63.4390020
  38.3596516  16.7381227  62.9366732  49.8601723  52.2804213  60.2395058
  50.1304960  52.6420641  59.3954849  49.1869593  52.8838110  60.5540562
  26.3719296  42.5698423  40.2312851  25.5954099  42.9519272  39.8223138
  26.5495825  41.7815924  39.7181249  24.2715001  51.1183977  48.3818817
  23.8258529  51.1358500  49.2288303  23.6795807  50.6299496  47.8097963
  39.0103698  59.7721052  15.7251596  39.2282963  59.1663599  15.0167739
  38.3542991  60.3573084  15.3465545  45.8597851  39.5295358  56.1270237
  46.2584209  39.6064711  55.2601862  45.4688787  40.3883266  56.2879562
  60.0726938  43.7225008  40.4733753  59.8410225  43.7713385  41.4008331
  59.3797398  44.2095280  40.0274467  71.7519283  65.3777742  37.3822069
  71.2439775  64.5927763  37.1772742  71.1458302  65.9343719  37.8711557
  63.1705523  42.0966148  58.1579590  63.4804630  43.0020905  58.1407976
  62.2216892  42.1701193  58.2603931  47.1718645  26.3603568  53.7517214
  47.2796774  27.0100737  54.4463253  47.9071426  25.7590222  53.8700151
  64.3880749  29.0774560  22.2613192  65.2338457  28.6745739  22.0648909
  64.2257929  28.8584638  23.1788921  57.4903774  35.7402468  55.8648825
  57.1697950  35.4609442  56.7224646  58.0173874  35.0038409  55.5547190
  60.6148672  21.2358427  27.4217367  60.4038286  20.3342628  27.6643276
  60.3632212  21.7546201  28.1857896  59.0518665  36.8008995  32.5282335
  59.0404940  37.6011753  32.0031977  59.8017693  36.3072729  32.1962523
  46.9202900  57.9620123  50.6887484  46.9012451  58.4008026  49.8382568
  46.7932272  58.6662292  51.3244867  69.8319578  24.0218425  18.7310851
  70.5118799  23.3489871  18.7657893  70.0340605  24.6045518  19.4630957
  40.8323050   9.7368366  21.6354012  39.9315381   9.8468393  21.9399452
  41.3289309   9.5285559  22.4267387  63.2274580  63.9607811  56.8553972
  62.3283291  64.2875385  56.8874788  63.7513161  64.6627283  57.2415066
  62.7912998  30.4363203  59.3417072  62.8470135  31.3865852  59.2410803
  61.9775009  30.2939677  59.8251343  63.5562515  23.9089274   1.6770059
  62.9863501  24.3521786   2.3054743  62.9725361  23.3210444   1.1975238
  53.5146856  48.4409571  52.0926380  53.6162424  48.2918644  51.1525869
  54.4049263  48.3904409  52.4407053  50.5492306  15.2492929   7.7852905
  51.1452770  15.9033906   7.4204415  50.9880733  14.9411714   8.5782009
  63.6615515  37.4724269  20.0638413  64.3919468  38.0219436  19.7796130
  64.0529156  36.6114855  20.2116442  52.3198462  39.0477777  57.7692747
  51.5612411  39.1413307  58.3454657  52.1828699  38.2099676  57.3270702
  24.6440315  59.8916292   9.7803003  25.4864836  60.1018286   9.3774092
  24.0650892  59.7047949   9.0412813  57.8088045  19.7355413  47.6294088
  58.5214996  20.3177881  47.8926373  57.9596567  19.5785415  46.6973019
   7.5949639  26.5870690  60.6988955   8.0439645  25.8856535  61.1707449
   7.6192611  27.3328209  61.2984705  53.3781385  20.0221801  51.1252069
  53.9847565  20.1621270  51.8523026  53.1601810  19.0912485  51.1709213
   0.9204780  39.4119740  45.1722145   1.6165969  38.7693977  45.3091192
   0.2627163  39.1971016  45.8335829  59.1506577  12.1086919  35.6815386
  58.5312796  11.9233108  36.3873959  59.5359325  11.2580228  35.4713988
  75.6607962  69.1261339  56.0339165  75.9832907  68.6535215  56.8012953
  74.9059772  68.6168766  55.7387304   6.9541174  40.8204842  51.0894823
   6.6953856  39.8992872  51.0632372   6.3880354  41.2093496  51.7562437
  34.9076438  20.9094191  61.4717007  35.0138211  20.2974176  60.7434082
  35.6217074  20.6939697  62.0716429  59.8084259  51.1401701  50.4931116
  59.1540289  50.4533958  50.3653002  60.6480694  50.6957150  50.3760672
  49.2205572  32.3909712  61.8729687  50.1664257  32.4622536  62.0013380
  49.0569210  32.8398037  61.0435104  49.1353750  29.4092536  23.2768631
  49.4198895  30.1564765  22.7506089  49.9389791  29.0799093  23.6793351
  49.8668051  36.7237663  49.0787506  49.3902445  37.5538683  49.0858459
  49.9867535  36.5243769  48.1502628  58.9143944  58.4837246  53.7814379
  58.2930088  57.8314686  54.1049767  59.5205450  58.6190414  54.5097923
  61.7235708  19.1281843  29.4178748  61.3877630  19.6538377  30.1439285
  60.9656048  18.9935434  28.8490224  51.6527176  22.2775292  44.8235273
  51.9443417  22.6167870  45.6697512  52.3783636  21.7311883  44.5215654
  31.1496210  17.9647589  58.1792736  31.1984444  17.5309157  57.3274374
  31.1738706  18.8993347  57.9738188  40.2766752  50.9045410  59.6885729
  41.0135365  50.6242418  60.2314425  40.6245565  51.6284513  59.1678429
  27.7034283  26.5221453  61.7040968  26.8179393  26.8389940  61.5259123
  27.8895974  25.9157443  60.9872627  64.3837214  19.6474648  45.8734655
  64.2590666  19.5391726  46.8163157  65.3178358  19.8317492  45.7749748
  75.5918121  50.0158405  28.7374806  75.6910181  49.4951010  29.5344877
  74.6740627  49.9027300  28.4901595  74.2964172   1.5327354  44.2008448
  73.3653975   1.3745701  44.3571186  74.5735884   0.8031476  43.6466694
  46.9205475  25.1467466  40.0516653  47.0927000  25.8614922  40.6646395
  47.7536869  24.6797609  39.9881816  68.6531258  25.4324698  61.1025858
  68.2476187  24.7538567  60.5628777  68.3998823  26.2549424  60.6834936
  69.7188711   3.5974926  50.1160812  70.6159115   3.7033498  49.7993040
  69.1798210   4.0422153  49.4619560  25.0397754  57.9670525  62.9428577
  25.6774473  58.0367994  62.2324085  25.0933576  58.8083649  63.3962440
  73.8720083  62.1981096  57.0731640  74.3942881  62.8184414  56.5645933
  74.4688749  61.4709806  57.2499990  10.3738928  36.2276721  42.6054049
   9.5789987  36.4886117  42.1403408  10.1296091  36.2537670  43.5305405
  21.0969877  72.7196598  40.9767675  20.1859617  72.6718712  41.2665606
  21.0910201  73.3695698  40.2740526   5.7544422  37.5922227  29.0307498
   5.0277644  36.9699478  28.9999962   5.4165846  38.3765554  28.5984230
  60.1162577  52.3867607   8.3912730  59.3148327  52.8523397   8.6304045
  60.5562496  52.2232533   9.2254829  53.0028152  29.3207383  23.6629224
  53.9523554  29.4054937  23.5767365  52.8479862  28.3764911  23.6885738
  28.5412359  14.5867610  10.7704830  28.0794549  15.1648867  10.1632261
  29.1912627  14.1398787  10.2282691  44.0976095   3.0379900  10.5054045
  43.6858940   2.1847932  10.6424379  45.0372124   2.8562307  10.5237377
  73.4056950  30.1700377  62.7643490  74.0971565  30.5932283  62.2554016
  72.6179171  30.6759906  62.5652313  61.3942909   4.8562983  45.3518438
  61.0375452   4.1240779  45.8546543  60.8643532   4.8804736  44.5550966
  36.0699201  36.6762781  58.5418987  35.6495166  36.9719911  57.7344036
  36.9447923  37.0635033  58.5121393  67.8498507  72.0567894  44.8677635
  68.1300592  71.8243742  43.9824963  66.9861650  71.6543579  44.9590158
  75.1760674  35.5299449  47.1007490  75.7741737  35.4651403  47.8452587
  74.9157381  34.6260834  46.9232750  66.0135698  33.3086109  21.8500757
  66.7762852  32.7773380  22.0786548  65.6848526  32.9195428  21.0396409
  76.5183592  44.6595001  61.9268990  77.0629692  43.9538813  61.5779972
  77.0885134  45.1200199  62.5425959  38.6911082  62.8263044  61.6460085
  39.1230774  61.9722939  61.6635084  37.7695918  62.6252937  61.4828062
  25.8414165  52.0675366  64.1596928  26.5304272  51.5927964  63.6948118
  26.1831037  52.9570036  64.2509509  63.1352091  33.0119705  54.7000504
  64.0756989  33.1742167  54.6266603  62.9297924  32.4512887  53.9519405
  63.6828947  42.6240253  45.5971766  63.8751411  41.8410873  46.1131954
  62.7344799  42.7314901  45.6692791  34.6550798  29.5071077  61.8332577
  35.3349662  29.4967628  62.5069618  34.9056244  30.2244568  61.2511301
  71.3775253  66.9341707   2.0587608  72.0523119  67.2894382   2.6372772
  70.5611181  67.3175287   2.3793165  29.4058037  51.8487406  18.3950198
  29.7973800  52.2715521  17.6307344  28.8540411  51.1571312  18.0296910
  12.8986371  51.8643522  54.9829245  12.3596573  51.8960047  55.7733250
  13.1928051  50.9550238  54.9298811  71.0121822  50.8159161  56.9495630
  71.1248302  51.7637777  56.8781376  70.0704384  50.6782818  56.8475676
  31.8629980  35.4113340  60.3576803  32.2486401  34.5356321  60.3833961
  32.3421407  35.8637547  59.6634388  69.2911386  46.6325855  17.4543726
  69.2593622  46.7951822  18.3971262  69.1053581  47.4838734  17.0581090
  71.9416857  13.7849951  61.3762856  71.5283060  14.2506051  60.6492662
  71.9857836  14.4316185  62.0806789   6.0852742  13.8718200  55.6297302
   5.6823218  14.2142785  54.8318672   5.6801271  13.0134332  55.7532549
  49.2410660  55.8773565  55.1872015  49.9405098  56.4370298  54.8499012
  48.4370518  56.2624788  54.8386812  45.8993912  52.9115343  49.9178934
  46.0140085  52.3305750  50.6699467  46.1024189  53.7837553  50.2558947
  75.4140425  30.9880519  19.0144324  75.8273220  31.8203807  19.2439044
  74.9208260  30.7417703  19.7969377  28.8271260  55.1863384  47.8162146
  28.0857968  55.2098179  47.2111416  29.4828749  54.6497822  47.3708725
   0.8954594  40.1836252   2.8652814   0.3405092  39.7405815   3.5071319
   1.0810539  41.0368299   3.2574955  48.5055828  39.0799046  40.6114340
  48.6649227  39.4042516  39.7250676  47.5932884  38.7903810  40.6001425
  22.8746128  64.9621916   1.4390764  22.1668124  64.5349932   0.9566280
  22.6955533  64.7587585   2.3571098  62.9437160  31.4485860  52.4757814
  62.6713419  30.7171774  53.0299377  63.6619759  31.0963392  51.9501829
  60.8637428  20.1286340  20.8343530  60.0928116  20.6522655  20.6159353
  61.6059589  20.6865716  20.6018496  49.2003489  13.6882126   5.7115418
  48.3886337  13.2810986   6.0142112  49.6432829  13.9646530   6.5138018
  72.0172405  58.1821632  56.1201954  72.7366829  58.5543060  55.6101561
  71.9094944  58.7839127  56.8567610  73.1850910  38.7349105  20.1071787
  74.0292025  39.0589595  19.7930062  72.5522470  39.0504622  19.4620681
  64.5429087  36.1284995  34.9619436  64.3432426  35.4729724  35.6302619
  64.6876860  36.9363475  35.4545403   0.5038169  35.0719833  30.4049540
  -0.2800070  34.9920940  29.8613834   1.1983806  34.6683335  29.8844934
  16.3614750  54.0292358  27.0953774  15.9512448  54.2956352  26.2725925
  15.8988845  53.2295084  27.3457265  51.5492296  27.3885727   7.2396380
  50.5922270  27.3705268   7.2467655  51.8000126  27.1454358   8.1308305
  25.7260251  48.8870764   5.0062209  25.5729365  49.5370054   5.6920683
  25.8784056  48.0697250   5.4805088  62.7243614  36.8222165  24.4061995
  61.9440699  36.2748098  24.3183184  62.7039194  37.1243954  25.3142190
   0.1324115  51.4133978  20.4270959   0.7378899  51.8282223  19.8126483
  -0.7090763  51.4132118  19.9708831  40.5994177  10.2072179  28.9453840
  40.9939861  11.0623264  28.7741113  39.7127986  10.4082215  29.2449498
   3.9834431  42.5919914  59.4640160   3.5585895  42.5474882  60.3206110
   3.4654140  43.2294416  58.9725590  27.7258110  46.0757256  23.0939794
  27.1295571  46.0275030  22.3467255  28.3102131  45.3258181  22.9828691
  49.0693760  33.7186742  15.4169464  49.8453569  34.0270209  15.8849287
  49.4164610  33.2837677  14.6380901  53.0660200  47.5523043  56.4006233
  53.6959028  47.0798779  55.8562994  52.7134991  48.2309103  55.8248997
   8.1196016  61.5840864   2.0866366   8.7175000  61.9029856   1.4105800
   7.7128536  62.3755264   2.4393532  54.7125101  34.9073529   3.4643379
  55.0019360  34.7053123   4.3540823  53.9046955  35.4069686   3.5828909
  52.4022865  28.1932378  39.0410495  51.6350126  28.6849260  38.7481904
  52.8871202  28.0049205  38.2374930  44.6321774   9.8468101  63.5597754
  44.7823286  10.7859039  63.6683607  44.9419880   9.6555018  62.6745367
  44.9759960  61.3076305  55.9565687  44.4274092  61.1896086  55.1810980
  44.3806362  61.6555929  56.6204214  75.0717735  39.3204188  62.2703505
  75.7724953  39.5647645  61.6657686  74.7724295  38.4667206  61.9575787
  55.1119423  25.2944493  36.1606121  55.6380081  24.7987437  36.7881179
  54.4986486  24.6527076  35.8024621  21.6904306  58.1475163   3.2610032
  21.6835737  57.5656366   2.5010020  21.7600560  59.0266848   2.8889173
  68.6290598  33.0228925  32.8781986  68.9972401  33.2809544  32.0331669
  67.7024984  33.2551312  32.8167200  54.2121363  26.3977289  48.1484652
  54.9000168  27.0574403  48.2369471  54.4971991  25.8511996  47.4161530
   9.3426204  33.1654477  60.7280731   9.9701798  33.8832474  60.6434298
   8.6247337  33.4045577  60.1418161  44.6924019  71.2018204  57.0209312
  44.7218132  70.8704853  57.9184771  45.1663065  72.0326996  57.0566988
  21.3313580  12.8932285  52.1131372  22.1668577  12.6730967  52.5251007
  21.1753154  13.8047433  52.3601675  40.4166222  14.3146241   8.4560895
  39.6733451  13.8685858   8.0501127  40.0302505  15.0715172   8.8966113
  78.2988596  65.2717304  10.7275319  78.7881184  65.4713917  11.5256488
  77.6108885  64.6702862  11.0124791   0.3542300  73.3231211  62.8951597
   1.1762782  73.7471247  63.1415081  -0.3259448  73.9210606  63.2050943
  21.7526364  42.4295759  36.3449812  20.9931636  42.0149040  35.9357381
  22.3943210  41.7243004  36.4289880  58.9170837  50.7668781   1.5219544
  59.0627003  49.8757219   1.2043466  58.4537506  50.6526995   2.3517235
  59.3442965  20.0851512  51.3941431  60.2830696  19.8987186  51.4078045
  59.0353012  19.6988904  50.5746603  54.8304510  16.3597071  32.4196410
  54.0517282  15.8239484  32.2686958  55.2581358  15.9535778  33.1735468
  56.0688353  39.2823792  59.2069006  55.4441309  38.7476301  59.6968174
  56.5112925  39.8061466  59.8748302   6.5082401  61.0699034  43.5589981
   5.8958697  61.6226053  44.0445423   7.3642039  61.4708662  43.7099457
  14.6670139  25.0350571  36.0150719  14.0604281  24.3676925  36.3358688
  15.4967105  24.8321319  36.4471102  60.9644461  46.2908888  43.1493855
  60.8053064  46.6816425  42.2901917  60.5140543  45.4469395  43.1158209
  66.0251999  62.6794577  13.7309551  66.4304352  61.8286180  13.8985395
  66.1486435  62.8228903  12.7926469  29.2974138  11.6553187  15.0589216
  28.5972810  11.6014254  14.4084299  29.9614358  11.0401726  14.7476315
  11.9302273  56.1311626  33.9774871  12.8361058  55.9456778  33.7300777
  11.6264820  56.7586374  33.3215523  79.0034485  29.0360212  43.8919592
  79.1247892  29.9253607  43.5594225  78.0658054  28.8698387  43.7947989
  41.5228081   5.0336331   6.7640066  41.7708063   5.5842018   6.0213083
  42.3516226   4.6812335   7.0882130  18.8508153  73.2791424  57.3224020
  17.9799306  73.5993958  57.0873928  19.0935290  72.6956987  56.6034317
  57.4654150   1.6077590  64.4674110  57.5723505   2.5267920  64.2221069
  58.3589697   1.2689331  64.5221138  55.4487514  34.5057702   6.0876948
  55.7081699  35.1120996   6.7814523  56.1133242  33.8172531   6.1104786
  78.4458208  10.0233519  40.7104826  78.8906908  10.1553512  39.8732853
  77.6775932   9.4954300  40.4928732   3.9784816  41.9200754  41.3261461
   3.5133284  41.5483809  42.0756149   3.8619205  42.8658009  41.4169312
  36.2708735   2.8892395  33.5901427  35.4261923   2.7160785  34.0057874
  36.3006353   3.8413024  33.4956837  78.1311631  74.8973260  59.0902376
  78.3786059  74.0210990  58.7948895  77.6908613  75.2888969  58.3358908
   2.8827882  52.3640347  48.9587116   2.9449740  52.3158836  49.9126768
   1.9433449  52.3320150  48.7780094  23.9354968  70.8278275  55.2788496
  23.6165595  71.6025400  55.7418108  24.8868704  70.8644676  55.3777409
  36.0476518  45.1617908  58.1598282  35.7324719  45.1781416  59.0635014
  35.4134893  45.6903648  57.6753902  44.2922735  10.7123446   4.7784650
  44.8782873  10.6105912   5.5284417  43.6812019  11.3997817   5.0435203
  78.7171650  29.1836095   1.5867463  78.4337044  29.9350691   1.0659865
  78.2678556  29.2900872   2.4252063  78.0463409  60.6842279  41.4396667
  78.4779501  60.9327888  40.6222582  78.7136745  60.1990747  41.9249773
  10.4236329  32.4617481  57.9182863  10.2287769  32.4477911  56.9812346
  11.2366831  32.9622865  57.9864264  39.3320775   5.1941460  42.3200417
  39.4383788   4.5674485  43.0357122  38.5307598   4.9168748  41.8759203
   5.1435935  27.7226496  62.6637983   4.8965096  28.1607080  63.4782219
   5.3020805  28.4366798  62.0463181  14.7271907  55.8729935  28.4386802
  15.1996469  56.2450266  29.1833997  15.3805149  55.3444147  27.9804134
  67.4550629  37.4644804  63.4540558  67.1820068  36.6204882  63.0944014
  66.6448545  37.8626394  63.7722778   0.5013402  55.5871010  51.7045021
   0.7648062  56.4148998  51.3025522   0.5255120  54.9540424  50.9869432
  44.9200153  16.6667008  15.7587945  44.4907188  15.8279622  15.5901074
  45.2434397  16.5939033  16.6567516  50.9839773   3.3760011  14.3457150
  50.2611113   3.9992779  14.2734849  51.5683126   3.7615269  14.9985194
  20.0020623  39.2550778  11.2930501  19.7897136  38.4439731  11.7548382
  19.7148490  39.9500823  11.8852568  37.0436502  49.1697979  56.6250753
  37.5365639  48.6499357  55.9902430  36.7513323  48.5349560  57.2791100
  14.9417663  51.3940382  28.2211828  15.4803777  50.8948660  28.8351512
  14.4260705  50.7314777  27.7615023  46.6287327  71.4191723   4.8533878
  46.3902187  72.1500444   4.2831507  47.2401381  71.7978621   5.4850626
   2.7709439  74.2498064  32.2815800   3.2414764  75.0803709  32.2108769
   2.6222596  73.9808416  31.3750577  41.4156008   4.2367247  10.2447164
  41.8288279   5.0810629  10.4251862  42.1445370   3.6538810  10.0321662
   0.6291400  10.4815960  38.1778646   0.6648722  11.4171433  37.9786038
   0.2486252  10.0842428  37.3945689  63.7147999  49.3297577  45.7157850
  64.6137714  49.4408846  46.0251856  63.6700201  48.4163952  45.4329538
  73.6787033  63.0936909  38.3482742  72.8640985  62.8456974  38.7854791
  73.4355497  63.8318968  37.7895665  53.3780622  47.0066214  59.1423798
  52.5704765  46.9520998  59.6533203  53.0844259  47.1808577  58.2481432
  17.7803409   6.4310545  61.7407894  17.3923063   6.1286950  62.5619125
  17.4433708   7.3200667  61.6297054   1.7452188  74.2137361   0.7872854
   2.3365088  74.9481805   0.9522041   1.2284656  74.1374969   1.5893993
   8.0610216  69.2224216  56.2027264   7.4670696  68.9136028  56.8868923
   7.4859822  69.6131706  55.5447960  46.0184860  25.6164622   6.3322496
  46.0195827  26.1777496   5.5568856  45.9128618  24.7302556   5.9862566
  26.1561084   8.8678926  29.0187049  26.3372946   8.6436307  29.9314523
  25.3326011   9.3547684  29.0506244  59.6532249  33.3752346   5.3652996
  59.6856213  33.7773752   4.4972759  59.9224424  34.0729761   5.9627181
  62.7620029  60.3453541  12.5340295  63.3605433  60.3716278  11.7875111
  62.3564863  59.4796515  12.4855316  51.4343262  58.4791183  14.4749439
  52.1398592  59.1161299  14.3623841  50.6940746  58.9954376  14.7938085
  57.4918652  43.5262346  56.6643143  56.5941620  43.2029724  56.7409229
  57.4214745  44.4679546  56.8206263  56.8540812   9.7305936  26.8445611
  57.3469353   9.9877959  26.0653472  55.9399748   9.8996973  26.6164279
  30.1788354  65.8006668   6.0011846  30.5915928  64.9600649   6.1993015
  30.3234601  66.3293600   6.7859113  43.7559414  44.3317461  57.4296856
  43.6069202  44.6067095  58.3343506  42.9113531  44.4604540  56.9980192
  45.6205511  44.3216848   6.1214238  45.0347614  43.8558149   5.5247307
  45.6613636  45.2114534   5.7708842   5.1553941  64.7182989  47.9373598
   5.1918590  64.4977951  48.8681030   5.9591460  65.2126598  47.7766705
  73.7959099  49.3222141  24.6199441  73.8314676  50.2576733  24.8196650
  72.8873444  49.0749407  24.7919798  76.1856985  72.9890299   5.7633197
  75.4111385  72.4266863   5.7557696  76.0361147  73.6122942   5.0524050
  79.3152571  51.2271595  57.1097803  79.1535044  51.7893887  56.3521719
  78.4557199  51.1216021  57.5175667  36.6665792  60.9532261   8.9248508
  35.8922672  61.1023951   9.4674551  37.3961234  61.2734413   9.4553792
   3.3193979  63.6680889   9.0115875   2.4113268  63.5230112   9.2772764
   3.3206308  64.5472193   8.6329556   1.7554460  34.9445295  53.4755087
   1.5271288  35.6720734  54.0541124   2.5844774  34.6142507  53.8217115
  70.8246374  36.5689206  41.9413185  70.3495693  37.3325348  41.6135406
  71.6650486  36.9186211  42.2373867  78.8783741  32.0961905  22.9136443
  79.0919209  31.6049385  23.7069297  79.6359491  31.9697404  22.3424006
  21.2120295  19.5670247  10.9598625  20.9827113  19.1539061  10.1274097
  20.5180621  19.2960870  11.5608919  20.0118709  67.1899319  35.0690293
  19.5902455  67.5139046  34.2730975  20.9421229  67.1483517  34.8473668
   3.4427935  67.6366615  22.1747637   4.0988004  67.6507378  21.4778495
   3.2861602  68.5594988  22.3749280  78.2568359  36.0897398  43.8665867
  77.5303602  35.6135035  43.4645128  78.7048721  35.4352617  44.4024563
  21.2333655  62.4991894  24.9089479  21.1502218  62.6186323  23.9628744
  21.7612386  63.2432032  25.1988173  62.2251797  53.4183931  50.8172750
  61.9089842  54.1494322  51.3481617  62.3771000  53.7987661  49.9521351
   1.7773458  45.5679798  55.6671381   1.5564308  45.1682997  54.8258972
   0.9904798  46.0529518  55.9158897  79.4901323  31.2039638  31.0519457
  78.8591957  31.9228745  31.0882115  79.4851589  30.9269190  30.1357293
  76.3995266  42.9345369  36.2984276  76.0311365  43.7400198  36.6613579
  76.0356569  42.8816938  35.4146671  60.7713461   3.1224009   7.9778564
  61.6548395   3.4059504   7.7427584  60.2401733   3.9161539   7.9142398
  78.7144184  39.1168094  40.3147125  77.9253626  38.8820958  39.8263168
  78.7156725  40.0739813  40.3221035  37.0958710  16.2001252  30.0777864
  36.8599129  15.8677542  30.9438610  38.0494356  16.2794590  30.1033115
   2.2225244   2.5729293  28.2690763   2.6206434   1.7193517  28.0983758
   1.7487083   2.4558552  29.0924978  41.9589043  59.1079760  53.8967371
  42.5043726  59.8529339  53.6442709  41.0687828  59.3737602  53.6659336
  29.4031143   3.9728057   3.1034601  29.5036173   3.0809456   2.7707192
  29.0054750   3.8628131   3.9671826  64.7946548  45.3477287  26.1604214
  64.6950150  45.1092625  25.2387738  64.2148924  44.7461271  26.6275120
  70.6503916  56.0233212  55.2928495  70.2959108  56.2980461  54.4472122
  71.2201691  56.7447662  55.5594969   6.4722347  73.4126711   1.3817850
   5.5685365  73.0987406   1.3500236   6.4444500  74.1628599   1.9756514
   3.7403920  29.1121078  40.0556898   4.6620414  28.9768147  40.2758932
   3.3694550  29.5377898  40.8286238  77.5427723  38.7594771  12.1676838
  77.1450901  39.4295931  12.7235866  77.4766016  37.9533982  12.6796305
  38.0430412   1.3043302  32.2088790  37.2380614   1.7369996  32.4935460
  38.6226559   2.0215997  31.9523525  42.8904533  28.8474488  52.6203585
  43.8246441  29.0550637  52.6408386  42.4793673  29.5421839  53.1347322
  63.4657907   7.9905421  42.7109146  62.5850105   8.2700306  42.9606104
  63.9924479   8.1262505  43.4986019   8.4258205  65.6392622  13.6101329
   9.3235016  65.4053688  13.8461292   7.8841281  65.2059507  14.2697120
   5.0616741   2.9060295  58.0742359   4.3755409   3.3820283  58.5420799
   5.7744628   3.5387573  57.9858112   5.2524197  41.6530800  52.9237413
   5.3749609  42.3781919  53.5364628   4.7403952  41.0095406  53.4135628
  15.7248747   2.3312800  44.2054319  15.3091192   1.5694359  44.6091318
  15.2876866   2.4221495  43.3587694  74.2516613  56.9669199  45.0882053
  73.4097147  56.8233395  45.5203438  74.8922825  56.9467926  45.7991409
  48.1299019  17.4858224  11.2693989  48.1675529  16.6478980  11.7305911
  48.4594774  17.2913325  10.3920257   8.3345819  50.3327608  22.6795864
   7.4654025  50.4543018  22.2975039   8.1660503  50.1419973  23.6023211
  13.0567789  41.8588066  54.1891432  12.8642881  42.4740076  53.4815359
  12.2527325  41.3490725  54.2886925  67.5559902  63.8886404  54.0164280
  67.3414469  64.6243715  54.5899296  68.3901501  64.1328335  53.6154604
  53.2964516  32.8289151  49.1647863  53.5204935  33.6724210  49.5578957
  52.4759102  32.5774908  49.5887280  62.5594902  64.2714834   4.6708319
  62.1012259  64.9363470   4.1568488  63.0207539  63.7418365   4.0204915
  21.0396767   0.7424547  12.7527082  20.6173325   0.8326352  11.8984699
  20.3331232   0.4799247  13.3427012  66.4422512  22.7013493  33.8055444
  66.1835003  21.7897129  33.6706352  67.1423101  22.8482604  33.1694913
  53.7736988  34.2607498  44.5642805  52.9470444  34.3380356  45.0406265
  53.8050365  35.0410557  44.0107727  68.4748459  27.1646929  34.4559622
  67.5466728  27.0658016  34.2439604  68.9189100  27.1315956  33.6086464
  69.7785902  33.7842631  35.7159209  69.9748468  34.6568584  35.3749084
  70.2970791  33.1920505  35.1712346  57.4628448  41.1848116  61.1319637
  56.5757990  41.2610388  61.4834833  57.8107262  42.0759678  61.1643744
  64.5743704  43.6652279  43.1198168  64.3505764  43.4447289  44.0239906
  63.8335228  43.3454752  42.6049089  49.1533041  71.0107613  26.6888404
  49.3225861  70.4909372  25.9031177  48.2274342  71.2453699  26.6259313
  12.1076012   7.1175289  37.3460937  13.0204272   7.3915541  37.2572660
  12.1393824   6.3675374  37.9400086  29.2606902  50.5896759  63.7630796
  28.8695836  50.4920626  62.8948975  29.2169356  49.7132349  64.1454029
  63.0856943  29.9444413  47.1863747  62.3585844  29.8281622  47.7979469
  63.3414078  29.0538478  46.9461966  15.1128924  64.6935892  61.5338755
  15.5231452  63.9009571  61.1879635  15.8450568  65.2262735  61.8443918
  23.8400769  60.8991432  37.6507831  23.4736681  61.7604589  37.8510666
  24.4823813  61.0665798  36.9611144  47.6975060  47.2176504   0.1319312
  47.0371103  47.8719425   0.3599823  48.5108566  47.7159882   0.0521981
  12.3038852  23.5952234  57.7113056  12.5768578  22.7739596  57.3023510
  11.6122174  23.9289856  57.1399641  14.2858815  59.9512339  56.0637808
  13.5288429  59.6405077  55.5672216  14.0776765  59.7414160  56.9741964
  50.3257227  29.3517542   3.0497381  49.9102449  29.5289040   3.8936743
  51.0541487  29.9712467   3.0066553  28.0900502   6.7147177   5.6966513
  27.5475550   6.1691695   5.1271701  28.9140511   6.2339485   5.7748395
  49.0591049  32.1071434   7.5007778  49.3550396  31.3310122   7.9764616
  49.6155977  32.8144765   7.8266978  15.6732094  60.0508547  18.5325646
  15.6276083  61.0023880  18.4391344  15.3231013  59.7122288  17.7085567
  16.6036630  45.8953428  40.5701160  16.2368882  45.9692907  39.6890736
  16.3702214  45.0112963  40.8533144  70.7260513  54.7731400  40.4554224
  70.1243734  54.9700356  41.1733723  71.5972424  54.8605013  40.8422422
  31.8993974  57.6940918  58.1805706  31.0115838  57.4402285  58.4327078
  31.8292451  58.6227036  57.9592466   4.6135861  73.3400583  56.6386271
   3.7219277  73.0818701  56.8721151   5.1686758  72.8811979  57.2691488
  11.2533259  53.1310463  34.0804720  10.8475614  53.9398956  34.3924809
  12.1335936  53.1442547  34.4562197  63.4826899  46.6867781  44.3852520
  62.5540400  46.7772293  44.1715622  63.8567734  46.2229681  43.6361408
   0.9781815  69.7571707  33.4009552   0.1148921  70.0541162  33.1132317
   1.1105900  70.1881790  34.2453074  78.8429642  53.0382776  55.4214764
  77.9732132  53.4345579  55.4736996  79.3855810  53.7059641  55.0019646
  51.1018181  30.5555463  25.3879714  51.6529655  30.0315356  25.9692502
  51.6375971  30.6892967  24.6061277  65.3769350  10.9039414   7.2455943
  64.4359779  10.8763015   7.0721865  65.7510662  11.3232410   6.4707112
  58.7865019  17.3020399  40.0124216  59.3709898  17.9712105  39.6563077
  58.4665966  16.8297863  39.2437434   9.3493003  22.3351383  42.5583506
  10.2964389  22.4708080  42.5309086   9.0789163  22.7030730  43.3996296
  61.1489201  57.5489140  51.5903234  62.0036697  57.3165751  51.9531631
  61.0343504  58.4713078  51.8190145  10.2921629  47.9389286  43.0097151
  10.7432902  48.7732172  42.8805685  10.2074301  47.5736189  42.1290302
  14.6223772   4.2345941  24.9589467  14.1892564   4.0069026  24.1362715
  15.3009379   3.5678419  25.0649118   2.0598663  48.1855583  44.7718191
   1.4259376  47.4937201  44.5828152   2.8430486  47.9328728  44.2829370
  62.2398853  38.3699608  53.9528608  62.3958778  38.6340141  54.8596001
  63.0312157  37.8930044  53.7027788  48.1153393  68.5284758   5.2532881
  48.8393688  68.7485075   4.6671173  47.5196743  69.2749786   5.1888645
  61.5964413  25.1292229  64.0778923  62.2798777  25.7782841  64.2448378
  61.4781380  25.1448536  63.1281614  53.7018204  30.6847668  28.2827663
  52.9942465  30.1423073  27.9344678  54.4960117  30.3253031  27.8874421
  10.9528112  19.3794453  15.3059781  10.7495224  18.8564312  16.0814524
  11.1798573  18.7352514  14.6353853   0.3201137  63.6258602  23.9033127
   0.8583045  62.8722429  24.1454720   0.8736999  64.1352224  23.3114314
  79.4115639  38.5127783  48.3655310  78.9325953  38.3628201  47.5504637
  78.9621496  37.9674888  49.0112209   0.0679645  71.2696028  61.0292339
   0.3082011  70.5434942  61.6048050   0.1746262  72.0508289  61.5719461
  50.8126497  53.1603956  57.7656364  50.5658770  54.0627623  57.5629807
  51.7686558  53.1570673  57.7180004  53.1898308  72.5865889  56.6194487
  52.9961634  73.4286118  57.0314121  53.2059050  71.9628620  57.3453522
  49.1227436  66.1995935  54.8957300  49.0468121  65.9576464  55.8187294
  49.2797041  67.1437597  54.9077463  41.4070845  67.1661901  33.8276005
  41.1699009  67.4634218  34.7060251  42.3631191  67.1206331  33.8401651
  64.7401047  64.5358372  32.2298598  65.2760267  64.8463249  31.5000558
  65.2530718  63.8278055  32.6194596  53.2268381  43.5552645  17.6193118
  53.9814234  44.1423893  17.5732625  52.8678179  43.5566092  16.7319930
  22.4866009  56.5224695  50.4592848  22.5407386  56.2640953  49.5392036
  21.7959595  57.1848392  50.4818201  61.2527800  35.6205702  31.5217781
  60.7478046  34.8212624  31.3723135  62.1582747  35.3205156  31.6010189
   1.6768801  37.0207810  59.8372602   1.0766128  37.5671911  59.3299675
   1.2165233  36.1874175  59.9362946  70.6431293  23.5770965  37.9466033
  71.1894226  24.2488146  37.5384474  71.1813354  23.2305026  38.6582518
  28.0426836   1.3093345   4.4326070  28.4499979   0.4828575   4.6919563
  27.2938251   1.0493137   3.8961077  64.5301056  37.0396280   1.3374007
  64.6166229  36.8644667   2.2744521  65.4275751  37.0157719   1.0054180
  47.6333618   2.6007354  57.6654530  47.0987654   2.2714520  56.9429493
  47.1205235   2.4075769  58.4502602  68.8885498  69.4149685  48.6213398
  69.1652918  69.6463394  47.7347088  68.1238031  69.9668217  48.7852240
  62.5063705  69.5975399  15.0400960  62.0393324  68.8327360  15.3765213
  62.7593803  70.0870800  15.8227623   0.8122008  47.8637028  39.3504715
   0.3827258  48.0002308  40.1949501   1.7477083  47.9153156  39.5464158
  15.1292527  22.3115540  15.7355154  14.7207797  21.7251539  15.0987136
  14.6271980  23.1238484  15.6695712  62.8329945   9.2551672  47.1169233
  62.2641134   9.8862672  47.5577450  63.7056684   9.6456075  47.1640587
   9.7606933  49.7754478   8.9105451  10.1411581  49.8794746   9.7827011
   9.0027040  50.3599787   8.9086175  36.8906951   6.5960610  29.2056155
  37.8382492   6.7307669  29.1905141  36.6712022   6.3377434  28.3104467
  39.6036983   4.0824065  46.4746904  39.8707247   3.4027499  45.8558273
  38.7248826   3.8226759  46.7511988  54.9838686  55.1448631  63.0421782
  55.0139618  55.2280998  62.0890808  54.5507526  54.3051767  63.1957150
  77.7938080  69.1776371   3.8559413  78.4400511  68.4723425   3.8899845
  78.2777262  69.9590015   4.1233847  13.1061924  20.5843973  35.3915429
  12.9497433  21.4222360  35.8271837  12.2316802  20.2246070  35.2431870
  47.5642252  36.3371372  14.7365546  47.6821232  35.4366279  15.0389063
  47.8219509  36.3160324  13.8149452  23.5700035  20.5599451  46.7486382
  22.8175902  20.0771642  47.0907307  23.3344507  20.7599926  45.8426952
   1.5751776  35.7176232  19.0848720   1.2827788  36.5092397  19.5366228
   2.5293884  35.7909489  19.0665090   9.0679604  43.5895348  52.9649401
   9.9791789  43.6366558  52.6756430   9.1049802  43.7723160  53.9037943
  55.9920263  23.5854316  38.2715178  55.7327986  23.4538031  39.1834950
  55.9073877  22.7201009  37.8711748  20.9750772   0.0368532  23.6397123
  20.2896261   0.6623235  23.4048176  21.4842319  -0.0732838  22.8366804
  16.6688931  70.7706118  43.1922293  17.4539936  70.3194475  42.8819084
  16.0848749  70.7840300  42.4339581  68.8050413   0.2199861  22.8937006
  69.0373182   0.5349620  22.0201635  68.0172062  -0.3061808  22.7569413
  54.2903519  10.6599104  37.1986437  54.6135521  11.3736296  36.6487527
  53.3645678  10.8620930  37.3338485  51.9326401  20.9535193   5.6402910
  51.7685461  20.1547337   5.1390487  52.5287247  21.4627147   5.0910747
  25.4283929  67.3593569  18.9449525  24.9255896  67.8518581  19.5936930
  25.0377512  67.6011753  18.1052160   8.3015078  64.6909952  55.5613327
   9.0619981  64.1287041  55.7086897   8.6698717  65.5671310  55.4476309
  13.9567316  59.6592951  38.5261202  14.1999221  60.4947329  38.9250374
  13.1816304  59.8608255  38.0018735   7.2535151  31.9493699   2.4054711
   8.0683827  31.8627143   1.9107860   6.6582954  31.3196659   1.9987535
  24.0752530   0.4150037   3.8517958  23.5992932   0.6398918   3.0523467
  24.2270303   1.2551910   4.2845553  74.5799112  18.1315386   7.7324992
  75.0996113  17.8611636   6.9755054  73.9566183  17.4168468   7.8627145
  18.1773067  68.1771517  17.2727048  17.5200450  68.2239532  17.9670024
  18.4505343  69.0848732  17.1399641  36.7905045  68.4106731  31.7666245
  36.5848231  68.6688089  30.8681297  37.7449775  68.3403969  31.7830992
  64.0771103  10.3744459  49.9446106  64.4546652  10.4025126  49.0654659
  64.8295307  10.2584076  50.5248117   1.8791004  17.1815145  60.6566525
   2.2552338  17.5391245  59.8523712   0.9495751  17.4043524  60.6060791
  11.1142504  13.6017227  53.9055729  10.6493235  13.2248342  54.6525860
  11.0987484  14.5454037  54.0651321  15.2693439  67.3526049  15.5660820
  14.8282409  68.2001066  15.5077577  16.1896241  67.5711727  15.7128620
  55.5245066  17.6943195  54.8702240  54.5958281  17.5434256  54.6940899
  55.5925655  18.6398196  55.0029945  56.7094231   7.9569829  46.4145851
  57.0754433   7.2049749  45.9490299  57.1126318   8.7173969  45.9957504
   2.8997487  15.1021659   5.3013998   2.6662889  15.8292770   4.7243053
   3.0630657  14.3686950   4.7084591  53.1467342  24.9323320  40.4426956
  52.3125744  24.6074986  40.1037359  53.2853556  25.7608938  39.9838924
  55.2558756  14.6690476   0.9640717  55.8358526  14.2294466   1.5858476
  54.3998432  14.2659497   1.1088445  51.5651464  72.8824186  50.1577806
  51.9939375  73.5122252  49.5783710  52.1871805  72.1581459  50.2265263
  73.8769865  12.8485084  57.5210524  74.3109131  13.6010230  57.9231262
  73.4492350  13.2062030  56.7430305  31.2467241  10.0306225  18.4210408
  31.5246606  10.9405661  18.3162236  30.5600715   9.9127954  17.7646446
  62.2649813  35.0013852  39.5114207  63.2139874  35.1156902  39.4608641
  62.0695162  35.0327325  40.4479265  51.1200809  38.9793539  37.9841900
  51.4493895  38.9000773  37.0889235  50.3059721  39.4751763  37.8969073
  61.2444162  43.2317352  47.9658985  61.9488668  42.8924179  48.5180283
  60.8373356  42.4510717  47.5902891  63.9983940  12.6008964  43.7616920
  64.2964458  13.1862450  43.0654430  64.8034048  12.3041737  44.1861248
  23.5206914  15.8978891  51.8306208  23.2599807  15.8431041  52.7500010
  24.2439795  15.2762187  51.7493153  70.0796080  18.0610716  31.8130803
  69.4691610  18.6709225  31.3987517  70.4163694  17.5313008  31.0904717
  41.4154053  54.7744179  41.6700792  41.5590572  54.0505648  42.2797012
  41.4192486  55.5565834  42.2218323  34.5762944  68.3555651  61.9800043
  34.3585658  67.4914265  61.6305876  35.5326176  68.3636808  62.0201588
  70.4941559  65.9124279  50.5629396  69.9575377  65.7279587  49.7920704
  71.0748911  66.6213179  50.2864408  58.3614969  16.9506299  30.1157475
  57.9506493  16.2457836  29.6151233  57.6480103  17.5620186  30.2984381
   3.3649346  38.1399250  31.7858315   2.4336019  38.1559157  32.0062757
   3.4046420  38.4732342  30.8894157  47.8552103  62.7816486  56.7414618
  46.9831038  62.3930120  56.6735125  48.3664703  62.3432064  56.0613108
  69.3202209  11.1134326  20.3364539  69.8743343  11.2315202  21.1079741
  69.7414494  10.4084873  19.8446691  42.1556616  57.5541592  21.9927597
  42.0951605  58.4653282  22.2797251  41.7279005  57.5438118  21.1365199
  18.5770953  39.6656537  49.6408701  19.1052198  38.9919639  50.0691938
  17.9756188  39.9672818  50.3216648   6.6777641  15.0708902  51.3912058
   7.2279716  14.2934537  51.4865828   6.2662750  14.9692774  50.5329609
  56.4813614  14.3533301  31.4299583  56.0706711  15.1613712  31.7375827
  55.9545946  13.6543441  31.8174720  75.6433439  20.9537888  25.3070927
  75.0970602  20.3012776  24.8688722  76.5350008  20.7464099  25.0275016
  48.4457636  25.2439165  60.5185604  48.0167246  25.8145452  59.8809528
  48.3506870  25.7030869  61.3530397  12.9716587  60.3641081  64.1753864
  13.6002302  60.4238176  64.8948050  12.4579394  59.5803881  64.3706083
  32.0786881   8.8158381  40.8069372  32.0413804   9.2285562  39.9440908
  31.8571782   7.8990412  40.6436920  11.1070144  23.9909387  35.2751994
  10.1617694  24.0440226  35.4163551  11.1977494  23.6079645  34.4026566
  47.7155304  48.9425039  14.2946899  46.9907284  49.5570040  14.1794229
  48.0749083  49.1548777  15.1560712   9.1827327  45.2652931  23.6885142
   8.9894456  45.6242609  24.5545483   9.5706385  45.9962416  23.2073903
  49.5894337  62.4506044   6.9182563  49.9897051  63.1679392   7.4096304
  49.2590904  61.8547678   7.5906235  60.8141041  23.1682849  54.2759085
  61.7712116  23.1597781  54.2653847  60.5837584  23.0605292  55.1987076
  46.3510323   5.3060168  28.6162138  45.8466244   6.1104971  28.7371087
  46.6404963   5.0700849  29.4975615  11.4107871  29.8368788  12.5539362
  10.9866512  29.6626139  11.7137146  11.3178372  30.7814693  12.6778018
  29.3813419  56.3037634  31.8066621  29.0089750  55.6638479  31.1999655
  29.4503784  57.1086502  31.2932158  65.1578856   3.9730880  34.2653227
  65.6765890   4.4937611  33.6520720  65.2292776   4.4413358  35.0971150
  77.0170879  18.6162579  20.2264500  76.9864893  17.8033984  19.7219145
  76.4499187  18.4520316  20.9798312  13.9186311  16.2381554  12.1623075
  14.5651388  15.9169579  11.5337443  13.0945504  15.8389759  11.8834209
  30.1279712  73.6231709   3.6171827  30.1589942  74.5779657   3.5568863
  29.1986585  73.4081984   3.5372120   6.8746257  63.8034630  20.4514980
   6.8904501  63.8898039  19.4983304   6.2342268  63.1119823  20.6187558
  74.9436426  25.8274508  18.8731515  74.7022200  25.2195930  19.5720482
  75.8709335  25.6521845  18.7130046  74.9778223  18.1055582  54.8508120
  74.9873352  17.4753141  54.1304398  74.2158651  17.8587294  55.3749514
  55.2692270   9.9140149  21.9229078  55.1986217   9.1571999  22.5046945
  54.5140600  10.4584682  22.1454430  29.2878795  66.4133883  43.9962006
  29.6921015  65.9172106  44.7079945  28.6724687  65.7993793  43.5955858
  51.1923790   9.2987502  34.9311137  50.5889654  10.0413597  34.9055314
  50.8394957   8.6812186  34.2905211  76.7151356  32.5839806  12.2207594
  76.2848234  32.0731497  12.9064095  77.6418686  32.5733852  12.4601090
  63.3249617  29.1413999  17.3821843  64.0073681  29.8024058  17.2654438
  63.7689972  28.3082604  17.2242475  62.3187923  24.4665837  44.5054293
  62.4605751  23.5780907  44.8320913  61.4436579  24.4426680  44.1183901
  69.0795851  13.5461783  19.6712101  68.7038612  13.9089608  20.4733634
  69.1448355  12.6064169  19.8409820   7.9835296  35.8057117  62.0808840
   7.5793576  36.0669756  61.2534666   7.9099530  34.8514152  62.0925808
   5.9608275  53.9319992  63.5655355   5.1536709  53.4709311  63.3371830
   6.6452926  53.4713745  63.0801821  53.5283947  20.5615211  33.9604259
  52.8163958  20.0654101  33.5564923  54.0123081  19.9128997  34.4716525
  55.4656649  28.1331539  15.5174005  56.0308361  27.5720716  16.0484374
  55.2573776  28.8725066  16.0885417  26.7074823  19.1483128  16.1760175
  26.0468578  19.3166840  16.8479240  26.2185073  19.1519070  15.3531432
  42.5344515  70.8943129  54.5688248  41.6977024  71.3304281  54.7297144
  43.1317997  71.2778330  55.2109480  32.9480577   3.2976985  26.1061430
  32.1952486   3.0113649  26.6233683  33.7057638   2.9346365  26.5647292
  62.4847460  36.6651917  37.2273350  62.1849060  36.5425515  38.1280518
  62.5635242  35.7774425  36.8781543  62.3671150  32.6902008  57.6067019
  61.5013075  32.3430109  57.3920727  62.8879452  32.5393534  56.8178988
  43.4567738   7.1044070  34.5372939  43.8565636   7.9730368  34.4939137
  44.0988827   6.5681726  35.0024629  40.6038046  47.2557402  15.5173588
  41.3072300  47.1035147  14.8862875  39.8118377  46.9580793  15.0696802
  64.3952370  21.3508201  36.5752459  64.2987347  22.0063949  37.2660017
  65.1776218  20.8572102  36.8211174  24.5296192  31.1770749  57.6555777
  24.1936994  31.8124366  58.2877970  24.7311854  31.6969752  56.8775606
  27.2166133  17.5187767  27.8172064  26.7109466  18.2483387  27.4590564
  27.1110225  17.5968051  28.7653589  40.0881243  61.4246845  48.1743765
  39.2552543  61.8725061  48.0260086  40.3956890  61.1943007  47.2977018
  73.8919592   0.7352345  48.3434010  73.8211250   1.6897115  48.3296967
  73.9317131   0.5113406  49.2732000  44.3555403  60.2742147  16.3291335
  43.5703754  60.4390240  15.8070326  44.3040991  60.9071207  17.0453870
  47.8636932  59.9494362  30.9189510  48.5713243  60.0315189  30.2796102
  47.5128365  59.0703487  30.7763481  70.2310038   6.6802478  17.8704250
  70.5972195   6.1189878  17.1869743  69.3792391   6.9506073  17.5274444
  53.9228916  27.4407959  30.3734612  54.2267895  28.3475208  30.3318882
  54.5483541  26.9537258  29.8369956  44.1477966  49.8602343  57.3930073
  43.6192799  50.6427813  57.5495911  44.7672987  49.8397160  58.1224108
  42.6277399  11.6997731  62.6511192  43.1174088  11.9088554  63.4465694
  43.2829428  11.7221963  61.9536734  22.7705503  73.8450909  24.3709207
  23.4564447  74.4546509  24.0984941  22.6779556  73.9937449  25.3119636
  78.0030203   2.5625244  35.1539683  78.4530449   3.1846178  35.7255530
  77.1708202   2.9872155  34.9458647  53.8319540   7.1807331  21.1603022
  54.7311831   7.5044364  21.2135625  53.8861513   6.2728411  21.4586759
  37.5391626  25.1895833  54.2620039  37.0484734  25.7999682  54.8123550
  37.3642850  24.3293333  54.6436024  49.4097424  11.5880966  37.0792484
  49.6197033  12.2761071  36.4477491  48.6293364  11.1647165  36.7215538
  13.9264143  48.7529087  51.8252945  13.6216593  47.9195118  51.4664030
  14.6505976  48.5140371  52.4038553  28.3862019  38.6894679   0.4868805
  28.9855051  39.3828702   0.2107224  28.2107592  38.1922913  -0.3120346
  74.4155407   8.4164822  45.1220417  73.9159822   8.1077939  44.3661451
  73.8247776   9.0234947  45.5678749  25.1777411   1.2105399  18.4126985
  24.5609379   0.5801141  18.0407417  25.3490949   0.8851390  19.2964315
  76.3011312   9.8361617  37.6674318  76.6344166  10.5769479  38.1737781
  76.6408062   9.0643060  38.1203008   7.0068425  14.6152842  41.2756491
   6.1312521  15.0005937  41.3089609   6.9065982  13.7568986  41.6871786
  29.0701890  13.2664609  26.3757086  29.7323775  13.0462527  25.7205391
  29.3132305  12.7507555  27.1446109  70.3530645   2.0601965  36.1997533
  71.0526562   2.5298783  35.7456589  70.5754566   2.1378069  37.1275210
  16.9726837  65.0996399  39.2423582  16.7839360  65.5484390  40.0664854
  16.4390337  65.5572844  38.5927320  56.6382790  30.2651310  42.7571630
  56.0919428  31.0265231  42.5621414  56.3572168  29.9855042  43.6283922
  75.2065945  27.4125218  57.6482105  75.6827402  26.8315077  58.2414532
  74.5960855  26.8367147  57.1878290   7.9396731  26.0173988  22.1957636
   8.2888985  25.9867549  21.3050723   7.9981822  25.1141667  22.5071764
  55.5061579   2.1392088   3.6319786  55.2203560   1.4893357   4.2740172
  54.7096777   2.3698448   3.1537938   7.1315050  65.5439234  35.0805521
   6.7321181  65.7933617  34.2471862   6.5239310  64.9067020  35.4560995
  55.4591417  20.7422662  52.8489399  54.7404051  20.6608510  53.4758520
  56.1907434  21.0796499  53.3658171  14.2939734  70.2855015  50.2945280
  14.6932662  70.4866123  49.4481516  13.8768721  71.1041021  50.5631351
  76.6280603  46.4760590  39.2799711  77.1834564  46.0478544  38.6285043
  76.3200235  47.2718096  38.8462305  22.8718468  74.0886012  27.1021891
  23.5118194  74.1833359  27.8076577  22.6641937  74.9869022  26.8449569
  24.3867636  53.0891848   6.3203055  24.0706563  53.8430214   6.8183345
  23.5988712  52.7153778   5.9256870  17.4015069  50.6946182   2.6357839
  17.1491265  49.9376535   2.1070641  17.6411462  51.3647079   1.9956437
  64.8435926  49.8565054  49.2359352  65.5353642  49.8937464  49.8964596
  64.0805387  49.5215607  49.7068834  22.5265503  15.0638127  27.7023530
  23.0058169  15.7321751  28.1920767  23.0550456  14.9165475  26.9179845
  72.3731279  38.7382841  14.8317444  71.7275572  39.3854046  14.5476604
  72.2814131  38.0184674  14.2074966  15.9634233  30.5147767  27.6279163
  16.8526328  30.1786947  27.7401137  16.0281920  31.4431143  27.8520274
  73.4470510  17.0313263  25.6957150  73.3638477  16.1420214  25.3515553
  73.5561228  16.9137239  26.6393805   4.5326045   1.0828201  38.7613273
   4.8879167   0.3095859  39.1996121   4.9907422   1.8193193  39.1661882
   7.2832638  38.8709474  30.9653807   6.8245375  38.4120393  30.2616739
   6.5867835  39.1715884  31.5491295  35.5469632  54.4215679  56.9145250
  35.6111884  54.3221760  55.9646654  35.9730339  55.2590513  57.0970631
   6.3811815  69.2975283  27.7593231   6.0615611  68.6644268  27.1164727
   7.1739972  69.6604252  27.3643804  35.4737544  31.7922735  60.6349993
  36.2740326  31.6668677  60.1250410  35.6363606  32.5861073  61.1445284
  71.7074299   0.7799196  44.0967464  71.8361807   0.0448682  43.4972858
  71.2249327   0.4060042  44.8340464   3.3167320  30.0460434  37.3850894
   4.2580399  30.1565337  37.2510600   3.2415286  29.6815348  38.2669663
  33.4004784  12.1373785  63.4885693  33.4082818  11.2494528  63.8460016
  33.8602495  12.0629835  62.6523209  22.3077345   1.2435002  48.3672333
  22.9281855   1.9527274  48.1991005  22.3992419   0.6613708  47.6129246
   2.7722263  63.0008173  50.2775192   2.3644069  62.8658581  51.1329126
   2.0702752  62.8339481  49.6485090  25.2411413  71.9600821  28.0430794
  24.4341779  72.2005129  28.4983134  25.8293772  72.7005482  28.1911206
  32.4456906  25.1054740  13.2551408  32.6827574  26.0006642  13.4973538
  33.2841849  24.6628022  13.1240010  68.8768530  10.0726581  11.8436348
  68.6474991   9.2929053  12.3492157  69.1912031  10.6977451  12.4968433
  59.8358774  64.2876148   5.3631330  59.7604465  64.7276640   4.5164347
  60.7388258  64.4484758   5.6370628   4.7910306   0.2128572  58.2507992
   4.8440355   1.1685090  58.2631207   4.5334685  -0.0011961  57.3540974
  10.5563402  12.5532389  42.1370697  11.2588573  12.0720530  42.5742865
  10.4521763  13.3500981  42.6570702  62.6681709   8.0721474  56.7001152
  62.9043961   8.0032992  55.7750797  62.2526312   8.9309263  56.7779207
  41.2014341  56.4116526  43.9442062  40.4766607  55.9669590  44.3837404
  41.8680954  56.5122366  44.6236753  18.7777650  69.2108440   8.9556146
  18.8312757  68.2647705   8.8202924  17.8471947  69.4140863   8.8609320
  19.4983065  61.2027454   0.3194862  18.8117754  61.3842201  -0.3223650
  19.0883625  61.3816833   1.1657471  18.0216336  18.4178543  42.2051811
  17.9601884  17.4631977  42.1722364  17.1415865  18.7222910  41.9836712
  70.6611967  65.1899576  25.6866980  70.8601379  64.6504688  26.4519477
  71.2380123  65.9490252  25.7722878  70.5556965  27.8340697  55.5020952
  70.5966902  28.7817645  55.3739309  69.7595024  27.5646639  55.0441360
  11.1661315  49.8574686  16.4190483  12.1143973  49.9401379  16.3181031
  10.9717190  48.9649487  16.1329591  46.2673235  55.6809187  18.1155980
  45.5664968  55.0593519  17.9188037  46.4783955  56.0791349  17.2711444
  10.6784105  41.8836880  62.8164911  11.2425005  42.1859169  63.5283136
  10.4674244  42.6772976  62.3246574  76.8242550   6.0328764  56.1219358
  77.0641136   6.9167215  56.4003515  75.8942652   6.0945612  55.9038734
  73.4786081  15.9195316  45.9805727  74.2777443  16.3217592  45.6402445
  72.7997494  16.1671531  45.3528261  77.7746439   9.1155577  12.0386612
  77.7330351   8.4019595  11.4020467  77.8932333   9.9033237  11.5080070
   3.6025435  45.5346155  25.6386209   3.3815041  45.0160265  26.4122105
   3.3499455  46.4285851  25.8693695  67.2594023  20.3723025  60.9814882
  66.3722563  20.6880140  60.8096361  67.1334696  19.5284486  61.4154053
  34.8764729  57.5179720  37.5787711  34.0383697  57.8128290  37.2225785
  35.4059076  58.3134317  37.6351619  56.2411070  37.4236059  54.1112137
  56.9170904  38.0050182  53.7630224  56.7116451  36.8366814  54.7031116
  21.6192698  54.9137259   7.0445383  20.6762457  54.9063921   6.8805784
  21.7135167  54.5331669   7.9177642  77.4525738  24.8640203  23.8766694
  78.2475471  24.4230366  24.1762996  77.7632380  25.6859040  23.4968972
  25.7926035  56.4275551  28.2410574  25.0058794  56.5631533  27.7129364
  26.4936447  56.3084984  27.6002789  34.7913337  10.9570801  28.5633492
  34.8878098  11.8269479  28.1757188  35.0922298  10.3563416  27.8815794
  62.9400539  39.5237303  15.3179610  63.0995417  40.3085136  14.7936368
  62.0312691  39.2900157  15.1289666   6.8269092  70.0142097  36.5321422
   7.3871636  70.7689857  36.7128730   6.6558951  70.0626183  35.5915880
  53.4800196   8.1364924  45.4015684  52.8395081   8.3162957  44.7133446
  54.2926502   7.9526061  44.9303484  24.5893931  74.0652704   6.5746099
  24.9237466  73.6592531   7.3743534  24.9236727  74.9617434   6.6033113
   0.5315705  15.3415811  33.9148355   0.7858630  14.5918667  34.4528842
  -0.3963451  15.4726136  34.1098690   1.7888503  43.8042355  35.9754610
   2.3899743  44.5486259  36.0030699   1.5206738  43.6790514  36.8857598
  73.1440639   3.4654623  47.5260115  72.9493332   4.2059505  48.1004572
  72.2856522   3.1184366  47.2832537  76.9057131  15.4100788  33.1596828
  76.3009357  14.7317946  33.4603572  76.3462400  16.0552430  32.7272701
  43.7329960   7.7123654   7.4607283  44.2895317   8.3687818   7.8797978
  43.0904102   8.2226032   6.9678050  64.0400696  44.7762775  55.4816675
  63.0902290  44.8500729  55.5743313  64.1788578  44.6311760  54.5457649
  10.9690797  73.6312914   1.5973888  10.5764139  73.7969446   2.4544799
  10.8566713  74.4530535   1.1195783  73.9986038  26.4252305  39.4332075
  73.4641647  26.2060928  38.6699343  74.5696211  25.6661916  39.5516706
  48.6425352  39.8925018  49.3962812  47.7422619  40.1715231  49.5632696
  49.1286516  40.7088518  49.2801046  69.8862267  26.9033527  45.2242184
  68.9539719  27.0727706  45.0884819  70.2456141  27.7471805  45.4981327
  76.5081310  25.6767726  59.3604660  77.4483871  25.8312368  59.2694283
  76.4237022  25.1894975  60.1800203  52.8976440   6.9643682  42.2119331
  53.0115604   7.0362741  41.2642574  52.9667139   7.8643745  42.5304413
  77.5009871  72.5289726  14.6570861  77.4232674  73.0611849  13.8652885
  77.3811483  71.6291189  14.3535507  18.7222707  60.4457140  47.8002405
  19.6750462  60.3825426  47.7334595  18.4042478  60.1953030  46.9328356
  42.7839327  65.4711676  46.0235405  42.6386642  66.4117622  46.1255550
  43.7120438  65.3947783  45.8021688  68.0179930  48.3595848  28.2198811
  68.3361053  48.1196642  29.0902114  67.5206614  47.5957108  27.9276657
   6.3636613  37.6810789  39.0517092   6.3923579  38.6341310  38.9674520
   5.4342639  37.4624729  38.9834237  18.8222468  59.5042467  30.9550428
  19.7185779  59.2057514  31.1090589  18.7205040  59.4759083  30.0036860
  69.8061466  33.4976578  17.7915394  70.2963018  33.0470538  18.4792423
  69.4124269  32.7929997  17.2770739  24.1989636  51.0253334   0.4967438
  24.3632984  50.4238224   1.2229732  23.8697028  51.8210602   0.9146392
  58.8877249  16.7621815   8.9840692  59.3657255  17.5878739   8.9067221
  57.9652834  17.0150208   8.9466131   6.5134931  12.4639177  35.0185585
   7.3248905  12.0102262  35.2466583   6.6118908  12.6788819  34.0910125
  72.2429848  25.0503469  31.1894989  72.7803755  24.7588682  31.9260359
  72.4530029  24.4393778  30.4832125  59.3885851  24.1421509  52.0502424
  60.1534128  24.1918302  52.6236534  58.9634657  23.3183861  52.2888231
  60.3142452  37.7612758   2.4429780  60.5391026  37.7699447   3.3733523
  61.0741043  38.1495643   2.0092973  19.6580374  31.8241239  59.2404270
  19.5426321  31.8463159  60.1903820  19.0202963  31.1781573  58.9367008
  54.2668295  18.7158263  20.6557298  53.9195681  17.8607595  20.9097028
  54.2059660  18.7249446  19.7005105  63.5029459  18.0863261  21.3561225
  63.9201260  18.8218462  20.9075665  62.7246046  17.8966177  20.8322620
  59.0708876  71.3693905  43.6558819  59.3237591  71.7102528  44.5138454
  58.2251883  71.7796230  43.4749413  30.6175923  71.6703796   1.6172914
  30.8067369  72.5716162   1.8784977  29.7999167  71.7307663   1.1233354
  14.5738137  65.8655024  10.0074518  15.1149917  65.5711126   9.2748582
  15.1124489  66.5170193  10.4564869  57.8500271  27.5387001  56.4481878
  57.0029831  27.8872848  56.1702681  58.0651951  28.0339789  57.2385263
  77.8660154  28.8468504  37.9389381  77.8189754  27.8909922  37.9200888
  78.5886097  29.0393519  38.5364604  21.7213225   5.4130083  59.7220087
  21.8972373   4.4880450  59.5495892  20.9178233   5.5986410  59.2360449
  27.9558849  62.0908928   4.8169613  28.1279016  61.1501837   4.7756562
  28.6477232  62.4844599   4.2852700  11.6420484  24.2958188  46.2284040
  11.5461159  24.0311623  47.1432734  11.1780691  23.6203384  45.7337523
  58.7343264  37.7207756  38.0986643  59.1046524  37.7694464  37.2173452
  57.7963972  37.5918746  37.9575658  57.4408865  24.1603470  10.1313007
  58.3213758  23.8012290  10.2408707  57.4512529  24.5586133   9.2609501
  64.4984818   0.0679318  12.1226370  65.1388359   0.7368401  11.8802750
  65.0269461  -0.6885201  12.3770785  42.6132917   5.1681161  25.1209497
  43.2804251   5.4018784  24.4755626  42.0642662   4.5231548  24.6750498
  66.9814444  27.5944471  47.7135611  66.9867039  26.6623521  47.4958372
  66.4581633  27.6507020  48.5130882  25.1632905  49.6297836  16.6019320
  24.9245191  50.3892803  16.0705340  25.3012323  48.9269781  15.9668994
  68.9013863  18.5196197  18.0430913  69.8300791  18.6927450  18.1973159
  68.8590622  17.5798261  17.8663754  39.5120215  54.2128849  23.1111813
  39.2355800  54.9099588  22.5162864  40.3122759  53.8653278  22.7174425
  57.0859814  63.1948423  56.6120625  57.4414301  63.9478588  57.0841408
  57.8189468  62.5821733  56.5518093  58.8124609  13.9921570  33.8562822
  57.9340601  13.6872995  33.6289024  59.1777468  13.2900870  34.3947029
  57.6929092   5.5980617  24.2114091  58.0662394   4.8862305  23.6916494
  56.7795038   5.3443468  24.3438935  70.3110743   2.7082977  46.6396761
  69.6811247   1.9964764  46.5269518  69.8610544   3.4822640  46.3010168
  12.9590976  47.4528170  41.1937284  12.4802756  48.0959463  40.6709003
  13.8542652  47.7901316  41.2273312  76.2539339   8.2443279  48.2693529
  76.4555454   7.5147355  48.8552570  75.3007221   8.2265353  48.1839085
  60.0841141   9.4364345  34.9282026  60.4046249   8.9045227  35.6566072
  60.8771467   9.7575414  34.4989944  20.4815006  22.8321457   5.5730939
  21.1977673  22.2530961   5.3125197  20.4465461  23.4951282   4.8835552
  19.5311999  30.7494187  13.4298468  19.8595178  30.3580236  14.2393208
  19.6827805  31.6882086  13.5390687  20.5995512  49.8793173  25.2114320
  19.8173964  50.1393938  24.7247863  21.2439919  50.5575848  25.0092530
  43.3158779   4.4605574  35.8565259  43.4381533   4.3647051  36.8010330
  42.4950361   4.0033841  35.6736612  27.2906113   7.2265971   0.7762089
  26.4514375   7.3403972   0.3300389  27.1417475   7.5693327   1.6574599
  62.2732592  65.6484461  32.0475364  63.2250309  65.5787468  31.9733834
  61.9366360  65.0595856  31.3721371  64.1526175  26.0980821  57.0339966
  64.9703836  26.5865064  56.9394875  63.9832211  26.0945940  57.9760790
   4.0666071  32.9076815  34.9445319   4.3534622  32.7577615  35.8453488
   3.3430645  32.2938609  34.8182774  71.5665340  14.2405987  43.6225319
  72.5146770  14.2145312  43.4938002  71.4245367  14.9853802  44.2068005
   9.8013818  20.2717042  58.9285660   9.3022412  21.0177064  58.5960484
   9.9706888  19.7331238  58.1555843  52.0290116   1.7007656  -0.2574233
  52.6051692   1.8255252   0.4966994  51.1573628   1.5911836   0.1226445
  49.1349697  17.8337812  33.8388300  48.2231617  18.1249404  33.8311172
  49.4173050  17.9064000  32.9271054   5.0083204  74.2191732  37.0827675
   4.7514506  73.6819479  36.3333416   4.2246409  74.7268375  37.2933745
  68.2670832  51.7233992  47.3324251  68.2238626  52.4678946  47.9325056
  68.8857889  51.1198568  47.7437258  72.5181484  15.3657675  31.9215894
  71.8772936  15.4429853  31.2147832  72.0210552  15.0089860  32.6576853
  45.7977343  16.7416441  61.5691185  46.1751652  16.4679015  60.7331514
  46.5537691  16.9701695  62.1098757  66.5521193  12.2909844  56.4688778
  66.2534285  13.0771172  56.9260550  66.1774588  12.3673189  55.5913639
  78.4944439  54.9369574  29.6424246  77.5482941  54.8478460  29.7568202
  78.8580227  54.7642326  30.5108762  66.0333252  19.0716469   8.5297376
  66.2418413  18.6230123   7.7102983  65.5600929  19.8582149   8.2584578
  68.3977270  20.1751804  15.8087111  68.5657120  19.6691418  16.6036558
  68.2553768  21.0692501  16.1195302  65.7295942  23.3076763  39.5527577
  66.5457296  22.9307151  39.2240500  65.8820534  24.2526269  39.5450854
  21.4726472  30.5101967  57.4236536  22.3213339  30.9493780  57.4791861
  20.8790302  31.0723543  57.9214764  21.6009283  45.8167362  11.2453306
  22.4839878  46.0955286  11.0030210  21.5896106  45.8612299  12.2014284
  73.0020714  40.1753235  36.7609286  72.2785378  39.9081540  36.1940503
  72.6761103  40.0312281  37.6493073  74.9705839  39.8291945  31.2952495
  75.9121990  39.9784636  31.3807964  74.8989677  38.9323258  30.9685564
  78.8166167  41.7895889  39.7694016  79.0966195  42.6134014  39.3704557
  79.0939338  41.8594074  40.6828880  70.3838015  23.4775496   9.7449476
  71.1605167  24.0086770   9.9205828  70.7307959  22.6218796   9.4926596
  20.5551291  37.9010987  32.7703691  21.4364815  38.2684278  32.7031565
  20.4643345  37.6636744  33.6932015  61.0939932  34.0423775  45.2328491
  61.7775488  34.0982533  44.5651197  60.2755737  34.0235400  44.7368050
  77.0257187  26.1703444  37.6718068  77.4578619  25.4147196  37.2736621
  76.3324404  25.7922339  38.2127547  71.5168381  16.8026972  61.5933466
  71.3135195  16.8703711  60.6604433  70.8610868  17.3527431  62.0219135
  22.2458887  13.3403194  35.0266814  22.6369381  12.8268039  34.3198490
  22.3200154  12.7799428  35.7991552  16.1852920  41.5160751  61.1458015
  16.2682390  41.5964460  60.1955986  16.7250180  42.2256756  61.4942122
  10.2864337  47.5900126  22.1429729   9.3756616  47.7277040  21.8826485
  10.7993937  47.9845524  21.4376760  68.1810141  42.5810909  23.4441280
  67.2805738  42.2797203  23.5650516  68.4586668  42.1814919  22.6198316
  19.5879495  25.6253791   4.3298548  20.1343703  26.1748815   4.8917294
  18.8066947  25.4490423   4.8540479   9.9038184  38.7686563  28.2816434
  10.1537204  39.6917295  28.2402325   8.9904058  38.7547517  27.9957819
  11.7070854   5.4906082  39.6172118  10.8449650   5.3813344  40.0185108
  11.9723487   6.3783669  39.8575258  75.2360392  30.9899163  60.2556467
  75.9601831  30.5274749  60.6775379  75.4211760  31.9162917  60.4098797
  68.3231783  50.9896898  18.5659909  68.9480972  51.7128611  18.5136211
  67.8627253  51.1304712  19.3932724  62.0394564  10.8042443  38.0076218
  61.2797308  10.3487539  38.3703566  62.3467827  10.2338636  37.3030329
   7.1329463  28.1021166  17.5211978   6.7756242  27.3742557  18.0298936
   6.4663756  28.7864327  17.5814390  72.5628328  47.0895195  15.1015449
  71.6835499  46.9965172  15.4682064  72.4457741  47.6566982  14.3394184
  46.0697889  15.4326320  20.7449079  45.8832264  15.8934402  19.9269342
  46.7937660  15.9218943  21.1356926  71.5033960   8.8341498  32.6271915
  71.6411829   9.4111979  31.8760180  71.3453245   7.9724848  32.2414732
   4.6294639   4.0979904  32.0693469   5.3966796   4.6249205  32.2928548
   3.9873129   4.7326988  31.7515111  17.4403703  14.5878172  36.0243487
  16.9360411  15.1560307  36.6066027  17.2437823  14.9109006  35.1450300
  13.7598896  45.8361197  44.3046331  13.8648069  46.7634630  44.5173788
  13.9084852  45.3818274  45.1339483  67.7011776  18.0811512  46.7786026
  68.1314278  18.9075124  46.5589619  67.1075201  18.3034372  47.4958181
  18.6145782  60.1509666  18.4599495  17.6622796  60.0542879  18.4635222
  18.8942432  59.7374201  17.6432490  57.3571968  38.6574721  56.8628597
  56.9400167  38.8756728  57.6962709  57.6412487  37.7494216  56.9677019
  63.1148386  34.2830539  19.8298979  62.8361511  34.3292236  20.7444668
  63.6919165  33.5202312  19.7935772  66.5766621   4.8608863  22.5297308
  67.3842192   4.4743758  22.1910739  66.7743921   5.7936770  22.6136112
  40.8020544  69.0618086  38.5091019  41.4405298  69.6730566  38.8764644
  40.0327015  69.6008348  38.3252931  57.9531240  38.9019227  51.7644358
  58.4634972  38.0923986  51.7440224  58.5213470  39.5322037  52.2072697
   5.9141338  23.0966377  59.4703388   5.5127501  23.7156487  60.0802135
   5.5404115  23.3230233  58.6186838  64.4577265   5.5554110  41.0461807
  63.8851547   5.2883041  40.3271198  64.0417719   6.3392609  41.4050531
  14.8386979  70.9253073   7.1762246  14.9540186  71.1374283   8.1024742
  14.9611235  69.9770689   7.1306211   9.6561772  32.6445794   1.1145265
   8.9613122  32.8875208   0.5026661  10.1085508  33.4670329   1.3020372
  63.0039883  19.1591430  48.8561153  63.6580896  18.4704411  48.7374830
  62.3886442  18.7977147  49.4940424  51.1226177  12.2466671   8.9619499
  50.3213835  12.3177409   9.4808018  51.8279505  12.2484744   9.6090448
  65.6824636  30.7404113   3.2055649  66.2289810  30.6386352   2.4263375
  65.9909105  30.0607681   3.8048798  59.8172808  18.6791396  27.7549148
  58.9379358  18.3592296  27.9565144  60.2041578  17.9911327  27.2134328
  17.2940469  38.1371021  22.8377199  17.3408747  38.8479424  23.4770489
  18.1062281  37.6467586  22.9648256  65.7266092   8.9914590  36.4504695
  66.0673332   8.3132172  35.8672643  66.1043358   9.8055255  36.1175299
  78.3232355  18.1633639  27.5248408  77.9138994  17.3006344  27.5909710
  78.8042116  18.2638586  28.3463001  74.7742224   4.7838551  44.2070103
  74.6403790   3.8910234  44.5250797  74.1419029   5.3098524  44.6966314
  35.3337932   5.1921779  30.9593749  36.1219978   5.3225172  31.4866066
  35.5202484   5.6411219  30.1348042  24.9973488  47.1929693  52.6310539
  25.2547646  47.5035572  51.7630053  25.7773328  47.3187208  53.1714630
  75.3777313  42.9607773  33.7771678  74.7108603  42.7623653  33.1197882
  76.2062883  42.7386999  33.3524275  78.6274529   4.4370022  11.8493688
  78.0211544   4.5153233  12.5859118  79.4905138   4.5957977  12.2316635
  39.6644282  57.8955746  62.4193668  38.7408161  57.6530313  62.3534489
  40.0958347  57.3840284  61.7349434  54.3897724  35.9195971  10.7100260
  54.8614454  36.6391802  11.1295009  54.7084618  35.1335239  11.1535966
   8.6182994  66.1081505  59.2615366   8.2058704  66.9683552  59.1829205
   9.5560944  66.2843418  59.1858435  42.7237844  71.6103411  37.6341271
  43.2793522  72.3127651  37.2962356  42.9545498  70.8468628  37.1049047
   3.0137199  55.3047323   4.2346266   2.5850710  56.0732603   3.8579887
   3.1045979  55.5128193   5.1645041  67.7662945   9.7452277  42.0171785
  66.9423342   9.4127226  41.6611433  68.2181025  10.1230693  41.2626314
  20.5735588  63.8717794  58.8332176  20.7503891  62.9324198  58.7826204
  19.6318066  63.9298820  58.9943266  20.4447722  35.7313132  62.6419449
  20.0213218  36.5403557  62.3549414  20.0270081  35.5259848  63.4783363
  54.0438128  57.5655508  12.4268568  54.7426987  58.0281019  12.8892827
  53.3572960  57.4503613  13.0838656  15.3658974  38.4813905  55.3824806
  15.7975340  37.6969695  55.7210159  15.9671128  39.1956425  55.5937052
  40.8585739  66.9640350  40.6265354  41.2801266  66.1124659  40.7421207
  41.1777973  67.2763681  39.7799063  21.0319662  29.9451661  48.9853430
  20.6996322  29.6558833  49.8351049  21.2711596  29.1358805  48.5335922
   4.5881012  17.0384121  62.6910496   3.7428957  16.7920303  63.0667543
   4.5512146  16.7200673  61.7890882  31.8119383  72.7538109  40.5721951
  32.1478629  72.8521013  39.6812820  31.6057634  71.8222427  40.6490135
   5.0715679  20.4371142  59.7248173   5.7522810  20.4278302  59.0519285
   4.9824360  21.3600063  59.9626255  17.4207628  17.1821821  44.6575546
  16.4854002  17.0315409  44.5210409  17.7459979  16.3574803  45.0185490
   1.5199259  16.3536119  63.0803585   0.5701718  16.4333320  62.9917955
   1.8548626  16.4822376  62.1929455  40.6022263   0.9901075  63.8463783
  41.3289404   0.3964417  64.0352726  40.8263445   1.7977354  64.3086958
  63.9711571  18.5629523  55.6614017  63.1329536  19.0244281  55.6876230
  63.7980747  17.7271557  56.0946655   6.0877776  19.4959748  22.8051186
   5.2566457  19.1448355  23.1247306   6.6681939  18.7360334  22.7622414
   5.6932038  14.5262539  48.7567472   5.0713861  13.9104319  49.1444778
   5.8892441  14.1581357  47.8951836  14.9296188  39.8808432  52.6799154
  14.2850256  40.4679537  53.0749273  15.1891112  39.2961669  53.3919859
  65.0262165  15.4211688  24.7603965  65.1515388  14.6153796  25.2616262
  65.0821638  16.1198676  25.4122591  76.9456530   4.7920677  40.1640415
  77.2118807   4.2164880  40.8810282  77.5125360   4.5432040  39.4340110
   7.3204762  37.4694157  13.6032546   7.5259322  38.0227780  12.8497219
   6.7387784  36.7945766  13.2533252  77.7032900  58.3298063  11.9142890
  78.0905724  58.8831234  11.2359929  78.2515860  58.4765482  12.6850462
  69.7040653  31.9964314  39.1240430  70.5431461  31.5380597  39.0785599
  69.9062252  32.8232050  39.5620036  38.8721657  20.9329414  50.8332205
  38.9615798  21.8817234  50.9229422  38.7315488  20.6200480  51.7268372
  40.4817629   1.8619214   3.9974520  41.1623049   1.2968752   3.6316413
  40.2833939   2.4826525   3.2963279  11.5688407  44.1536188  44.9664354
  11.7834890  45.0143766  44.6069145  11.8744075  44.1896534  45.8728361
  70.3759766  33.6410928  42.8463316  70.1452398  34.5435882  42.6261282
  70.3689194  33.1805253  42.0072508  70.7662201  63.5916567  14.0747142
  70.3587818  62.8256893  14.4790936  71.2369776  63.2413197  13.3184862
  55.4386759  45.2619791  58.0786562  54.5964861  45.6972027  57.9462814
  55.2267647  44.3285990  58.0900192  10.9177864  38.1265593  34.7388959
  10.7102871  39.0216088  35.0073433  10.0752521  37.7523303  34.4813681
  78.5822725  38.7661982  28.7796474  79.1446590  38.4505153  28.0723286
  77.6946926  38.5477018  28.4955812  53.1511402  26.0680056  27.2648001
  53.9470100  26.4098048  27.6722264  53.0854416  25.1683950  27.5851345
  55.3436852   5.0666755   0.6113082  55.7518673   5.9153265   0.7828041
  54.9545383   5.1594281  -0.2582853  71.6818762  39.3414831  23.1641507
  70.8420038  39.0177035  22.8385544  72.2614288  39.3117166  22.4029255
  13.5825384  28.1948590  44.5176649  14.0776896  28.4899640  45.2818441
  13.2761621  29.0020847  44.1044426  75.7893848  40.2367258  51.9065380
  75.8847475  39.3959713  51.4590168  76.4045620  40.8175135  51.4587927
  79.0725088  38.2552528  57.9780579  78.5512447  38.7929630  57.3819113
  79.9130058  38.7094307  58.0373669  47.0080423  68.6147404  37.2604942
  46.9066954  69.0999842  36.4416575  46.2324381  68.8441181  37.7724075
  57.9847622  16.7363238  33.0142212  58.4493542  16.9123900  32.1960616
  58.5410929  16.1084759  33.4752393   5.2328122  14.4511878  30.2270484
   4.6083865  14.1636014  30.8930945   4.7793561  14.3087137  29.3962002
  42.7714443  14.3831158  53.3216619  43.3184099  13.6513567  53.0360222
  42.4952364  14.8071158  52.5091553  16.5310729  22.8154135  36.1442089
  16.7094326  21.9041824  35.9116650  17.1500933  23.3222747  35.6187224
  68.9927101  27.5129557   7.0955747  68.7341881  28.3083797   7.5610876
  68.1700039  27.0500278   6.9372052  63.1324482  23.4692979  50.6343746
  63.2755280  23.1774712  49.7340441  63.0356836  22.6598358  51.1360121
  46.0081863  14.6617484   0.4576775  46.3756561  14.1416359   1.1722994
  46.5985966  15.4110122   0.3785948  63.3436203  22.6186013  19.4980550
  62.6315165  22.9620719  18.9584541  63.1975698  23.0049181  20.3615713
  36.9221139  11.9543421   8.6800128  36.8861771  12.7529562   9.2064685
  36.0193872  11.6363800   8.6652499   2.9871106  32.4335623  15.8393288
   2.6948062  33.3181977  15.6197584   2.5905770  31.8770194  15.1690674
  45.9066057  63.9977789  22.8509665  44.9849796  64.2458391  22.7781391
  46.3572645  64.8128128  23.0720162  45.3836346  74.3866253  40.1400042
  44.6562433  74.8172522  39.6908998  45.5388689  73.5889435  39.6342015
  20.7334661   7.8300482  18.7249255  19.8604906   7.4424732  18.6622298
  21.2711883   7.3065221  18.1307805  77.8657913   8.1940812  27.7614427
  77.5983763   9.0989757  27.9223323  77.2721052   7.6697236  28.2988572
  75.7454300  48.2153988  44.9692297  76.5785217  48.4615564  45.3712273
  75.1368809  48.9032984  45.2388525   0.9855325  13.2638419  37.5172043
   1.0620054  13.2153523  36.5642977   0.0451639  13.3410060  37.6784039
  37.3734665  63.1946325  17.9973233  37.7645969  62.6951027  18.7140667
  38.1125236  63.6440039  17.5873363  48.4954977  68.6626387  18.7425733
  48.6794567  69.3909359  19.3358469  49.1300869  68.7652922  18.0333531
  12.6190221  38.4207010   4.3084821  13.1705093  38.1784701   3.5645616
  12.2033715  37.6008391   4.5754892  19.0380907  12.7186382  34.7083974
  19.9304450  13.0374515  34.5731473  18.4822714  13.3812726  34.2982602
  59.7766685  37.9677701  46.6738605  60.2218056  38.2713723  45.8827114
  58.8866186  38.3109212  46.5945387  76.3703346   6.3630092  23.8812113
  76.8791008   6.8537927  23.2358265  76.6534328   5.4554820  23.7694812
  61.0151577  70.0724268  29.5179391  60.2769423  70.6105185  29.2320538
  60.6271219  69.4292021  30.1111770  72.8437948  23.2662964  29.2549419
  72.9873228  22.3878765  29.6070886  73.4134054  23.3125234  28.4870601
   0.2374308  40.9511662  15.8162904   0.1681804  41.9033051  15.8860445
   0.8772255  40.8080053  15.1188660  40.9867811  68.8629961   6.0658371
  40.3575039  68.4013224   5.5116713  41.3952398  69.5028019   5.4827040
  57.8622437  65.7078123  31.5052986  57.7044106  66.5477180  31.9364357
  58.3618879  65.2004099  32.1449327   8.0655056  12.9552352  29.1498899
   7.3426241  13.4433818  29.5440817   7.6573497  12.4474680  28.4485960
  72.7882528  11.9652867  12.2177017  72.0562983  11.5319812  11.7787004
  73.1941223  12.5000417  11.5353990  78.4769487  37.8056526  33.2685781
  78.2897234  38.5548544  33.8341546  78.7734795  38.1948185  32.4458694
  24.9161744  52.8328276  51.5480280  25.2252793  52.9356337  52.4480915
  24.0353370  52.4689913  51.6373730  43.6849403  53.7893867   6.1343008
  43.6655188  54.4815779   5.4734522  42.8054094  53.7940693   6.5119714
  18.5303771  62.8092480  35.7066870  19.3317401  62.3080826  35.5554247
  18.6646676  63.2242727  36.5587187  47.3402214  64.4632578  19.7300386
  47.0723343  64.3714237  20.6443882  48.2524824  64.1736841  19.7174942
  61.6412210   8.0431247  19.2581320  60.7190657   8.1350541  19.0185189
  61.9962549   8.9293194  19.1885614  33.9106870   5.8710819   5.1098150
  34.4329572   5.0818056   4.9666125  34.5261574   6.5006763   5.4853654
  46.2524033  66.2317038  54.7189856  45.8846617  66.9540405  54.2098427
  47.1510506  66.1472225  54.4003582   8.0546492  33.7567425  58.4985399
   7.9030001  34.4260359  57.8312492   8.7667227  33.2234097  58.1453514
  21.0167360  74.5297623  18.5011852  21.5440774  74.5417023  19.2999351
  20.9555912  73.6033201  18.2683790  65.3646851  71.5288830  20.6499600
  65.0917006  71.7497349  21.5404272  64.7266483  70.8776188  20.3584218
  17.1099448   5.1005626  64.0166855  17.8456414   4.5528206  64.2904758
  16.3593829   4.7511369  64.4970894  25.1994753  27.9380465  47.2213888
  24.8871279  27.4509335  46.4588976  25.9849358  28.3892584  46.9120502
  33.3401346  69.9143887  38.3377314  33.9459682  69.8460913  37.5998068
  32.4756479  69.9822235  37.9323959   6.0408670  73.0294800  40.8565283
   5.7766271  73.8469648  41.2785816   5.4477060  72.3707867  41.2177944
  76.1247015  42.5538445  10.0589287  75.8646536  41.6478539   9.8922414
  77.0566750  42.5792837   9.8420948  71.6204500   8.8994092   2.8600460
  72.2382021   8.2823306   2.4678296  71.4552832   8.5491896   3.7354299
  20.5642247  69.6850491  29.5001411  21.4496469  69.3923712  29.7160220
  20.3683162  69.2598629  28.6652350  72.6977158  23.7945271  16.7438078
  73.2567072  23.1237745  17.1360457  72.9877520  24.6132541  17.1460497
  11.2071407   5.8103514  14.7420108  12.1408558   5.7922119  14.5320654
  11.1731362   5.7004845  15.6922758  71.2473249  41.4921951  14.1250992
  70.9404373  42.3126411  13.7391925  71.9189215  41.1789894  13.5192192
   8.0348551  67.2734880  52.3186398   7.2304952  67.0267582  52.7751064
   8.1464988  66.5990877  51.6485977  30.3990722  26.1508393  57.4398088
  30.8836603  26.2936091  58.2528448  30.2763414  25.2024817  57.3975134
  48.9876747   9.2301774   3.4014845  49.0133762   9.0388536   2.4639523
  49.6696663   8.6741126   3.7781960   4.5318076  29.3231606  54.9183178
   3.8695616  28.6688304  54.6958017   5.1678395  28.8479781  55.4530096
  20.8020759  59.8108912  24.6041179  20.1320362  59.8508739  23.9217091
  20.9621000  60.7255507  24.8365450  77.7037430   2.4976712  32.0215511
  78.6027718   2.8262672  32.0223355  77.5849962   2.1269487  31.1470819
  53.1141376  70.1392126  25.9683919  52.9388332  70.5951071  26.7915916
  52.4269724  69.4753075  25.9112382  40.9522867  63.4879065  43.4956026
  41.3317585  63.0325174  42.7440310  41.6530991  64.0604019  43.8076019
  75.4575634  32.6484323  36.5420270  76.2379408  32.1219420  36.3686752
  75.5135107  32.8599858  37.4738789  30.0603437  44.1687870  63.5926104
  29.3950963  44.8015356  63.3218622  29.5722437  43.4970522  64.0688086
  76.0188437  33.0747271  27.3459888  75.2867413  32.8256321  27.9100871
  76.0574532  32.3838520  26.6845989  21.1014271  72.1876812   1.9721849
  21.1832500  71.2347364   1.9343913  21.2930679  72.4085712   2.8836197
  14.2511368   0.7099479  60.9688997  13.5907948   0.4158467  61.5963411
  14.9413180   1.0937695  61.5097904  51.5683746  11.5809143   6.4239639
  51.7476034  12.3608410   5.8987743  51.2799549  11.9230366   7.2701305
  46.8295860  21.4200330   3.0632660  47.7850437  21.3807011   3.1054902
  46.5943050  22.1493006   3.6368895  21.7182255   1.2156095  50.8967638
  22.0152259   2.0110589  51.3386726  21.9785309   1.3374352  49.9837303
   8.4864998  41.7771959  60.1153088   8.3080506  41.1924744  60.8518457
   7.7188438  42.3472261  60.0705862  58.2494068  53.5183764  61.4491272
  57.6697779  54.0231466  60.8786249  59.1251087  53.8548899  61.2590170
  57.2000122  17.6601899  27.5283957  56.8444633  16.8256211  27.8338623
  56.5002298  18.0380511  26.9957089  33.0016232  52.1770573  63.3698177
  33.4338284  52.5117683  64.1555643  32.1287918  52.5694180  63.3910131
   0.5859216  61.1013317   1.7318608   0.7744374  61.6800499   0.9930899
   1.2751049  61.2927151   2.3679677  61.0402346  41.1526775  64.0919590
  61.0932064  40.7470512  64.9573469  61.1994696  42.0826674  64.2531919
  77.7747297  55.8859539  10.1383758  77.4566746  56.6990328  10.5307710
  78.1653976  55.4047775  10.8678150  64.1271496   2.9378349  30.9592223
  64.3824530   2.4335733  30.1867127  64.3250704   2.3616548  31.6975141
  24.1717267  26.3654423  45.3946781  23.2282495  26.4107990  45.5496836
  24.3614149  25.4285765  45.3443527  12.9249382   3.8378763  61.6458988
  13.5491300   4.3692356  61.1516571  12.9754984   2.9714715  61.2421417
   5.2657259  27.2950506  59.2953682   4.9141431  27.3920894  60.1803541
   6.1240083  26.8905282  59.4216394  40.8084536  -0.0875755  36.4556050
  39.8712492  -0.2688992  36.3848543  40.9329891   0.7246566  35.9646845
  28.1144857  55.6788063  43.2904053  28.2098031  56.6293907  43.2309914
  28.9056706  55.3324986  42.8776932  75.6315422  55.4188442  40.7484818
  75.6360483  54.8556662  39.9745035  76.3800812  56.0023975  40.6244373
  15.9276628  57.5920105  62.3992443  16.5992832  57.5363016  61.7194986
  16.3435376  57.2216463  63.1777763  43.4070730  59.0755987  49.5694160
  44.3038607  59.2497540  49.2836332  43.0201197  59.9432850  49.6861315
   9.9677557  18.1076074  45.4856062   9.1811013  17.5662220  45.4199600
  10.0545502  18.2915497  46.4209461  64.1107750  23.9736605  25.1625848
  63.6112642  23.1575990  25.1902294  63.7192631  24.5174003  25.8461761
  18.8803649  30.1826692  22.1362925  19.2368805  29.4639730  21.6141772
  19.6507943  30.6243372  22.4935031  70.4749870  21.8760276  59.3292904
  71.3048983  21.8508101  58.8530111  70.4265499  22.7656841  59.6791458
   5.9438896   3.8159809  29.7945976   5.2982217   4.3188316  29.2981243
   5.4528481   3.4613198  30.5357647  42.1648741   9.0657294  32.4580526
  42.5342226   8.5743934  31.7242956  42.7548647   8.8835716  33.1894612
   2.4440092  67.5267506  32.8534389   1.8854934  68.3007479  32.9256725
   3.3350489  67.8756714  32.8303576  40.8913374  26.0363007   5.9245324
  41.6898584  26.2160778   6.4207917  41.1795902  25.4815507   5.1996928
  65.6779623   3.3892009  15.0433266  66.1854696   3.4538698  14.2343223
  65.2405739   2.5398153  14.9844337  33.8463879  72.2488832  42.5990629
  33.3649850  72.5145626  41.8155432  33.2411647  72.4184084  43.3210039
   7.7384484  68.5005379  33.5058331   8.0262810  67.8852844  32.8314114
   8.4075499  68.4389162  34.1875482  41.5729237  70.3238153   3.5876012
  40.9690237  69.9899578   2.9242206  41.1348391  71.0972261   3.9427719
  47.9690170  35.6127095   1.7303459  48.2304621  36.4433098   1.3328737
  48.7934399  35.2014685   1.9900441  43.7978983   4.1675052   7.6050311
  44.6729755   4.0865639   7.2256625  43.8132048   3.5896242   8.3679533
   4.8522776   9.0424955  63.8783979   4.0972653   9.4721293  64.2803955
   5.5367625   9.0870649  64.5460272  17.5947833  47.7006674  61.1814022
  18.2453775  47.4271917  61.8280649  17.4002790  48.6102819  61.4072371
  66.1744356  18.8606977  42.5148678  66.9050503  19.3789351  42.1774292
  66.5755653  18.2646108  43.1473303   6.6414320  68.9317846  39.8635411
   7.1017319  68.2329416  39.3988085   6.4245880  69.5693684  39.1833210
  58.1268644  24.5269346  20.3092170  58.3517218  25.4566979  20.3439903
  57.8239441  24.3871689  19.4120336  71.5461540  53.1963015  48.8441992
  71.0177803  52.6438236  49.4202375  71.7919779  52.6209068  48.1198215
  76.2329769  53.8825369  56.0002327  75.9672928  54.5274115  55.3446531
  75.4164267  53.4577990  56.2630558   3.8834813  19.8202360  43.8636875
   3.2257357  20.1695251  43.2623529   4.6999946  20.2428055  43.5972834
  30.8285069  58.1014538   8.4967571  30.9780002  57.6656199   7.6577502
  29.9179029  57.9000902   8.7123609  65.0621033  40.5927610  12.8968179
  64.6388388  39.8543739  12.4587977  65.9948492  40.3784275  12.8802073
  24.6156883  28.2167387  12.1201050  23.7637568  27.9772806  11.7552710
  25.2513766  27.8229284  11.5225708  21.2937045  47.2704887  22.6055241
  21.9869089  47.6451731  23.1489491  21.0390925  47.9819059  22.0179152
  40.4980087  51.5648317   5.5113971  41.2114859  50.9787321   5.2590680
  39.7915578  51.3596773   4.8989677   9.5256561  59.9604940  42.6667309
   9.1568351  60.7164097  43.1236696   9.9540037  59.4505835  43.3542967
   8.9537483  16.7132235  16.3806963   8.9768362  17.1757686  17.2184014
   8.3129925  16.0141087  16.5107000  43.1728649  42.2966051   6.2358814
  43.3656836  42.7658892   7.0475614  43.3581257  41.3798332   6.4394623
   6.0281271  31.8239427  33.3117104   5.5897367  32.5414491  33.7691259
   6.6385537  31.4663386  33.9564824  55.2337790  65.7224989  50.1514149
  56.0767031  66.0808802  49.8734283  54.7803497  65.5154228  49.3342543
  68.3074570  40.6797838  53.9248037  67.3878431  40.6382704  53.6624718
  68.7785912  40.8787584  53.1156874  27.7253747  60.0321102  19.1386104
  28.5252690  60.4021358  19.5120811  27.4139428  59.4162703  19.8019218
  33.4189439  53.4636259   3.4435284  33.2286978  54.2674732   3.9271301
  34.3612385  53.5002327   3.2793012  72.5689268  24.5324183  20.1110530
  72.9432249  24.9178600  20.9032440  72.7040720  23.5906386  20.2160192
  19.6679592   1.6933700  36.5276551  19.5267129   0.9963460  35.8869982
  18.8978446   2.2555904  36.4436078  58.5199261  58.3762741  13.0202162
  58.5628605  59.3009901  12.7767324  57.6436996  58.2662630  13.3894885
  49.6239376   7.7423972  55.3483486  49.6184111   6.8184114  55.0984478
  49.7250128   7.7324885  56.3001490  55.5388784  10.4130781   3.6254781
  54.6498013  10.7368445   3.7702298  55.4478502   9.4602889   3.6136684
   9.2400354  51.9757938  20.4407096  10.1883471  52.0716715  20.5287075
   8.9524442  51.6473246  21.2925506  10.6364369  12.5244236  36.6262460
  11.5710163  12.3180544  36.6405702  10.2765214  11.9580376  35.9436774
  55.1614761  73.4771633  34.7873592  54.5499325  74.0243673  35.2801180
  54.7885561  73.4343481  33.9068317   6.8606138  31.0145473  55.1019955
   6.1699951  31.5317082  55.5165100   6.4304030  30.5930328  54.3580389
  16.9023514  62.2053146  33.7713623  17.4265325  62.5010443  34.5156789
  17.3068762  61.3791466  33.5067153  57.4654293  66.1014652   6.9196326
  58.1745481  66.5035725   6.4179468  56.8454075  65.7976198   6.2566948
  34.6315241   4.8086989  57.6024628  33.7833571   4.8939431  57.1670580
  34.5769739   3.9765608  58.0723572  33.9723730  42.2882366  62.1831989
  33.1012917  41.8915176  62.1752167  34.5736003  41.5475798  62.1045208
  52.9211998   7.2094065   8.0282056  53.5142231   7.4300992   8.7464297
  52.8709793   6.2536573   8.0441433   1.0224991   9.9616134   9.8237807
   0.2348162  10.3896105  10.1593494   1.4982818   9.6869946  10.6076479
  36.3342047  73.4757090  42.2701502  35.5974483  73.0179596  42.6749754
  35.9672904  74.3110371  41.9806051   6.5512639  14.3498123  38.1032443
   6.7261910  13.6881936  38.7724924   5.9588557  13.9174831  37.4881220
  65.8464813  37.5099301  23.6186576  65.4522753  38.2639551  23.1801581
  65.1479244  36.8560624  23.6451221  25.1156831  35.0959086  56.3275909
  25.3259659  34.9886131  55.3999567  25.7972646  34.6045184  56.7860794
  77.3146915  19.7918892   7.0054650  77.3397970  19.8164880   7.9620194
  78.0795956  19.2718399   6.7590898  14.6244574  35.4600954  53.3493423
  15.4767156  35.8363938  53.5690880  14.0024054  36.1719131  53.4996653
   2.2430436  20.3341961  41.9081068   2.1045834  21.0321426  41.2678480
   1.3656348  20.1262975  42.2292995  74.1099644  71.0213423  61.2235928
  73.9635944  70.3397846  61.8795586  73.2507515  71.1581230  60.8244896
  36.4100933  65.4159307  26.1491466  36.2660861  66.3365459  25.9301639
  36.1666822  65.3484392  27.0724177  26.3083076   5.9426814  59.8311949
  26.9353700   5.4423594  60.3534031  26.0643435   5.3516579  59.1188717
  57.3022079  49.8424864   5.9937358  58.0370331  50.4502010   5.9104347
  57.2001314  49.7179985   6.9373012  37.1770096  46.0323000  12.6279795
  37.6904082  45.2387238  12.4766803  37.1063924  46.4400673  11.7648625
  10.3532696  69.6999598  45.8561563  10.8505523  69.2243338  45.1907825
  10.0397682  70.4842520  45.4057837  35.9692836  71.2290382  57.0368576
  35.5516505  70.4251146  57.3459196  36.7740941  70.9327030  56.6117716
  78.1366968   6.8757290  10.7010949  78.6676407   6.9159800   9.9056649
  78.2784367   5.9915131  11.0391843   3.6859977  59.6993542  11.1426544
   4.2466247  59.1273355  11.6667962   4.2172074  59.9196243  10.3774559
  75.8047771  42.0234966   6.8872303  74.9566603  41.9108057   6.4580101
  75.8848381  41.2629175   7.4628568  13.1404150  35.4586768  20.2858639
  14.0011585  35.5916715  20.6829357  12.6379001  34.9924564  20.9539557
  64.3887472  19.3637490   0.0708753  65.1781750  18.9000273  -0.2084078
  64.0161419  18.8104081   0.7573241  61.4410067   8.0579263  15.3446674
  61.6442776   8.9485025  15.0586832  61.4566851   7.5387341  14.5406616
  15.2204943  24.8552847  17.3107588  14.8305011  23.9890957  17.4284446
  14.6527779  25.2890205  16.6737318  37.2915840  61.9485855  14.7861898
  36.4025164  62.2952604  14.7113132  37.7412987  62.2719812  14.0055454
  17.2567940  45.1197529  59.9931717  17.6085913  44.5247221  60.6552935
  17.3108304  45.9860420  60.3967237   8.2995427  17.4585831  19.0921450
   7.8450799  18.1982028  19.4954538   8.0660164  16.7075932  19.6377742
  41.9575024  57.8124666  41.5035486  41.5713835  57.4468470  42.2994518
  41.3251066  58.4683084  41.2099838  65.7987642  41.3765717  52.1896601
  65.2286005  40.9966469  51.5212250  65.3072548  41.2821054  53.0055809
  11.0815370  72.3153543  61.1884689  10.1616824  72.1842051  61.4184666
  11.2224150  73.2564783  61.2917519  60.8253098  68.9422226  12.2608614
  60.8964586  69.8947001  12.3237455  61.2577057  68.7237310  11.4353156
  30.7290936  50.4807472   9.9796587  29.8181081  50.5167341  10.2712846
  30.7315302  49.8253822   9.2820013  73.6675406  61.5421915  61.5637207
  73.9552402  60.6293678  61.5491915  72.8785467  61.5360451  62.1056461
  31.0051203  14.5323777  64.2264080  31.5267015  14.2002988  64.9570990
  30.2622628  14.9702609  64.6419191   3.7064204  62.5533390  63.5980368
   3.0983475  61.9209242  63.9808226   3.2934159  62.8148365  62.7750635
  20.0722361  37.3844194  50.5983114  20.1496577  37.8946114  51.4045000
  20.9341192  37.4532175  50.1876307  58.5179329   9.1658139   5.9982842
  58.7644911   9.0204841   6.9116962  57.5621462   9.2155719   6.0132003
   8.9064974  21.5232444   4.6722537   9.1057485  21.2217307   5.5586064
   8.4214377  22.3384976   4.7999656  11.5432346  51.8889046  52.5816011
  11.3879120  50.9867239  52.3020124  11.9281971  51.8063641  53.4540796
   5.2743500  61.1794519  38.8044906   5.3884983  62.1251774  38.8983440
   5.4921430  60.8251858  39.6666360  17.3439753   9.4592923  15.7011783
  17.5463820   9.4918859  14.7661912  18.1934452   9.3408251  16.1261451
  14.2355299  56.2404633  64.3256903  14.5857835  56.9765568  63.8239765
  14.9800086  55.9231853  64.8368835  53.3617067  16.1225963  20.6230259
  52.6802969  15.7671690  20.0524235  53.2305622  15.6761467  21.4595175
  17.5823867  69.7469473  27.9036975  17.0179772  69.3212557  28.5490346
  18.2949603  70.1235437  28.4200740  56.7560387  29.5795298  36.9219255
  56.4485693  29.6663618  37.8242302  56.0171890  29.8714733  36.3879752
  44.2441559  11.1714160  60.5375290  43.7713480  11.1747146  59.7052574
  45.0173521  11.7120361  60.3758860  60.4477262  18.7249494  38.6003971
  61.3254452  19.0276062  38.8332844  60.4944992  18.5558689  37.6594114
  70.9300423  40.9615898  19.2307270  70.8461571  41.3811636  18.3744860
  70.9642935  40.0249958  19.0361726   6.0663897  29.4241428   1.5170309
   6.9203144  29.0106201   1.6436946   5.6025350  28.8376498   0.9194542
  56.9324303   5.0317407  39.1059327  56.8477011   5.5941755  38.3360505
  57.6385880   4.4252434  38.8829279  20.1182485   2.8799009  47.6546764
  20.7783556   2.2136584  47.8460217  20.5640554   3.4999856  47.0776320
  61.5717030  71.5916109  42.3579359  60.7014465  71.2949228  42.6241207
  62.1747589  71.0046482  42.8140354  38.7884903  63.0781651   1.5182316
  38.6137176  63.3658171   0.6221597  38.0808401  63.4626865   2.0355394
  57.5937319  59.2124510  23.6673379  58.0261230  58.9356565  22.8594685
  58.1295061  59.9372721  23.9895439  21.4864278  51.0186052   2.9661730
  21.6406155  51.5851068   3.7221697  20.9238505  50.3202724   3.3009478
  53.2604170  73.4085894  11.5907383  52.9221058  72.7433634  10.9913611
  54.1648579  73.5467243  11.3094199   6.9440675  67.9998112  16.0218358
   7.7687567  67.5140429  16.0340250   7.2026980  68.9067316  15.8580220
  67.8931332   5.3780603   4.9313748  67.4290085   4.6409357   4.5345563
  68.4963608   5.6758320   4.2504355  45.6964874  71.5718079  61.7696047
  44.8631573  71.2192631  61.4573431  46.0270739  72.0903730  61.0360956
  41.4256048  58.4783983  33.8837266  41.2633419  58.0799103  34.7387743
  42.3211956  58.2205582  33.6653948  24.1637921  12.0198679  60.2470064
  24.9677324  11.6465354  59.8857164  24.0127254  11.5277088  61.0539722
  67.4867010  32.3058033  25.9198594  67.9424715  31.8464518  25.2145219
  67.5886250  33.2333779  25.7066727  41.3393068   8.9495176  48.7776899
  41.9065094   9.4366264  48.1799984  41.3442278   8.0550337  48.4369469
  43.5546732  65.8175564  52.2067738  44.1956520  66.5139246  52.0637798
  43.2675600  65.5720139  51.3272810   3.9737585  30.2251577  20.1576090
   4.9021745  30.4450512  20.2345729   3.6354247  30.8391571  19.5058668
  75.1745987  37.8385782   7.2218990  76.0451746  37.4515319   7.3142242
  74.5899868  37.0890713   7.1092087   0.0715320  14.1666806  13.6364746
  -0.4631510  14.1845906  12.8427339   0.4603994  15.0400901  13.6830676
  74.6063185  10.4025590   1.6604964  75.3060627   9.7874701   1.8801636
  73.7989140   9.9147618   1.8229228  29.5955014  58.7599564  21.5011334
  28.8036036  59.2053318  21.8024182  29.3608809  58.4092426  20.6419563
  52.7418852  11.1597610   3.3261022  52.5089693  11.8994153   3.8872546
  52.3274231  10.4037821   3.7419710  14.2483115  37.1599221   2.6801002
  14.0437365  36.4439511   2.0786294  15.0061059  36.8480372   3.1747800
  52.5058794  36.6197920  21.6105747  51.9184494  35.9603977  21.9798350
  52.9080057  37.0361519  22.3729205  75.0460720  41.5615273   3.4882158
  75.0272942  41.5341139   2.5315928  74.9492598  42.4892378   3.7031877
  22.0414257  70.8123446  11.6005254  21.5222669  71.3472080  11.0000050
  22.0691061  69.9485588  11.1890161  68.0419397  22.5402594  38.5316610
  68.0742979  21.5843129  38.5684323  68.8484716  22.7900410  38.0807233
  42.5246334  66.0899258   2.4207664  42.6811361  66.1026287   3.3650005
  43.1282997  66.7442656   2.0691088  70.1793432  40.7765341   5.7891393
  70.6890774  41.4907646   5.4066765  70.6263876  40.5769539   6.6116673
  70.6580019  59.9282455  39.7760987  70.2610350  60.5201864  39.1371536
  71.5784693  60.1892996  39.8048854  29.0131426   4.2935908  44.3787193
  28.9386487   3.3518600  44.2243624  28.2287312   4.6652240  43.9752054
  39.4761467  49.1117859  20.0708318  39.9338627  49.8299980  19.6339107
  39.8417735  48.3198071  19.6767235  11.6650283  58.7232351   0.1162249
  10.8459318  59.1801214   0.3074505  12.3368239  59.4028807   0.1710647
  73.2420778  41.9111586  17.6505649  74.0323305  42.1874285  18.1146884
  72.7248430  41.4506912  18.3113754  54.6024752  12.8288388  12.9061985
  54.6368074  12.9040337  11.9525743  53.9685583  12.1302915  13.0687058
  52.7297211  64.5925283  55.7670975  52.8800869  63.6667538  55.9583235
  52.0582294  64.5902014  55.0849533  25.8927417  32.7021599  54.7685575
  26.0847330  33.5932779  54.4765329  25.0098562  32.5281715  54.4422531
  13.5719037  60.3073072  13.6334074  13.9508247  61.1572695  13.8574874
  12.6315963  60.4739952  13.5680711  45.5067682  56.9079542  29.2344832
  45.6942225  57.0811605  30.1570296  46.2702036  56.4224052  28.9220119
  68.6456060  40.9959269  27.1255755  68.8384390  40.7126570  28.0193329
  68.8745785  40.2428055  26.5809584  70.4966879  37.4943972   5.0170648
  70.5197906  38.4203744   5.2584469  71.4151287  37.2247958   5.0136036
  74.3617630   5.5750656  58.3246565  73.7735701   5.8283597  59.0360641
  73.9060116   5.8480024  57.5283957  58.5013628  24.3727493  49.3968582
  58.6169577  25.2301502  48.9873075  58.9448833  24.4490981  50.2416611
  64.4096375  44.5971966  57.9717302  65.2733707  44.8066139  58.3271837
  64.4802141  44.7960758  57.0380831  74.5438051  32.0216751  29.4472599
  73.9642239  31.3605857  29.0687394  74.3895578  31.9638133  30.3901744
   8.0944151  56.3783741  62.8183746   8.1240571  55.4730320  62.5089931
   7.1790880  56.5188599  63.0605936  61.2265778  29.0586376   1.4730525
  61.6400671  29.1500235   2.3314872  61.9033813  28.6658406   0.9218009
  47.1381378  49.2164373  10.1318049  46.4517593  49.4966412  10.7372808
  47.4941063  48.4197998  10.5253637  61.7536545  54.7189188   7.6245373
  61.3500977  53.8891602   7.8792524  61.5097237  55.3278446   8.3216310
  74.9631166  31.6263103  23.3917165  74.5802641  32.3953748  23.8138461
  75.9044981  31.7151856  23.5404873  71.4361286   9.8905265  22.1864581
  72.2316313  10.0569856  21.6807914  71.5984726  10.3076601  23.0325508
  42.2171640  63.7539148  26.1863494  41.3239717  63.9189291  25.8843446
  42.4442816  64.5303535  26.6980028   8.8382804  21.3648677   7.8191936
   9.5404065  21.3818455   8.4695500   8.2312000  20.6977177   8.1395000
  52.9186487  24.9106359  53.0462694  53.4451008  24.5911860  53.7790918
  52.9113007  25.8618021  53.1533289   8.1273437  54.6515656  14.9778545
   7.5826019  54.8679876  15.7345903   8.4326351  55.4984140  14.6524668
   1.6484903   3.7685069  62.4723196   1.2800209   3.1600717  61.8317986
   1.0325210   3.7473500  63.2046890  61.3493919  55.4682446  19.2536557
  61.5930367  55.5112267  18.3289826  61.5998268  56.3217545  19.6072578
  77.8839159  40.7626724  26.1581540  76.9477272  40.7094717  26.3503909
  78.1470108  39.8567200  25.9960938  47.0111465  65.8180571  58.9263821
  46.3087130  65.1790237  58.8061571  46.6236877  66.6524553  58.6620235
  62.3230648  16.7021036  62.1145821  62.8627634  16.1454511  61.5532494
  61.7612982  17.1825457  61.5064478  31.8219137  45.6676912  30.4461193
  32.0905280  46.4939880  30.0444794  31.4230013  45.1722383  29.7308397
  45.3959274   7.2923434  57.5811052  45.4509592   6.8098402  58.4059620
  44.5725489   7.7767402  57.6414490  24.5791936  62.4036598  42.0772028
  24.1489339  61.5486145  42.0772886  25.4355335  62.2409153  42.4727106
  52.7346277   5.0260806  53.3786249  53.4386587   4.9574840  52.7337503
  53.1366920   5.4688203  54.1259909   8.9725119  60.6112814  19.7198594
   8.0373120  60.6158304  19.5158660   9.1419274  59.7279549  20.0473595
  68.3850813  67.2405767  29.6297026  68.3119297  67.8366041  30.3751111
  68.8776016  67.7353668  28.9748430  51.7377615  27.2458243  49.8092890
  51.4080763  26.3703108  50.0118113  52.4101448  27.1005225  49.1436863
  78.2500744  18.0599999  24.8319459  77.3340607  18.2231688  24.6071839
  78.2481766  17.9548192  25.7833481  62.8632021  17.5074613  44.6227169
  63.3929300  18.2683635  44.3847084  62.1766233  17.8610408  45.1882458
  15.1236939  28.8097620   6.8837899  15.5338585  28.5855222   7.7190822
  15.0092125  27.9694462   6.4399487  25.5982232  46.8809175  11.4362001
  25.4256511  45.9667397  11.2109697  26.5093565  47.0229435  11.1794996
   4.7393000   7.1571189  20.1905537   4.4146374   8.0508548  20.0807261
   4.0382320   6.6036421  19.8464632  34.4006658  -0.0855194  51.9841766
  33.7394977   0.0828659  52.6555443  33.9659739   0.1329095  51.1598206
  45.3618860  53.7101364  63.8598871  46.2054729  53.9145613  64.2633677
  44.7219419  54.1878414  64.3876219  38.4728575  19.6045399  53.2033539
  38.3446240  18.6578882  53.1430292  38.4147429  19.7949266  54.1396284
  78.6898279  42.7990961  47.6362276  77.7688980  42.6505041  47.4216509
  79.0770054  43.1190586  46.8213940   6.5241915  66.8200016   6.6538191
   6.8630195  65.9918737   6.3137627   7.2370458  67.1687269   7.1890378
  10.5812204  44.3742800  17.1957695  10.6305826  43.4530640  17.4510229
  10.6477797  44.8552799  18.0206597  31.7478895  51.5094900   1.9406305
  31.8573403  51.7095280   1.0109872  32.2149467  52.2117329   2.3933381
  37.4555659  15.3707242  26.8801188  37.5955534  15.6932700  27.7704000
  38.3339167  15.3190553  26.5032101  52.9077339  13.3503008   1.5867317
  52.1269274  13.8358533   1.8528327  52.8736305  12.5424957   2.0990972
  66.0889912  22.1556306  29.4203711  65.5502415  21.5304661  28.9354396
  66.9895363  21.9154716  29.2022634  23.8066745  41.8333006  10.3302610
  23.7109208  41.2249708   9.5974600  23.0805278  41.6189718  10.9159255
  53.5773325  74.8536730  18.6236036  53.6965656  73.9156866  18.7725723
  53.1994963  75.1797819  19.4403827  23.4976459  64.9607897  41.7644405
  24.3176079  65.4504251  41.8288612  23.7418151  64.0572691  41.9650888
  12.0438230  34.1004896  51.2065506  11.1989987  34.2916107  51.6139555
  12.6907647  34.3785906  51.8549013  14.6145415  70.2909708  24.8009324
  14.8805881  69.7242165  24.0768862  14.7837722  69.7711372  25.5866575
  62.3942471  34.3020034  22.6295209  62.2972202  33.3498931  22.6468778
  61.7316484  34.6214843  23.2419991  27.7885962  59.2515945   4.4789124
  28.0972409  59.4955301   5.3515327  27.1662569  58.5412407   4.6348804
   8.4919220   8.0164140  61.7563295   8.5343522   8.5430694  62.5544930
   8.1695747   7.1638829  62.0487595  75.2268982  15.6743300  57.3697615
  75.4537964  15.2839005  56.5257740  74.3213987  15.9657776  57.2631407
  53.3175468   9.2684782  51.7140150  52.8164291   8.9337718  52.4577141
  54.1938162   8.9014667  51.8310165  63.1886435   0.7046887   0.5813663
  63.3589697   1.6335180   0.4248505  63.0080509   0.3446561  -0.2869627
  13.4572709  34.4927549  55.8646870  13.6260879  34.0456367  55.0353384
  14.3263757  34.7178626  56.1966705  59.5976353  65.4359627  46.8273211
  58.7757826  65.8966827  46.6584206  60.1597500  65.6703520  46.0888624
  76.0146618  66.5825939  34.5431995  76.9090176  66.7924643  34.2742825
  76.0906935  66.3528776  35.4693103  20.1997495  32.0417547  52.2542572
  20.4714799  32.9261541  52.4996805  19.4592988  32.1742940  51.6623163
  60.8571434  20.5769658  31.9856763  60.1017618  20.9071660  31.4992595
  60.5986166  20.6451702  32.9047775  22.1876144  20.7235217  18.0141819
  22.3143101  20.6197691  17.0710945  21.8180799  19.8879158  18.2995617
  23.9330125   5.6944227  45.7819891  24.7519779   5.8040220  46.2652254
  24.1092181   4.9787498  45.1712561  18.4130251  16.4016664  38.0455613
  19.0761077  15.8562601  37.6223779  18.9113426  16.9791365  38.6238694
   7.8146321   0.5385983  61.4992142   7.1550316  -0.0095743  61.9242620
   8.4570938  -0.0824001  61.1559391  35.5246449  63.1827497  12.6093376
  36.2883830  63.7597561  12.6082218  34.8353338  63.6986208  13.0276215
  44.0319824  37.7733111   0.5093630  44.5780325  38.5454774   0.6570704
  44.1391230  37.5787449  -0.4217099  49.8702717  30.4634786  39.2884088
  50.3220463  30.9184337  38.5776687  48.9976931  30.2812290  38.9396667
  19.0462911   9.7578329  13.4177041  18.9732289   8.9032286  12.9927981
  19.8041964   9.6736497  13.9962566  29.5981503  15.9641838  55.8693695
  29.0004253  16.6898453  56.0492897  29.2364740  15.5437803  55.0891876
   1.9371565  30.0646496  53.5824728   1.1909571  30.6490135  53.7163925
   1.9878539  29.9546623  52.6329660  62.2292328  44.9538279  59.8487997
  62.9594278  44.9107742  59.2313862  61.8345213  44.0824890  59.8140669
  74.9174023  11.6765785  23.0844474  74.3539858  11.2234592  22.4571729
  74.5908785  12.5763214  23.0932784  16.4316154  14.4425344  12.5826526
  15.8225441  14.1669691  11.8975770  17.2836256  14.4731867  12.1474862
  30.4622459  46.6361713   6.0229635  30.0390100  46.1077261   5.3463161
  31.1133504  46.0516214   6.4110380   4.5164222  11.8850541  18.4387207
   5.2229559  11.8380845  17.7946424   3.7947050  12.3066461  17.9722261
  39.2534161  52.9669619  19.7199178  38.9775920  53.6587811  20.3211975
  40.1004648  53.2629871  19.3865907  25.8260775  68.5684538   9.0305984
  26.7348075  68.3611536   9.2484701  25.4428983  68.8630152   9.8568177
  68.9247704  49.0828514  62.2961473  69.3823051  48.9524078  63.1267405
  68.1771612  49.6374893  62.5190544  15.3098619  32.5038552  54.6553040
  15.8309245  31.7951226  54.2779160  15.0371933  33.0279112  53.9021492
  68.0820465  11.8603492  64.8094845  67.6620388  12.5156021  64.2522860
  68.7253141  11.4384413  64.2398977  55.3136730  20.1884604  55.4676867
  55.9862471  20.7918644  55.7835722  54.5065260  20.4898906  55.8846760
  78.2424068  59.3867111  56.7112064  79.1914892  59.4936943  56.6476774
  78.0791426  58.5004807  56.3884544  53.5228777  32.6753020  57.0405102
  52.9377031  33.3069253  56.6223526  53.3063316  31.8389130  56.6284466
  33.0234551  52.0769787   9.2979205  33.4275341  52.5657606  10.0148892
  32.0950031  52.0386314   9.5275688  43.8816881  45.8271980  50.5382252
  43.6305714  46.6538429  50.1261091  44.5215178  46.0766506  51.2050247
  57.0247030  69.1072893  49.2724657  56.4816284  69.3874073  48.5356951
  56.4227390  69.0777159  50.0161028  59.9557209   2.2363867  35.8687353
  59.5607662   2.9077992  35.3124547  60.8409166   2.5577214  36.0402226
  22.9201365   7.4083090  40.8589268  22.5028372   8.2649356  40.7679033
  23.4614539   7.3210073  40.0743341  26.2906861   9.2292470  54.6584702
  26.6579080   8.5782546  55.2564573  27.0438147   9.7500455  54.3795490
   8.4489918  30.8247113  40.6995392   9.1927743  30.6599212  41.2790775
   8.0146277  31.5887880  41.0786819  25.9011436  57.9193830  15.2681541
  26.5868044  57.9975033  15.9314787  26.2085867  58.4606314  14.5409930
  23.7026620  41.6125679  28.5999060  22.7485538  41.5427446  28.5678005
  23.9036298  41.7225552  29.5292854   4.9149385  36.5078807  45.3033733
   5.1621127  36.1880565  46.1710453   3.9594311  36.5582180  45.3298998
  16.3360536  50.4490566  34.0784621  16.1482978  51.0671854  33.3721352
  15.8850968  49.6454000  33.8196087  19.7257543  60.2847576   4.3620139
  19.5329988  59.3627787   4.1916251  20.4297256  60.2664280   5.0103343
  31.0073066  63.5375309  26.4847636  31.8816257  63.2868910  26.1864638
  30.4491496  63.4200525  25.7160687  40.9480667  57.7126026  14.2540705
  40.6124449  57.3974895  13.4148479  41.8729496  57.8955460  14.0886831
  11.2441993  68.3096790   0.4222272  10.9509599  69.1834450   0.1638124
  11.0276949  68.2498217   1.3526976  56.8819427  26.3703108  43.6340761
  57.0032454  26.8334508  44.4629383  56.8701172  27.0621228  42.9726458
  45.1416159  72.8303671  43.1120205  44.8458719  72.8225136  42.2016907
  44.3858814  72.5220251  43.6120462   5.9162831   9.3219322  47.2804546
   5.1618391   8.9306927  47.7208853   6.5233374   8.5930341  47.1522951
  69.5889139  34.1191387  61.9111156  70.2090788  34.8422885  62.0042801
  70.1342535  33.3618736  61.6980839  29.1406775  70.5718470   8.3892918
  29.9275994  71.0621166   8.1513458  28.9308500  70.8704805   9.2741764
  24.3787026  55.5117559  53.6195040  23.9956021  56.3611412  53.8386154
  23.6308265  54.9688387  53.3702087   2.9843813  34.0336633  11.4243031
   3.2509667  33.1146789  11.3991880   2.0841992  34.0131283  11.7490840
  24.5672584  45.9260416   4.5066962  24.1999698  45.8324909   5.3856611
  25.5143833  45.8776236   4.6364820  47.7882290  15.3780055   8.9588392
  47.2835684  16.1164093   8.6177969  48.5863495  15.3689706   8.4304875
  65.0678873  57.7835703  56.5186787  64.3502617  58.3805370  56.3068438
  64.8241806  57.4065638  57.3640823  24.0138984   4.6531478  61.7728233
  24.1130733   3.9783475  61.1012268  23.5078406   5.3440428  61.3452721
  77.7535343  12.5014722  33.7533474  76.9472933  12.3355055  33.2648206
  78.3762217  12.8038657  33.0922508  68.3458900  16.7119908  51.7510605
  67.9662752  15.9442914  51.3235521  68.0234671  16.6687489  52.6512861
  38.6403108  34.0201616  60.3410482  39.4646931  33.5683107  60.1608896
  38.2660198  34.1893840  59.4764662  60.4957294  36.3059807  48.6152124
  61.4420080  36.1630273  48.5963440  60.3297710  36.9070172  47.8889608
  72.3160315  30.5654430  24.2300677  73.2064104  30.6490159  23.8887954
  71.8024588  30.2526307  23.4853363  31.4867210  62.9563618   6.1694819
  31.7410874  62.8625822   5.2514762  32.2055626  62.5567913   6.6592199
  71.8417549  26.9590020  18.4044194  71.1789227  26.4700246  17.9167891
  72.3713875  26.2850499  18.8304603  53.1954384  25.7798696  64.7717905
  54.0580702  26.1494613  64.5833778  52.6260185  26.1427212  64.0933180
  21.3101673  16.2995446  49.9471331  20.4007983  16.3449466  50.2424622
  21.8242145  16.2938225  50.7545710  74.3658209  62.2051239  19.2393255
  74.4842768  61.2615776  19.3485379  74.4775581  62.3534393  18.3003104
  69.8548985  12.5111127  59.6664000  69.0676069  12.7586806  59.1815233
  69.6181202  11.6949940  60.1069880  53.2104492  66.4535570  31.8623376
  53.3843327  65.5988121  31.4681172  52.5842428  66.8681145  31.2688398
  41.8101645   6.3937926  47.7472830  42.4929142   6.1670005  48.3786726
  41.9099808   5.7507890  47.0452785  15.0844848   3.1228635  64.7780085
  14.2075980   2.7421704  64.7292805  15.5506015   2.7470255  64.0312099
  57.2267532  56.8693256  10.0253725  57.4992275  56.2226105  10.6763315
  57.9588509  56.9131327   9.4102710  18.4457374  15.6357777  50.1649284
  18.4996581  15.0206923  50.8963633  18.2216895  15.0913560  49.4101858
  11.4942801  58.0554581   3.5856494  11.7697430  57.1417522   3.6597449
  11.3697040  58.1926632   2.6465604  29.0760708  51.0365629  38.0415297
  28.7367344  50.2304935  38.4305406  29.2252040  51.6180229  38.7871146
  56.0512018  73.3731937  16.9726622  55.4964066  73.0945921  17.7012312
  56.8369579  72.8319597  17.0493710  78.9389896   5.9128380  35.9090066
  78.3625126   6.6769183  35.8996987  79.1367388   5.7507467  34.9865890
  48.9217377   5.0080198  54.8183346  49.0732574   4.3700734  54.1209841
  49.2538500   4.5823002  55.6087112   0.6967277  27.8641796  15.1087391
  -0.2369929  28.0747557  15.1161528   0.7785049  27.1171880  15.7016540
  61.9206238  29.9034309  31.1203337  62.8505325  29.9729085  31.3363695
  61.4731503  30.3412509  31.8444300  43.0398893  26.0810924  50.4424858
  42.4958038  26.8051171  50.7523108  43.7697506  26.0482740  51.0609150
  25.0216174  45.8245897  30.1305723  25.4673100  46.4110374  30.7418537
  25.4094672  44.9654531  30.2969694  49.5781040  74.2894888  46.8599558
  48.8319254  74.8771763  46.9785833  49.3547058  73.5123396  47.3721743
  14.2417479  41.4633846  39.4278884  13.3740461  41.8627262  39.3658090
  14.0739453  40.5724001  39.7348428  39.4821477  57.6403332   1.0768405
  39.6518993  58.5538387   0.8467939  38.7584949  57.3802853   0.5068086
  20.9334731  22.9442525  43.2279491  20.7007813  23.8123012  42.8984356
  20.1088214  22.4582720  43.2258177  26.8661690  59.1423893  22.2781348
  26.0929751  58.8979578  21.7695522  26.5179133  59.4169998  23.1263924
  12.1554196  29.1323328  58.5489750  12.8597546  28.4912825  58.4530783
  12.5142717  29.9394226  58.1801128  77.7918339  30.4416060  50.0403452
  78.3800077  30.2570701  49.3080664  78.0637789  29.8312020  50.7256794
  60.8963919  52.6681042  22.2599769  60.3325844  51.9116974  22.0981002
  61.3371229  52.8215361  21.4242458   4.5071688  25.3082967  46.0373449
   4.6637613  25.5038881  46.9611692   5.2291572  24.7309685  45.7890320
  52.8182793  42.5075960  15.1671112  52.5671911  42.5078297  14.2434299
  53.7495136  42.7289677  15.1622283  47.4810791  50.2039146  62.4519253
  47.0623922  49.7692490  63.1948900  48.2399940  50.6476212  62.8306103
  29.9095750  53.6001730   3.2299164  29.2980838  53.0037880   2.7978981
  29.3652463  54.1050243   3.8341185   8.1025916  42.4136877  57.2455883
   8.9107835  42.8383350  56.9579554   8.2954669  42.1067905  58.1314993
  53.8318682  19.4142795  11.3473272  53.5850763  19.4959378  10.4261029
  54.3731976  20.1847100  11.5194631  30.5579638  61.7042923   3.3828756
  31.5089154  61.6907454   3.4912348  30.4139471  62.2312498   2.5968692
  35.1490378  65.9823322  20.9555578  35.9888721  66.3559008  20.6884336
  35.3601480  65.0897074  21.2292147  27.8643513  68.3565903   5.2690482
  28.4627652  68.5900640   4.5593834  27.0355964  68.1648016   4.8301715
   2.9556435  35.4698801   5.5098677   2.9336867  35.9584284   4.6870238
   2.8574380  36.1382914   6.1879635  51.8302536   7.8117919  10.8726406
  51.1715412   8.2005864  10.2971697  52.4928856   8.4950513  10.9741628
  70.7588720  21.9370747  25.3442621  70.9481192  21.0593319  25.0126219
  71.6198158  22.3219919  25.5080962  13.6046731  49.0987349  55.3514814
  12.7718401  48.6559343  55.1885414  13.7047338  49.0780640  56.3032150
  47.3656511  47.4237013  17.4431098  46.7803669  48.0872679  17.8082919
  48.2118511  47.8650284  17.3695982   2.9745921  48.4396362  26.6653800
   3.4689170  49.0096331  26.0763288   2.0655051  48.5308456  26.3799429
  41.9644260  55.8791351  58.0921316  41.3660097  55.7250214  57.3611164
  42.1880627  56.8075562  58.0269480  46.6749811  42.0723486   9.1080397
  47.0624685  41.3764763   9.6389258  46.9487858  41.8715143   8.2130945
  70.3258181  60.0707626  20.7295966  71.2063456  59.9366426  20.3789973
  70.2260828  59.3888521  21.3938856  22.0740032  71.9884253  47.2392368
  23.0091882  71.8548775  47.3935938  21.7676616  72.4571705  48.0155516
  54.3772793  58.9702654  16.7757976  54.0024567  58.9418507  15.8954942
  55.3156805  59.0933800  16.6326976   3.3587945  56.0461283   6.7776173
   2.5817618  55.9976530   7.3344857   3.6166888  56.9674969   6.8059778
  63.4849024  72.2501183  22.4421000  62.9739141  72.9237461  21.9933867
  63.2661200  71.4386511  21.9839644  77.1579456  60.8760929   0.8557116
  76.9846582  61.8009615   0.6801698  77.9177189  60.8810663   1.4379103
  69.2118931  18.1639087  54.2284012  68.8630819  18.9213455  54.6983528
  68.6384678  17.4403489  54.4811392  51.8926525  14.0872717  16.1189783
  50.9527349  14.1273415  15.9423947  52.3022079  14.3712640  15.3017604
   1.7087254  53.8711596  39.2401576   2.3575351  53.5225439  38.6288118
   0.8978939  53.9093256  38.7328839  46.2851763  58.3679008   5.7545251
  45.6546402  58.0648565   6.4078391  47.0494318  58.6351013   6.2651592
  59.0296841  40.6098127  22.6086235  59.6797705  40.8577919  23.2659864
  59.2717028  39.7186303  22.3567176   2.4421374  52.8942871   8.7550652
   2.6219916  52.8158092   9.6919358   1.5667197  53.2788658   8.7106270
  56.4445305   7.4102914  55.2109623  57.3107147   7.0038992  55.1826620
  56.3688278   7.7510053  56.1022615  69.3207645  10.8993447  -0.0292019
  69.5553303  10.0075686   0.2276009  69.6812248  11.4511299   0.6649408
  39.6911097   7.3821133  11.0225546  39.6726656   7.3324829  10.0668204
  40.5634880   7.7181560  11.2281466  66.3631010  30.3070068   9.3971634
  66.8826771  29.5040798   9.4369417  66.8688011  30.8918190   8.8328105
  21.8705297  61.2345123  51.2997103  22.3980331  61.4249516  50.5240154
  22.3971009  61.5549326  52.0320225  36.8670964  16.3867652  10.8069026
  36.4344621  15.5462539  10.9572375  36.2274694  17.0396292  11.0912955
  14.4600713  25.0251937  41.2888050  15.2689993  25.3726053  40.9130764
  14.6917450  24.1443992  41.5833521  61.0682821   9.7911203   1.3264997
  61.0066938   8.9387900   0.8952558  60.2722216   9.8503739   1.8547103
  65.7015657  35.9465051  12.8115416  66.5701675  36.2328744  12.5291359
  65.5666780  35.1120806  12.3623466  67.6343918  16.2970090  15.5849123
  67.4315357  16.0712814  16.4927280  68.4177303  15.7863271  15.3804302
  71.2034273  60.2540779  11.1655211  71.3298416  59.9067545  10.2825618
  70.4287958  59.7975826  11.4938343  31.3694501  16.9102764   7.8611022
  31.4165854  16.4496779   8.6988729  31.6293025  17.8083265   8.0665660
  51.9798136  25.3246570  46.1028576  51.9635344  25.3623962  45.1465368
  52.9025221  25.1945567  46.3217497  19.2477190  63.3539009   4.5647714
  19.5149589  62.4355793   4.5260742  18.6646020  63.4654999   3.8139364
  15.5584347  50.8602190  59.7955084  16.3597822  50.9004116  60.3174829
  14.8933017  50.5354357  60.4024220  18.8782322  24.0705609  63.5826206
  19.3581939  24.3402600  64.3656492  19.5436788  23.6791253  63.0167675
  76.3332129  15.1815748  45.2837181  77.0470667  15.0774217  44.6545935
  76.4502192  14.4590116  45.9005165  31.5402675  65.6512117  22.7513099
  31.8644476  65.8250189  21.8676066  31.7988157  66.4216280  23.2571173
  18.2449889  17.3352635  32.9179192  18.6523318  18.1738782  32.7010608
  17.3603404  17.5650942  33.2021809  48.1651497   2.5682461  32.3928380
  48.9527559   2.7218851  32.9146671  48.1389189   1.6189945  32.2725677
  19.7227144  47.1546459  55.0538635  19.8643172  46.7358112  54.2048883
  20.4247570  46.8147469  55.6086922  53.6812830  58.1442070  57.8234816
  54.6069527  58.3877563  57.8160763  53.6148310  57.4359798  57.1829891
  23.9343858  11.7832649  52.9731894  24.7915196  12.1687758  53.1546640
  23.8859439  11.0232806  53.5531139  41.1135054  67.0977688   9.9334085
  41.3240910  66.3378572   9.3908012  40.8277655  67.7654791   9.3099135
   8.9840692  18.0934048  40.0228930   8.4564340  17.6803839  39.3393397
   8.4425277  18.0373383  40.8101797  65.1377392   5.3360498   5.6908685
  65.2629900   5.0007343   4.8031145  65.7207012   6.0932964   5.7453436
  37.2678423   4.7748172  40.0945997  37.4166012   3.8808566  40.4027176
  36.3167048   4.8448592  40.0129604  24.6933627  38.2460928  50.2555180
  24.6292591  39.1023016  49.8324013  25.0827265  37.6786876  49.5901728
   5.2547586  25.0003743  61.4048147   4.5880735  25.5310774  61.8408346
   6.0040104  25.5883169  61.3090181  70.0308180  12.1195221  13.4856176
  70.6946898  11.8568683  14.1232109  69.3882275  12.6107514  13.9974785
  60.4290295  47.9651308  26.8926358  60.4889774  47.0126343  26.9659972
  60.2819157  48.2656384  27.7894568  38.4848571  55.4397678   6.4045155
  39.0206957  56.2310123   6.4596599  38.5243344  55.1875782   5.4819781
  10.2058733   7.8022039   4.6116892   9.5013261   7.5546408   5.2104855
   9.7817630   8.3618569   3.9611888  63.6681271   4.2054954  23.1800866
  64.5523643   4.3000630  22.8259587  63.7753963   4.3159261  24.1248250
  43.2568359  66.5018559  20.4040551  43.4724998  66.0067320  21.1943555
  43.2902861  67.4181414  20.6788850  20.7830358   9.8895764  54.3952560
  21.6879368  10.0415027  54.6678448  20.7956719  10.0091422  53.4456348
  46.0264826  20.2754378  47.3585606  45.3714848  20.9706545  47.2962379
  46.0771799  20.0772643  48.2936478  19.0021014  38.0959058  55.2306223
  19.7236824  38.1680274  54.6058416  18.7550676  39.0017390  55.4168224
  75.6237984  16.4251041  22.1577764  75.9056568  15.8023357  21.4877415
  74.8813581  15.9977436  22.5848317  14.5312285  36.9609976  63.1130171
  15.2648687  36.5137410  62.6911545  14.8801553  37.8193498  63.3532476
   1.9681446  38.5895971  64.6817416   2.0420973  38.7553937  63.7419149
   2.8720562  38.4826174  64.9779353  46.2968016  71.0147953  26.9789100
  45.7326746  70.3959990  27.4426842  46.1140108  71.8598175  27.3897123
  16.8891251  44.0499115  63.1915855  16.6703033  43.3574867  63.8151979
  16.0857379  44.5643759  63.1132793  40.2996540  72.6898670  10.2096140
  41.0461044  72.1395111   9.9726498  39.7643566  72.7217960   9.4167262
  16.6361332  41.4950609  51.0468006  15.9880221  40.9548283  51.4988327
  16.2016702  42.3393440  50.9257174  53.4216213   3.2335329  26.8436575
  53.8141060   3.7710130  26.1556864  52.5355482   3.0525810  26.5300274
  30.7801342  69.2555046  16.2410653  31.5742898  68.7643385  16.4515579
  31.0746694  70.1623440  16.1566865  37.5244188  61.9453144  37.1704626
  37.5652003  60.9899616  37.1272898  37.1636653  62.1307135  38.0374789
  62.1449471  60.7025337  34.9336839  61.8486404  61.1929941  34.1669464
  62.8001356  60.0947952  34.5907402  34.6993113  44.6715689  16.2329936
  34.6828103  45.3003693  15.5114877  34.5149541  45.1961470  17.0121360
  12.7583027  16.9172597  14.4960153  11.8355405  16.7165351  14.3396437
  13.1845522  16.7555809  13.6543489  72.1890831  56.4998817  38.4431791
  71.6182756  56.1588097  39.1317129  72.8988075  56.9360495  38.9146447
  18.4862614  19.3873537  46.0911512  19.2129564  19.4439185  45.4707098
  18.0282724  18.5819256  45.8508110  14.4118416  51.4905548   7.8798467
  15.2716577  51.4709806   8.3000427  14.4830883  52.1809006   7.2206181
  35.2428961  18.8067007   5.9024125  35.7820702  19.5933759   5.9840500
  35.2176929  18.4407914   6.7865551   2.0800167   4.7691697   0.9546395
   2.6548201   4.6552923   1.7115179   2.3391898   4.0736216   0.3502606
  11.0758305  66.9377041   5.4659230  11.2006366  67.8599310   5.6898719
  11.6520762  66.4652300   6.0667098  65.5233431  52.0326138  17.5849020
  65.9118891  52.9069328  17.5560772  66.0645390  51.5505028  18.2101309
  79.1524076  63.3289623  60.3073454  79.6467495  63.0842733  59.5250511
  78.4050226  63.8248205  59.9730253   6.0120821  14.6959054   6.3285506
   5.8543849  14.5762086   7.2650528   5.1717091  14.9937868   5.9803081
  11.4600170  17.1282566  40.0194979  10.6168222  17.5746620  40.0968027
  11.2525320  16.2017429  40.1409721  69.4459963  11.3129830  49.3783283
  70.2809954  11.0758781  49.7817945  69.0128994  11.8640351  50.0302505
   1.3457395  24.8375535  50.8883333   1.8722157  24.7359967  50.0954056
   0.4641990  24.5722842  50.6261301  18.2131982  49.1359472  47.2035694
  18.2479632  48.4063005  47.8221464  17.4184048  48.9798594  46.6934967
  50.7991314  38.1793165  64.8382616  51.5754652  38.3727932  64.3128061
  50.6850910  37.2323799  64.7574091  29.8851562  10.0557375  56.6355324
  30.1725841  10.9664094  56.5700102  29.4096279   9.8954314  55.8204174
  43.1730413   3.0109385   4.3307430  43.4726095   2.1971463   4.7359982
  42.2588015   3.0914947   4.6026069  44.7518158   7.0839536  26.7627716
  44.5862675   7.9254866  27.1878004  44.0056276   6.5387654  27.0121741
   6.4765626   8.0540353  59.2040300   6.7512774   7.4936891  58.4782410
   7.0767504   7.8344381  59.9166203  59.1654968   7.5935864  25.5971336
  58.8884258   6.8192494  25.1073742  58.8240099   7.4532753  26.4802694
  13.9725029  30.1176763   2.0117135  14.5629263  30.1830220   2.7622879
  13.5815048  30.9882641   1.9380403   3.0497643   9.7364885   5.5276102
   3.9307255  10.1025641   5.6058955   3.0121228   9.0568823   6.2006259
  74.8810053  21.8735480  17.2387779  75.4539061  21.7574525  17.9967606
  75.4590702  21.7678046  16.4832056  51.3646603  41.3738251  21.0123301
  50.6298637  41.1395979  20.4453683  51.6672373  40.5388880  21.3694835
  76.2637472  19.4260740   1.9004273  75.5252838  19.1491139   2.4428235
  77.0332575  19.2792356   2.4504471   7.7049059   4.9810213  50.8234978
   8.3672684   4.7865742  50.1604033   7.3839366   4.1227722  51.1003017
  61.4922428  48.9767170   2.8414831  60.6687212  49.0040731   2.3543562
  61.4934683  49.7842550   3.3554018  19.8892641  46.5539360  30.8350539
  20.7798576  46.3188744  30.5746341  19.3376815  46.2266254  30.1245213
  18.7688541  25.9638333  49.7849655  19.4353116  25.2888608  49.6565962
  17.9477525  25.4780126  49.8624420  64.1843939  58.7322521   2.6356775
  63.5100937  58.1963491   2.2181119  63.7422323  59.1334295   3.3838651
  74.1975069   1.5709287  11.6565180  73.5763359   0.9868392  11.2215281
  75.0167990   1.4494923  11.1766720  45.0348330  32.0176291  42.7852678
  44.6124935  32.8241920  42.4897718  45.8481503  32.3099899  43.1966972
  26.5075541  45.2821207   8.3753783  25.8606052  45.1471090   9.0678096
  26.5768456  44.4309235   7.9430604  58.0284309  69.1056681  19.0807891
  58.9215803  68.9441156  19.3847990  57.5254393  68.3599567  19.4081223
  24.7543836  58.2508707   1.6913468  25.2950191  59.0180349   1.8795036
  23.8565397  58.5825777   1.7002226   2.8603753  47.7133751  19.3317842
   2.6694131  47.9885626  18.4351015   2.2081070  48.1670475  19.8655999
  52.9775095  54.4199991   2.8354418  52.3407221  55.1095104   2.6475418
  53.3807707  54.2291451   1.9885722  50.0609922  69.9722910  -0.0074711
  49.1768551  70.2999783   0.1573152  50.6100082  70.7563782  -0.0122740
  34.9878860  60.0198317  61.4735937  34.7715855  59.4845104  60.7101345
  34.5558190  59.5791674  62.2052813  15.5983961  63.9080286  22.7233243
  14.9283445  64.4590235  22.3187709  15.1043510  63.2575274  23.2223272
  78.9613342  72.0247364  51.4111805  78.2254887  72.1510410  50.8121729
  78.5556746  71.9367313  52.2736931  11.6836166  58.2349396  20.5112481
  11.8975639  58.3688593  19.5879269  11.3443732  57.3407650  20.5512476
  17.1526372  18.0091059  59.5596647  16.8305266  17.3711181  58.9229155
  16.9526601  17.6197946  60.4109478  68.8744116   7.8032357  13.8647211
  69.5591211   7.2486585  13.4907579  68.3281851   7.2013319  14.3702686
  19.0748966   0.6627848  10.5879319  19.0614772   1.5671042  10.2744699
  18.4166515   0.6402598  11.2825108  18.6979544  58.3094263   1.4673361
  19.2013097  57.6667452   0.9675102  18.3401191  58.9008427   0.8052076
   8.5304350  35.8883429  50.3490829   9.1279060  36.0892868  49.6287489
   7.9972351  35.1634192  50.0228691  63.3083296  63.4748220  29.0020776
  62.4541855  63.6997461  29.3709660  63.7501383  62.9899788  29.6991897
   3.3446136  31.5583181  64.2908955   3.8488173  31.6252136  65.1017809
   3.9452177  31.8608928  63.6097527  67.2826099   0.9990470   7.3308849
  68.0267000   0.9207782   7.9279059  67.1927643   1.9403604   7.1822613
   9.0280998  57.4468756  60.3212976   9.9332577  57.6390266  60.0763464
   9.0157014  57.5278997  61.2749815  35.6171942  55.0554085  14.8802805
  35.9355068  55.2447367  13.9976335  36.2524056  55.4765129  15.4594278
  29.8830628  23.3858013   1.3111599  30.7416272  23.1309986   1.6490537
  29.6194458  22.6552868   0.7516184  76.0393381  45.9199047  52.8794670
  75.1593494  45.5435753  52.8642654  75.9182167  46.7977095  53.2414389
  35.7051992  56.3925648   4.8856705  35.5669951  56.2325191   5.8192217
  36.4341736  57.0121098   4.8542213  54.3428087  12.9105806  10.2261364
  54.2314816  12.1526170   9.6522653  55.0692272  13.3993006   9.8392189
  60.2603960  66.8168163  13.7833548  59.3230867  66.6832781  13.9242446
  60.3098917  67.5826168  13.2112241  55.2139664  48.6675167  12.0424962
  55.9270000  49.2898083  12.1859407  55.3435183  47.9962301  12.7124405
  51.1739779  14.7107875  11.2307394  50.2592325  14.5968783  11.4886260
  51.6727448  14.5123053  12.0232439  76.2727499  24.2071629  61.6970825
  76.4169693  23.7336802  62.5163794  75.7896328  23.5911536  61.1462975
   6.2149799  10.5929303  11.4797246   6.0425323  11.2736952  12.1301484
   6.6517735   9.8972756  11.9711590   0.5822631  22.2386980   4.9464583
   0.3326150  21.6649461   4.2220861  -0.2476863  22.5835204   5.2758670
  69.9359798  58.8840723  32.4912786  69.5456886  59.3684387  33.2188034
  69.5568085  59.2821598  31.7077065  48.2297087  42.2875881  63.8557482
  47.4481821  42.6965666  64.2274809  48.7508154  42.0312166  64.6166420
   0.8665366  31.1085439  35.5359554   1.1729132  30.2199984  35.7172060
   1.0834855  31.2535071  34.6150064  16.5685773  39.3864131  46.6702127
  16.4488721  38.7753320  47.3971844  15.6836367  39.6842575  46.4594984
  69.4210196  23.8677478  44.9834967  69.9767828  23.4344101  45.6312418
  69.3639851  24.7744155  45.2850437  16.2287354  13.4652615  29.2157722
  15.7900846  13.9623523  28.5253263  16.7781937  12.8373492  28.7466717
  15.0721943  32.2260046  60.0047302  14.8237133  31.4099741  60.4389906
  15.6618631  32.6567340  60.6235981  61.5272808  52.0095778   1.6184235
  60.7032919  51.5224695   1.6172898  61.6962194  52.1966124   0.6949999
   9.6177912  69.0031099  64.4404078   8.6817968  68.9142704  64.6200037
   9.9171484  68.1079674  64.2812300  44.7042990   0.5686693  19.5260668
  44.0222788  -0.0917271  19.6483564  45.4626894   0.0748603  19.2142498
   8.0596989  47.1740723  61.8292046   8.4126067  46.5069199  62.4179268
   8.4167498  46.9485617  60.9701967  17.6672864  28.6729598  49.6176529
  16.7393553  28.4380770  49.6149015  18.1259775  27.8380036  49.5244598
  64.8748016  35.0541091  23.6754060  63.9243841  35.0778484  23.5641623
  65.1915646  34.5539284  22.9232693  72.0085716  72.0806789   4.1095039
  72.7248430  72.7099323   4.0244812  71.2169695  72.5968504   3.9573002
  25.0064301  64.3497181  37.5730515  25.3105426  64.0547419  38.4313846
  25.7121301  64.1085100  36.9730210  51.9802423  74.0805825   1.4372551
  52.0097061  74.8459899   0.8632208  52.2196814  74.4189178   2.3000589
  64.8763084  40.9883165  61.9743872  65.1924992  41.7925787  61.5627861
  64.3682718  41.2886667  62.7279902  42.8835773  38.8562202  54.2325544
  42.0085526  39.2407155  54.1803122  43.3176661  39.3430305  54.9331379
  74.6761942  14.2332315   7.8616512  74.9994946  14.0795636   6.9739038
  74.0126085  14.9155629   7.7601266  16.4111471  33.0653691   5.4093999
  16.6751766  33.3986998   4.5518389  15.4717040  32.9027700   5.3242993
  45.2691936   4.3824643  13.0223525  45.6817818   3.7484440  12.4358201
  44.5799971   4.7846413  12.4936795  67.4401712  55.6568003   7.0293665
  67.1697617  55.2266407   6.2181503  67.4215603  56.5912342   6.8226850
  17.6520908  51.1485910  44.1999054  17.5164831  50.2641392  44.5398903
  16.8511677  51.3435698  43.7133503  33.1494117  65.7171106   0.4645689
  33.3557129  66.1911583   1.2701428  32.3158956  66.0881662   0.1750809
  51.7794609  36.9428158  61.8774700  52.4305916  36.4059377  62.3291588
  50.9823322  36.4130282  61.8893003  11.5593421  34.5029306  60.2120733
  12.2006488  35.2100968  60.2818680  11.9683123  33.8656378  59.6265554
  25.0647950  58.2864809  37.1724367  24.4967031  59.0454865  37.3044086
  24.4612408  57.5583220  37.0249939  34.5130563  61.6880941  52.7381563
  33.9847302  62.3181725  53.2281637  34.3130088  61.8705082  51.8200397
  34.5044422  10.5201638  53.7445450  34.3165016   9.8012877  53.1411171
  34.5245647  11.2997389  53.1894875   9.3443221  24.3034220   7.7071172
   8.4597325  24.5406055   7.9854649   9.2396861  23.4573340   7.2718942
   3.1521258  65.5154037  63.5670280   3.3592582  64.5811319  63.5886860
   2.2869173  65.5783510  63.9716053  30.4917264  63.2751465   1.0078319
  29.8731208  63.3716154   0.2837792  31.1902165  62.7243567   0.6543151
  70.2989769  11.1977601   2.5491604  70.9227896  11.7234528   3.0498973
  70.5317640  10.2918160   2.7524030  51.6339684  17.6991069  18.3243430
  51.1404419  18.5055768  18.1751204  51.1264610  17.2263134  18.9839911
  22.2881103  22.1754575   8.2910615  22.6493025  21.8505621   9.1158134
  21.9630408  23.0510950   8.5003871  61.4421511  66.8419790  63.4462500
  61.0857010  66.0290527  63.0880308  62.1687174  66.5604401  64.0021896
  11.2384450  20.5963850  56.1598396  11.1685479  19.7012866  55.8279562
  10.6899595  21.1139297  55.5703115  26.2039208  51.8802738  41.5939379
  26.6279149  52.3175335  40.8555222  25.2670741  51.9934940  41.4335299
  39.2807770  66.9991732  11.9154119  39.8212004  67.3479986  12.6242805
  39.8413491  67.0471525  11.1410165  23.2138467  61.9428301  53.8320303
  23.0402446  62.0614147  54.7658539  24.0980101  62.2876263  53.7071085
   8.1875837  28.1558299  62.9539919   8.1144017  27.2035694  62.8901243
   7.8047556  28.3689260  63.8050270   0.6717858  18.9676428   6.9919747
   1.3525318  19.3006277   6.4072204   0.6347217  19.6059096   7.7043468
   1.6031910   3.9624527   5.0713634   2.1230200   3.7249097   4.3035203
   0.6976523   3.9475244   4.7615105   6.3832611  44.8324251  45.1824713
   6.8300933  44.0914011  45.5916929   7.0901138  45.3749275  44.8327875
   2.5237665  61.0885048  42.7714682   3.3017984  61.3259983  43.2759476
   1.7893165  61.3358688  43.3332777  15.8200574  69.6491575  52.4810553
  16.5475166  69.1470289  52.1137619  15.2566624  69.8383665  51.7307138
   4.1585323  45.3737354   1.3290909   3.8243216  46.0920286   1.8662934
   3.3963770  45.0675535   0.8375584  12.0719278  30.5143571  54.1306973
  11.2228000  30.4144883  54.5610905  11.9469607  31.2407899  53.5200357
  13.5923350  49.7798204  33.9010239  13.4260178  49.6646881  32.9654408
  14.3274117  49.1956949  34.0872788  69.2683458  10.4179037  53.7503290
  69.4108009  11.3642514  53.7312078  70.1318264  10.0494361  53.9370346
  77.2993994  10.7325995  29.0054202  77.1733570  10.3214574  29.8605847
  77.5629282  11.6302884  29.2077565  25.6782579  70.9340572  36.7100930
  26.1918879  70.2312994  37.1082735  25.0970149  71.2319469  37.4098420
   3.9466467  11.2114251  25.1782393   4.3642536  10.4794419  25.6321526
   4.5787710  11.4691830  24.5072603  68.4520388  36.0070324   7.3418069
  68.2723951  36.9333506   7.5027275  69.4050694  35.9351659   7.3947424
  11.0064006   2.1023111  10.7167578  11.3724065   2.8553933  11.1805880
  11.3121045   1.3433531  11.2135065  11.9558036  18.7186122  20.9934855
  11.0842407  18.7532532  21.3877058  11.8068051  18.3746362  20.1127410
  58.4333181  68.2256937  11.2024570  58.2184649  67.9611158  10.3079903
  59.2292881  68.7497044  11.1125755   4.5459726  36.7758489  53.2215118
   4.1023254  36.3047981  52.5161600   5.4777622  36.6306806  53.0574179
  48.5695219  59.6310329  17.1323562  48.1072712  60.4371500  17.3619771
  49.0744734  59.8585606  16.3516593  42.5145102  28.2888436  64.5816898
  42.8661537  28.0727482  63.7180424  42.0882654  29.1373992  64.4612741
  70.2050352  68.7341833  28.0223441  70.1019430  69.6819496  27.9366207
  71.0056400  68.6258030  28.5356832   8.0609506  47.5455809  10.9733760
   8.2489222  46.6636610  11.2945008   7.8060615  47.4184608  10.0595355
  37.2230577   4.0568167   2.1082899  37.2678375   4.7497025   2.7671799
  36.3034463   3.7912855   2.1020705  64.2506647   1.9840214   8.2984906
  64.2095327   1.0952041   7.9455829  65.1521111   2.0780019   8.6063707
  21.7834473   7.7334630  55.6875563  21.7626882   6.9241703  55.1768255
  21.2401676   8.3446574  55.1900387  59.1717482  33.3299446  63.6708975
  59.8749495  33.2381296  63.0280066  59.5453596  32.9913330  64.4845247
  40.9947920  68.1475782   0.6163660  40.2254105  68.1754065   1.1851488
  40.7641697  68.7061071  -0.1259906  74.8338747   4.8078987  21.5831161
  74.1703320   4.9571428  22.2566676  75.4680300   4.2225483  21.9971752
  61.3192987   8.0817497   6.6011566  62.0854998   8.3159059   6.0773814
  61.1671209   8.8455164   7.1576929  37.4359250  68.2081318  49.7859430
  38.2368255  68.1877613  50.3097486  37.3853254  69.1069174  49.4605875
  49.7202396  74.4098902  52.1856070  49.0758419  73.8268900  52.5869751
  50.0352430  73.9283419  51.4206791  32.3126197  55.9169769  55.8181477
  32.4143720  56.5336037  56.5431643  32.0268106  55.1035213  56.2338877
   8.0211258   6.7850292  10.2447307   7.6962507   7.3018903  10.9819841
   7.7652508   7.2856510   9.4700444  59.0319252  47.5059605  58.3853579
  59.9267817  47.1672153  58.4121084  58.9970493  48.0272961  57.5833464
   8.1839180  31.2449598  62.3261547   8.5054171  30.3709579  62.1048212
   8.6792248  31.8336868  61.7566776  74.7540188  42.8674698  52.9627466
  74.0908909  43.2559299  52.3921394  74.6782351  41.9253778  52.8112507
  20.7558775  49.8664761  59.6410894  20.9869695  48.9617872  59.8517227
  21.4230943  50.1441908  59.0134525  17.3141658  44.7901297  54.8817873
  17.4872673  45.3718519  55.6219721  16.9237471  44.0102625  55.2762651
  50.7830143  71.9125032   5.4900038  50.5541658  72.1285057   4.5860103
  51.4031172  71.1873627   5.4133666  26.2035990  35.4986310  53.8668823
  26.7400098  35.3434730  53.0894375  26.3394952  36.4239168  54.0708685
  21.5707588  74.1872501   7.1044737  21.6143751  73.3868551   6.5813100
  22.4607658  74.5386553   7.0792758  35.9504962  66.9509363  42.5645971
  36.7745280  67.1845913  42.1372652  35.2732491  67.3116493  41.9923639
  48.1821060  13.9478064  58.1887674  47.8964806  14.4210160  57.4072790
  49.0083933  13.5383523  57.9322004  10.4761636  33.5611486   6.3809043
   9.5527184  33.7892056   6.2738049  10.6782961  33.0169344   5.6198502
  70.3735113   6.1024773  28.7702727  69.8758888   6.6670376  28.1787729
  71.1828423   5.9126037  28.2957578  44.4225883  61.3680506  44.2860603
  44.0831757  61.2504482  45.1733065  44.2822695  60.5215645  43.8617897
  56.0971928  54.0931416  53.4161234  56.5865183  53.4359694  53.9110184
  56.5595388  54.1569185  52.5804186  78.4402561  18.5854280  60.3279734
  78.1813097  19.5036340  60.2500057  78.0625296  18.2998621  61.1598444
  68.0175781  15.4736316  18.2060289  68.5307169  14.7615385  18.5879266
  67.6274109  15.9180725  18.9586723  27.5056577  13.4543717   1.7748450
  27.3439860  13.5707867   2.7110830  27.7394128  12.5304902   1.6852145
   1.1354741  70.2744818  24.9044323   0.3227343  70.6909418  25.1912189
   0.8669499  69.6855688  24.1992331  30.3105259  58.7456799   4.1320255
  29.4417524  58.8129854   4.5281774  30.6276131  59.6480894   4.0953720
  10.6529629  26.9225597  46.1918879  10.6978261  25.9757257  46.3250256
   9.7578734  27.0800400  45.8914757  66.7639029  74.9315026  28.8255215
  66.2396407  74.5352225  28.1295753  66.3803983  74.5950392  29.6354270
  15.8211768  53.9909315  57.1929932  15.9821558  53.1721258  56.7240858
  14.8955464  54.1782856  57.0369864  50.6572485  72.2296667  16.3208711
  51.0303497  72.5462723  15.4982007  50.6035137  73.0083942  16.8748784
  49.1323614  54.8693991  11.2370765  49.6811247  55.6517458  11.1820114
  49.2615938  54.4266748  10.3983128  49.9179935   1.4263891  36.2022638
  50.1297331   2.0969787  35.5528760  50.7128000   1.3438693  36.7292452
  61.9424057  74.2214727  19.2694557  61.5456963  74.2430162  20.1403093
  62.8626537  74.4375610  19.4200623  78.1522942  50.1526690  10.1362622
  77.8345680  51.0482311  10.2513409  79.0728521  50.1899004  10.3959119
   5.3989905  15.5418062  12.2037625   5.2915978  16.4925003  12.1740949
   5.2575135  15.3133440  13.1224692  66.6488075  60.5879068   4.9366510
  66.3203955  61.0471773   4.1637012  66.9356203  59.7367764   4.6056741
  53.7268734  35.9144950  15.4225194  52.9155350  35.4676080  15.6638706
  53.5651636  36.2435794  14.5383322  20.8992124  56.1274433  53.2721472
  20.7778335  56.6106462  54.0894699  20.2456856  56.4951324  52.6772165
  38.8709569  56.0534048  45.3974247  39.0347862  55.8939934  46.3269281
  37.9715824  55.7566977  45.2584076   0.3983349  13.5378575   3.3292806
   0.3877373  12.9665899   4.0972474   0.6713267  12.9677761   2.6104522
  58.6821556  73.6773634  40.6192160  59.5108795  73.2074404  40.5263710
  58.0145836  72.9916286  40.6006384  55.1718473  71.0131216   2.0833834
  55.7359552  70.2664375   1.8822025  55.2071476  71.5585470   1.2975743
  27.5918961  73.5668993  42.4505615  27.8330541  72.7989292  41.9325876
  27.5167394  74.2740059  41.8097973   0.5550922  25.4852724  13.0005133
   0.0866800  25.9160662  12.2855031   0.7405195  26.1882067  13.6231947
   1.7181972  26.5372801  64.0936327   1.3695723  26.8851256  64.9144220
   1.7618074  25.5913901  64.2336988  72.4662304  64.1584349  19.4457543
  73.1389856  63.4805107  19.5093930  71.7245483  63.8068151  19.9381959
  22.6693773  22.3376203  20.3814077  23.0139685  23.1640410  20.0430012
  22.5840139  21.7793393  19.6085787  12.9371810  25.0949335  10.6803668
  12.8792894  25.9005070  11.1941087  13.6858177  24.6276951  11.0511255
  19.9963617  53.5302401  62.8082037  19.8227870  52.5889635  62.7984428
  20.8307195  53.6151600  63.2695818  66.9660187  66.5103388  25.7927704
  67.7657843  66.9958496  25.5905795  66.5476656  66.3732958  24.9428082
  29.2627215  40.7129622   2.7346423  28.6772060  39.9660015   2.8589392
  29.4443083  40.7211685   1.7948598  44.4751072  70.0105524  59.6530056
  44.6314335  69.0857840  59.4616938  43.5317945  70.0675201  59.8051643
  71.0133600  61.5665770  29.3803596  70.6036997  62.3066902  29.8282862
  71.1984539  61.8923473  28.4995389  65.8634949  18.2355011  48.6570835
  65.3702259  17.5509787  49.1091251  65.8282328  18.9868104  49.2491341
  19.7464001  12.8961682  13.7737739  19.3678999  12.9506445  14.6512711
  19.0317559  12.5744367  13.2242250  66.4010191   9.6707809  30.6677222
  67.2736645  10.0610387  30.7169604  66.4507103   8.9007497  31.2341285
  75.1670933  23.8915753  54.2709255  74.2462730  24.1038394  54.1183949
  75.2160549  23.6963487  55.2067232  26.3248038  43.8404894  18.5275948
  26.6165161  44.1604042  17.6739025  25.3803539  43.7204361  18.4284353
  64.2783308   9.5189518  29.0367842  64.1007280  10.3623259  28.6203599
  65.2174330   9.5359617  29.2212558  20.6279087  56.1897421  56.5176392
  21.3773060  55.6026411  56.6173697  19.8654485  55.6349897  56.6823721
  39.5339727   7.5718760  28.4118009  39.7895384   7.4153429  27.5027275
  40.0637722   8.3212143  28.6839032  63.8947058  60.8759499   9.9597448
  62.9966640  60.6954241   9.6819651  64.0184021  61.8078613   9.7795409
  15.8490241  46.9769382  58.3096981  16.4923823  47.3289156  57.6945257
  16.3213992  46.2938023  58.7855339  26.7056513  48.3637810  54.5678711
  25.9016871  48.5316706  55.0594854  27.3019767  49.0619993  54.8382759
  70.9300566  14.4670379  58.3062410  71.0301924  14.0687716  57.4416113
  70.7590055  13.7291479  58.8914728  46.6992855   6.4932215  55.4263735
  46.3838053   6.7526966  56.2920380  47.4001598   5.8662152  55.6049013
  73.5320950  53.5932589  27.7229953  74.2556858  53.0443048  27.4208307
  73.4661198  53.4082556  28.6598277  68.3621073   3.6552003  34.9509287
  67.8431988   2.8588986  35.0643706  69.0660095   3.5761270  35.5947447
  41.8888330  11.8665397  49.8286343  41.6301632  10.9590340  49.6681595
  41.3462448  12.1432495  50.5670500  25.7767439  63.6738920  16.6565406
  25.4639363  64.3610144  16.0681140  25.2360415  63.7658882  17.4410212
  73.2492876  52.2708893  41.7831516  74.0356970  52.5100994  42.2736359
  73.4634733  52.4749279  40.8728075  68.3382654  21.3265800   9.1687661
  68.7946653  22.1604204   9.0563285  68.1996727  21.2548375  10.1131594
  28.9842534  67.6897097  15.1461065  28.4392524  67.4845886  15.9057999
  29.6767998  68.2520914  15.4930007  70.2331734  72.8478575  56.1163330
  70.5358696  72.2111416  55.4688787  69.7356319  73.4883547  55.6079483
   6.3059777  52.4852848  17.7215111   5.8249074  52.3699093  16.9020653
   7.0410156  53.0529785  17.4898398  75.9605837   4.6780095  13.2854557
  75.9362602   5.6346560  13.2638347  75.0471163   4.4178173  13.4042418
  33.7097931  50.8291292  58.2799244  34.1414952  51.4297438  57.6723671
  33.8855720  51.1970758  59.1459179  74.1403055  14.3368089  43.1079102
  74.6898890  14.4755852  43.8792276  74.1835117  15.1654983  42.6307917
  14.9461973  45.8448696  48.8854694  15.6514823  45.2519608  48.6261177
  15.3838122  46.5326548  49.3871450  55.0113869  73.3286762  30.4211140
  54.6990633  73.5300684  31.3032317  55.4779291  72.4982738  30.5159831
  11.8582821  42.6572418  40.2775049  12.0589697  43.3975935  40.8500767
  11.7269552  41.9210672  40.8750248  70.2411032  71.6764212   6.9483918
  69.5881891  72.0865011   6.3811415  70.1310205  72.1115637   7.7938306
  23.9128089  18.4641504  58.9054680  23.1093264  18.2437956  59.3767309
  23.6542964  18.4763062  57.9839182  29.5524740  65.5470705  54.6737909
  30.1333332  65.8323431  53.9684868  29.4348168  64.6092367  54.5226240
  20.2065110  22.6064539  18.1287777  19.4900286  22.1459413  17.6919532
  20.8797646  21.9377232  18.2543290  38.8049555  43.2409048  63.8306332
  38.7131977  43.9445019  63.1881714  39.6302509  43.4302855  64.2770100
   6.6784292  34.3104482  36.0696006   5.9835505  34.8168683  35.6489873
   6.3149875  34.0659261  36.9206882  39.0076351  36.8120837  62.5141907
  39.6979284  37.0416236  63.1363153  38.6683869  35.9749484  62.8309679
  40.9090805   8.0457371  60.1098013  40.3453302   8.7936252  59.9121141
  41.3804245   8.3038658  60.9019089  74.1566181  41.1578941  56.4253998
  74.3660355  40.6484556  55.6425524  73.9185858  42.0228815  56.0916853
  71.2070084  18.8198066   5.5704618  70.3825760  19.2252898   5.8390260
  71.8399048  19.5378947   5.5754751  69.7316694  46.3681126  58.1555796
  70.1410341  47.2329092  58.1835461  70.3640318  45.8186436  57.6925182
  32.2568274  68.5735130  57.5699854  32.6362014  68.1166124  56.8192863
  31.6382170  67.9463673  57.9444695  17.7237058  25.6508350  10.6813908
  17.5501513  26.4184499  11.2262559  18.6420596  25.4400897  10.8500457
  41.1205244  61.9960070   3.1074777  40.5428410  62.7463341   2.9677474
  41.9973469  62.3759031   3.1631497  58.4249401   0.7816808   9.3579310
  58.0342388   1.6366062   9.1771299  57.7189016   0.1563223   9.1946226
  24.2911458  13.8896251   9.5480007  23.4041953  14.1985404   9.7327214
  24.7557402  13.9841843  10.3795314  30.4359889   4.0221044  51.1696863
  29.6065807   3.6892986  51.5125465  30.6648397   3.4153315  50.4656363
  76.4516306  15.6942034   9.3592107  75.8718395  15.2951849   8.7104774
  76.7249537  16.5202522   8.9602500  49.6446562  56.1051607  60.0217724
  49.6674871  57.0211411  60.2987003  49.9225426  56.1248064  59.1060066
  27.7467299  63.7411976   2.2401772  26.9359255  63.6484909   2.7404124
  28.1946015  62.9027176   2.3524156   0.5902356  18.1203949  46.6790009
  -0.2098642  18.2048380  47.1975946   0.9845211  18.9922798  46.7032623
  65.0957346   8.4730148  44.7701979  64.3051624   8.7419379  45.2380657
  65.6613588   9.2449081  44.7922659   1.5154520  65.9907293  48.2321310
   2.2467822  66.4915514  48.5934734   1.1266924  66.5721512  47.5786352
  33.6620378  70.3281164  49.1262913  34.4240832  70.4646587  48.5633707
  33.9607620  69.7023773  49.7861719   9.1329885  26.0369253  19.4867074
   9.0953618  26.4815855  18.6398935   9.3801612  25.1370072  19.2739129
   5.1218593  43.2594395   8.4884828   5.6986630  43.3338165   7.7282208
   4.3694335  42.7605486   8.1703722  45.8511686  40.8095503  49.5540524
  44.9985027  40.4432487  49.3194962  45.6662607  41.7211103  49.7801018
  15.6985402   2.2274528   2.1965899  15.3310275   3.0715466   2.4586439
  15.2512062   2.0154217   1.3773419   6.9177800  66.6952801  47.2907066
   6.2473369  67.3782778  47.2747374   7.7307057  67.1621227  47.4842072
  57.1853018   6.1225945  62.5437403  56.4187098   5.6387693  62.2363615
  57.2281361   6.8905526  61.9739723  30.6417871  54.9518538  52.8106165
  30.2729678  54.4900703  52.0576525  30.9355688  55.7911873  52.4564409
  44.3092489  71.8472290  31.0515761  43.6363077  72.5255442  31.1087513
  43.8869429  71.0610962  31.3978171  29.4532919   9.0288591   6.3395679
  28.9646029   8.2404912   6.1031544  30.3690243   8.7502366   6.3455319
  37.3837876  40.1433420  59.7893286  37.3142648  40.6804609  60.5785704
  36.4804125  39.9043012  59.5819473  40.5350208  71.1525536  28.4676385
  40.5260086  70.3432798  28.9787364  39.6124601  71.3307714  28.2850027
  70.9275484  14.1892207  64.8479176  71.6324711  13.5507500  64.9559450
  70.4072332  13.8505578  64.1193485  36.0017548   1.0395893   3.8119239
  35.5632309   0.2846130   4.2042825  36.9336490   0.8258136   3.8578069
   2.8038207  17.6830328   4.0424377   2.6186934  18.5382938   4.4303650
   3.5456878  17.8404558   3.4584144  54.1317987   9.3403614  59.5513868
  53.6226511   9.0749013  60.3172445  54.5327520  10.1712298  59.8065901
  23.0806565  21.8631506   1.5589647  23.1361532  22.7945709   1.3453998
  22.2699904  21.5699244   1.1429463   6.9250512  38.5038352  23.0079198
   6.6427058  38.1243825  23.8401008   7.8770542  38.5675597  23.0844808
  42.3000288  54.7956848  49.9684763  41.3828945  54.6006346  50.1609612
  42.4909306  55.5804491  50.4822159  13.7954736  72.3332071  14.7348034
  13.0509293  71.9429731  15.1926291  14.5638132  71.9894791  15.1905847
  64.8266029  19.1398537  24.1871214  64.1149092  18.8152874  24.7388339
  64.3963957  19.7168458  23.5560632  31.0136294   5.2446210  41.7595100
  30.6540322   5.9459031  42.3027658  30.2904534   4.6258733  41.6575384
   9.5185000  12.8770983  23.2151198  10.4560053  12.7150893  23.3203220
   9.4189674  13.1181943  22.2941422  73.2753277  24.7329617   9.2957586
  73.7664700  24.0200996   8.8873029  73.3622980  25.4646039   8.6847192
  45.9263372  66.1062670   4.8009783  46.3218021  66.9179964   5.1186734
  46.6431904  65.4719877   4.8076275  70.3967094  57.8342009  22.2518182
  70.5026484  58.2235241  23.1198263  70.7403803  56.9456244  22.3442984
   1.9454032  56.2796354  36.2523079   2.3950386  55.4367828  36.3128161
   2.3795862  56.7313147  35.5286336  55.9344625  71.6201878  55.6117964
  55.2514648  71.5759611  56.2809658  55.7630587  70.8684587  55.0445652
  16.6412008  20.5621696   7.8812116  16.9707894  20.8704710   7.0370829
  15.6888688  20.6139374   7.7998781  78.1007528  34.6631932  23.2091784
  78.0225134  33.7826681  22.8420401  78.8776875  34.6220398  23.7667656
  15.8819997  15.3498352   5.8946484  15.7261455  14.6217835   6.4962155
  16.5481913  15.8817732   6.3299209  37.9168129   1.5685681  11.2299609
  37.8583813   2.3434681  10.6710804  38.4595323   1.8459514  11.9680297
  57.4193239  45.7749796  59.8636007  56.7546225  45.5441046  59.2146778
  58.0531120  46.3042259  59.3794012  31.3075805  65.0612211   3.1597173
  30.4375362  65.2460527   3.5134029  31.1412239  64.5373726   2.3760462
  17.0786965  69.9862337  38.7113404  16.9289613  69.9666882  39.6565533
  17.9359591  70.4005909  38.6131620  77.2296810   7.6336545  39.4287920
  76.5516996   7.3275387  38.8264060  77.4004841   6.8835330  39.9983311
  53.9474297  10.9359086  45.4072332  53.9951992   9.9799013  45.4064751
  54.0274763  11.1804497  44.4852686  53.0442810  61.5800047  18.3952045
  52.1190882  61.3346148  18.4009087  53.3289909  61.4199257  17.4954569
  73.8951731  56.8832350   1.5208714  74.5606852  57.2646332   2.0934595
  73.5286570  57.6307678   1.0485443  37.6472998  54.1998816  37.5365663
  38.2068086  54.1042805  36.7658257  36.7994356  54.4712877  37.1848607
  58.0137730  71.2594938  17.3467743  57.7769423  70.5149126  17.8997087
  58.8754940  71.5292168  17.6644516  42.9546356  62.2082376  60.1179218
  42.6166916  61.6402912  60.8103561  43.0060530  61.6422510  59.3476963
  71.5532160   4.9981031  16.1431324  70.9285545   4.3135205  15.9035993
  72.4098539   4.5777071  16.0677803  40.9358311  56.4090967  39.2446685
  41.1064148  56.0329914  40.1081944  41.7017746  56.1689186  38.7232542
  14.0929615  17.9916883   0.4160586  15.0269926  17.8242493   0.5416845
  13.6695194  17.1608603   0.6320545  73.8725281  16.4700866  17.8871715
  73.8249588  15.8270931  17.1796906  74.4167757  16.0521173  18.5545003
  71.2634754   8.9546013  42.0237970  70.4406548   8.5358340  41.7711401
  71.8266487   8.2305229  42.2972488  74.3401623  20.8953857  21.8554449
  73.6682272  21.5155482  22.1385217  73.9106083  20.3675389  21.1823249
  73.4161377  25.8467770   6.7054641  74.3412924  25.6696630   6.5352988
  72.9490376  25.3380919   6.0426754  69.3605900   8.1870764   4.8464629
  68.4309006   7.9741412   4.7654158  69.3817854   8.9526522   5.4206365
  21.0103774  19.6347535  24.6834993  20.4664850  18.8473010  24.7017097
  20.5303216  20.2697611  25.2150464  29.7373819  48.4836197  14.1319990
  29.1379356  49.0303040  13.6240327  30.5796814  48.5737133  13.6863017
  23.0929875  62.3011208  49.1619873  23.6215425  63.0991554  49.1630030
  22.3044133  62.5367498  48.6732531  73.2204159   7.8335065  -0.0774841
  74.0852841   7.4327440   0.0098630  72.6378627   7.2558660   0.4156657
  70.8347368   0.7097741   5.4923129  71.5806627   0.4069742   4.9744922
  70.5321169  -0.0711539   5.9557843   7.6680154   3.8407898  11.5819812
   7.1770430   3.1102169  11.9580674   7.4482203   3.8228145  10.6505311
  13.7164712  53.2964442   0.0477191  14.1061711  53.9176117   0.6629534
  12.7809310  53.4982906   0.0638695   5.0904608   2.1539249  63.4781122
   5.4963320   1.3570744  63.8194799   4.9599195   1.9761220  62.5466728
  24.3677855  42.4645281  31.6912293  23.8315797  43.0206871  32.2563839
  24.6332097  41.7368031  32.2535443  10.5291259  38.8405442  10.4337060
  11.4227057  38.4974694  10.4404569  10.6223416  39.7457433  10.1367950
  64.5954561  65.5530453  58.8065910  64.4544125  65.0548601  59.6116734
  65.4643393  65.9401178  58.9135695   5.9344208  48.4570694  60.8227348
   5.2169740  48.3574629  61.4484978   6.5516657  47.7628279  61.0535336
  55.4572248  65.8538723  24.0966392  55.6467104  65.1601362  24.7283506
  55.4343939  66.6548634  24.6202040  75.4251099   9.9240971  14.4468546
  76.1565542  10.2266884  13.9086497  75.1961803   9.0695941  14.0812778
  23.4252405  67.9770136  54.8031378  23.8243914  67.8453636  55.6631279
  23.2498908  68.9171076  54.7618484  28.4561849   2.9472953  58.2565737
  29.3033910   2.6118410  58.5497332  28.2383156   2.4130279  57.4928141
  30.6800675  52.5249624  54.5153570  30.6810451  53.3933306  54.1126585
  31.0504508  51.9499826  53.8456964  55.0396299  63.8081551  58.5112333
  55.6807947  63.3699083  57.9516983  54.2779684  63.2284784  58.5022116
  73.1394815  15.8430505   4.5544428  72.2850847  16.1902452   4.2981386
  73.7676620  16.4866185   4.2266604  61.7963219  67.2061062  16.3877273
  62.5830412  66.8200874  16.0026407  61.0716105  66.7727041  15.9369636
  51.0613585   6.3927042  48.8732433  51.4522362   6.5251255  49.7369051
  51.8071175   6.3712716  48.2735586  45.7021236  19.8798180   8.7775576
  45.5663633  20.3420734   7.9504424  44.9083233  20.0550222   9.2829490
  26.9186115  52.1058750  49.7667933  26.6810417  51.2718773  49.3615246
  26.1519384  52.3463774  50.2869892  74.8770142  69.9379349  23.0333757
  75.4558945  69.8236418  23.7870765  75.0865412  70.8106279  22.7006030
  10.9568954  27.5230193  20.7221532  10.2285993  27.0959306  20.2711439
  10.5584371  28.2730317  21.1636806  37.1846128  62.5359344  55.3539562
  36.9548941  63.0476475  56.1295938  36.8781209  61.6509056  55.5514860
  77.9148102  18.5338533  36.0196662  77.8675461  17.7459359  36.5611291
  78.8062572  18.8585782  36.1466050  44.9892235  41.8711472  59.3477297
  44.4982719  41.6345263  58.5608292  44.5757246  42.6781178  59.6544027
  28.6415219   4.9202973  61.2258291  28.9366412   5.2644891  62.0688438
  29.2759585   4.2365220  61.0109520  33.0450821  63.4651279  28.7488818
  32.1173048  63.5967970  28.9441299  33.2530522  64.1429377  28.1058025
  38.4651041  70.9403181  38.5863018  38.8464570  71.7541885  38.2570362
  38.6276603  70.9639645  39.5292997  22.8982520  52.9322195  56.1001301
  23.1181908  52.4310493  55.3148365  21.9769526  53.1651831  55.9853697
  37.5673914  61.6451740  58.9331150  36.6342020  61.7785072  59.0992832
  37.7791595  60.8334255  59.3940449  17.9919612  20.2116847  22.6591063
  17.8250706  19.8169971  21.8031836  18.6408305  19.6371114  23.0653882
  61.5131044  40.6012678  55.8414173  60.8655262  40.1700830  55.2837896
  61.0210705  41.2860060  56.2944841  57.4958134  61.8512869  22.5808263
  57.8860188  62.6873732  22.3260021  56.9411898  61.6098309  21.8389916
  52.5441456  70.5269003  43.6618090  53.3401012  70.2512407  43.2071686
  52.8235960  70.6756353  44.5651436  50.0706148  74.7742701  56.9577265
  50.9130049  74.9419403  56.5352392  49.6988964  74.0405989  56.4680433
  65.5424452   1.4244249   3.1774622  64.6231556   1.5307607   3.4220606
  65.6282711   1.9047068   2.3539364  65.5737114  22.6415086  15.2396786
  65.5176067  22.5709176  16.1926222  65.9337187  23.5148311  15.0849843
  75.7265663  57.0026207  50.8424139  76.2558365  56.3060760  51.2309074
  75.8365631  56.8888140  49.8983860  65.8841753  66.4739037  45.7439947
  66.1535358  65.6479406  45.3421736  65.5657339  66.2254381  46.6118050
  56.0836172  52.2115803  22.3094010  56.2032509  52.9610586  22.8926682
  56.4113951  52.5128174  21.4620233  61.5686703  68.3393288  57.3433495
  62.2831726  67.7930689  57.6709414  60.9439087  68.3761787  58.0676079
  46.7798376  56.7384291  54.9985313  46.1521864  57.0612764  55.6451035
  46.3136292  56.0389900  54.5406294  57.6085043  63.7045908  62.5095892
  57.0984316  62.8946161  62.5081635  57.1296406  64.2902279  61.9231176
  25.7158256  73.9821482  58.2467985  25.6319022  74.1774797  57.3135090
  24.8286223  73.7541628  58.5245132   4.7025961  25.7472181  13.8417327
   4.2053843  25.7630873  14.6595097   5.4467309  26.3274145  14.0025651
  13.4287584  25.2827334   7.7196455  14.3343449  25.2909350   8.0296075
  12.9114437  25.0720549   8.4969687  64.8655367  10.3832412  14.0167284
  64.9834108   9.5585704  13.5452890  63.9833117  10.3254294  14.3835700
  74.4037628  14.1357768  19.6860230  73.4601355  14.2134500  19.5454168
  74.6341658  13.2894659  19.3027437   8.8508576  18.1651509  32.3314071
   8.7356299  18.1304598  33.2810116   8.1233352  17.6499128  31.9828773
   7.1306336  38.2255459  48.3596945   6.2524807  38.1395960  47.9886246
   7.2511590  39.1682291  48.4739494   1.6871801  14.2480421  20.2824759
   1.4909942  15.1738524  20.4260683   1.6526912  13.8576531  21.1557674
   1.9574419  40.6797791  13.5931242   1.5603502  41.2215042  12.9111528
   2.7244627  41.1768103  13.8775015  62.8255796   3.0799544  13.6601710
  62.1005869   2.5741020  14.0272307  63.5405731   2.4488632  13.5780704
  37.8765798  50.7416534  60.9361649  38.4644294  50.7002449  60.1818752
  37.9704809  51.6359758  61.2641907  37.1227169  68.2243776  40.0617504
  36.3634825  68.7061214  40.3899574  37.2633600  68.5705376  39.1804838
  17.7836549  46.3329029  19.3900418  16.8421936  46.2002420  19.5008707
  18.1245041  45.4641819  19.1770256  54.2465786   0.1704248  31.2857151
  54.3185858  -0.6657807  30.8254862  54.1912703   0.8236822  30.5882740
  30.1636314  72.0912695  52.8060865  31.0360193  72.3488998  53.1040716
  30.1351309  72.3599911  51.8878222  15.6639028  69.6357346   2.7613470
  16.2045896  69.0920258   2.1884002  16.1527216  70.4543495   2.8459427
  15.8876121  37.2958922  48.2744646  16.4258242  36.6663051  47.7946949
  16.1389887  37.1769714  49.1903782   1.1232916  14.6818519  58.7876415
   0.3204665  15.1560557  58.5712290   0.9514081  14.3002570  59.6484947
  11.5359640  23.2494879  22.5232577  12.3736358  22.8704810  22.7895093
  11.7693853  24.0825200  22.1136189  75.1100397   6.2440175  41.8503189
  75.8415318   6.0899299  41.2524891  75.2693653   5.6481880  42.5823259
  31.0859537   5.1959223  22.3225260  31.8921256   4.6883479  22.4157286
  31.1333323   5.8507556  23.0190754  64.4999790  29.4444942  61.3432837
  65.2320957  29.9528527  61.6922951  63.9356518  30.0940871  60.9240055
  56.1448812  50.8906078  57.4374151  56.6050959  51.2683678  58.1869030
  56.1829424  49.9455404  57.5844955  23.7363625  72.1801901  38.8110042
  23.3123589  73.0347538  38.8895750  23.0943680  71.5613747  39.1590619
  42.3546457   6.3428408   4.5975366  42.1969795   6.0898221   3.6879456
  43.2281733   6.7341352   4.5893270  32.9364610  49.1930103   2.8155756
  32.5982213  48.8705397   3.6509433  32.4487591  50.0009537   2.6555461
  14.7281539  72.9443169  24.8879647  14.6194375  71.9940186  24.8513412
  14.3470275  73.2607365  24.0689087  72.3566771  38.4768176  32.2033763
  73.2413340  38.4282613  32.5656772  72.0637798  39.3655443  32.4048853
  11.9536757  12.2369611  11.1442149  11.4840865  11.9869542  10.3484666
  11.2745976  12.2886169  11.8168330  25.1195979  19.0356910   2.6493502
  25.1720119  19.5592952   3.4489268  25.4793549  18.1838953   2.8968400
  16.9853604  28.5479045  18.5462391  17.7497363  28.0073714  18.3467793
  16.2534189  27.9312587  18.5617816  39.1286159  59.3763638  45.1942778
  39.9897265  59.1244459  44.8607206  39.0004420  58.8256645  45.9666300
  47.7833462  54.2843342  60.1608562  47.4493361  54.4571972  59.2806339
  48.6055899  54.7723770  60.2051449   5.3356302   1.3754475  19.0734076
   4.7735906   1.3263011  18.3001494   5.2359849   0.5226430  19.4965231
  49.5187044  38.7080455   2.8834105  49.3289042  39.6458769   2.9094732
  50.4731369  38.6582232   2.8304264  35.6972170  12.4963534  42.0600891
  34.8440433  12.0637834  42.0253134  35.8591080  12.6319885  42.9936981
   9.9315006  56.7468834  16.9965041   9.2440796  57.0888567  16.4248931
   9.4590199  56.2911510  17.6931393  39.0922475  62.1847391  45.0957012
  39.7144628  62.3663998  44.3913698  39.2518783  61.2695169  45.3261709
  27.3764277  73.0320120  53.1407499  26.7978978  72.3399019  52.8205538
  28.2595134  72.6966810  52.9860067  22.3977637  74.1334581  52.8329468
  22.5403595  73.1873322  52.8602219  23.2741070  74.5049286  52.7316189
  28.1672716   5.3787804  55.4441166  28.9715338   5.6486845  55.8874512
  28.3964705   4.5559156  55.0121546  64.4826555  39.6308899  49.7783709
  64.1211319  38.7775755  50.0179291  65.4311943  39.5053148  49.8055029
  45.0177431  17.2811508  10.5826020  45.9475946  17.1416497  10.7619023
  44.6696901  17.6487589  11.3949788  23.8092327  20.3502202   7.3990315
  23.2854843  21.1298132   7.5838435  24.1436720  20.4908133   6.5132463
  57.6555586   0.2671487  30.4224586  57.3853683   0.6264779  29.5774078
  57.8935957   1.0338938  30.9436798  24.3893027  60.8878708  30.6877255
  24.8845124  60.1260662  30.3866434  25.0296283  61.4171267  31.1632276
  36.9356060  28.2601285   0.3407000  37.0778394  28.3259678   1.2849811
  36.4824963  27.4250269   0.2243880   0.6382652  33.7473679   1.7740984
  -0.0462758  33.9076638   2.4236679   0.2987523  34.1353726   0.9676151
  13.0552506  46.3931990  50.7875395  13.6597133  46.1471272  50.0873232
  12.8984177  45.5789614  51.2657118  68.8121128  19.8513043  58.7855911
  68.3246374  20.0476599  59.5856142  69.4877052  20.5281520  58.7445593
  41.7432308  70.6671953  62.7332592  41.3367987  70.4078388  61.9063520
  41.4942837  69.9779463  63.3490467   1.8428248  55.9059381  10.1053584
   1.4529298  55.9394217  10.9789097   1.1701742  55.5004501   9.5582283
  26.7284060  55.7476711   1.7835966  27.5891924  55.4414749   1.4980812
  26.6449213  56.6202593   1.3990732  71.9504118  43.8517904   8.0106497
  72.8063154  43.7913990   8.4349281  71.7898321  44.7918034   7.9280394
  69.4127321  64.9579430  28.4759784  68.5406017  64.7753334  28.1262994
  69.3422508  65.8369017  28.8483953  68.7093878  13.3702350  54.1385794
  68.2813835  14.1957033  54.3658352  69.2670631  13.1743777  54.8914862
  17.1938634  25.9564900   0.8630930  17.0966947  26.0344362  -0.0859667
  16.4257169  25.4583168   1.1423901  15.4110205   5.7457781  30.9992218
  16.0916364   6.4168274  31.0510468  15.8923495   4.9210733  30.9327698
  15.9365153  57.5519562  10.4413772  15.3676784  57.4031210   9.6860611
  15.3707063  57.4066687  11.1996543  57.4982977  37.1446943  23.8347960
  56.5527010  37.2916389  23.8568521  57.7869129  37.3069692  24.7329044
  22.4432588  36.1668658  21.2698531  23.0050516  35.5409861  21.7268991
  22.0213866  35.6521130  20.5818939  66.3068390  59.0028191  53.8472080
  65.9491920  58.5059071  54.5830059  66.7502594  59.7472668  54.2539120
  57.2500753  71.4497519  39.9203491  56.5393734  71.1057806  39.3792248
  57.9509497  70.8035326  39.8342872  32.5384521  11.1910462  11.3478184
  31.6065621  11.0107064  11.4714766  32.6433444  12.1039867  11.6157174
  55.7740688  65.2038431   4.8590872  56.2270117  64.7595453   4.1423771
  54.9269199  64.7620773   4.9174473  19.4701326  58.9412594  58.6780643
  18.8316250  59.2265081  58.0244780  20.2625442  58.7562943  58.1739807
  67.9422951  20.3857517  28.2735729  68.6424160  19.7335243  28.2993507
  67.9787731  20.7413244  27.3856163   3.0106431  45.7280016   5.1188165
   3.8907915  45.5458069   5.4480213   2.9460105  46.6830063   5.1237446
  33.0686235  35.3031588   3.6558986  33.1376910  35.6113839   4.5594800
  32.6732039  36.0352349   3.1826770  67.3577833  72.6981831  48.6522055
  67.6677608  72.4537849  49.5242214  66.5184832  72.2470474  48.5612011
   8.9416832   9.4267654  46.7046642   8.7928975   9.1475624  47.6080704
   9.4192392  10.2524543  46.7847252  74.2419624  12.5331402  60.2776194
  73.4453678  12.9405451  60.6177521  74.0675497  12.4082005  59.3447685
   7.1965826  49.4082546  63.7154961   6.8508911  48.5319519  63.5457373
   8.1136185  49.2630243  63.9482737  72.7709103   6.9180155  43.1114197
  73.6581707   6.7462069  42.7960110  72.4107504   6.0508943  43.2974768
  24.7736239  36.4280224  34.1817617  24.2548394  36.3066959  34.9769807
  24.6864200  37.3593545  33.9786649   6.9953597  12.1331847  17.0316279
   6.9029677  11.7696261  16.1509919   7.5228584  11.4882720  17.5028646
  75.2938080  41.2116575   0.6180101  75.8669567  40.4960203   0.8929615
  74.6121597  40.7862282   0.0978188  54.4754457  34.8988056  50.5632782
  54.9433565  34.2699242  51.1126375  54.4178391  35.6893110  51.0999441
  72.7834892   3.6205977  35.7710052  73.4929419   4.2466608  35.6262422
  72.0457554   4.1573605  36.0606050  70.8904362  51.2047720  33.8253999
  70.4051733  51.8663073  33.3323240  71.8105698  51.4254522  33.6808872
  19.7000134  58.6276054   8.8410962  19.1170073  58.5526609   8.0856371
  19.1490865  58.9926577   9.5335174  20.6828570  13.0700719  18.4695113
  21.2818933  13.1354511  17.7257955  21.1553431  12.5404823  19.1117907
  65.5895996   7.3413020  57.4576283  64.6718407   7.2948503  57.1896839
  65.7013988   8.2374173  57.7749777  68.2559490  26.4170194  11.4152932
  69.1992140  26.5596461  11.4936435  68.1034517  25.5786324  11.8512809
  70.3394794  24.8919845  52.7793741  70.0715351  25.2025199  51.9145012
  69.6259403  24.3188405  53.0597305  75.0002766  24.7589469   3.5391107
  74.2008877  24.3809533   3.1726083  75.6300688  24.7319889   2.8187871
   9.8687130  17.7935684  53.4059238  10.1434839  17.4877906  54.2703533
   8.9690113  18.0945361  53.5331535  17.9106700  37.2229099  10.3332329
  18.0547321  36.8857312  11.2174213  17.4247003  38.0371928  10.4636431
  55.0723219  17.9469454  63.1391001  55.0501537  17.0908713  62.7114534
  54.2952442  18.3990335  62.8104734   4.6467355  33.9068699  42.3383856
   4.2625040  34.7619414  42.1448708   5.4593492  33.8894868  41.8328285
  24.2888546  64.7666693  60.2993822  24.1645265  63.9403677  60.7662868
  23.8543940  64.6334648  59.4569254  39.5395851  64.0397453  38.6008692
  40.3357553  64.5137453  38.8410115  38.9626908  64.1415501  39.3578768
  25.6471205  45.1183033  14.4020915  25.7342792  44.8135281  13.4989035
  24.7112155  45.0468302  14.5897293  42.7553225  57.3866415  51.5018320
  42.8357649  58.0090046  50.7790375  42.0388603  57.7305079  52.0353699
  17.4621201  26.6045332  22.7238393  18.0425453  26.9670892  22.0545936
  16.8456638  26.0584807  22.2359443  19.5706594  28.4335494  12.1009696
  18.6725044  28.2925415  12.4004090  19.8362136  29.2532539  12.5178623
  44.9599361  42.4818707  62.7200174  45.8926344  42.5748587  62.5259495
  44.8506737  42.8974295  63.5753584  30.3523064  46.1963749  21.4635158
  29.7517276  46.9409418  21.4974213  29.7816730  45.4278898  21.4699030
  73.3452940  47.2679901  18.6571741  74.1608667  47.1206474  19.1360915
  72.6645184  46.9122887  19.2283583   4.1533267  47.7650070  15.4676199
   4.7092625  47.2153854  16.0199630   4.3753004  47.5074482  14.5728445
   6.2960833  18.6952448  29.2573714   6.1133552  17.8961265  28.7631536
   5.5533367  19.2687500  29.0685558  42.2102880  65.8145332  30.3869009
  41.2857628  66.0467482  30.2999592  42.2025299  64.8922920  30.6431246
   7.7944940  47.6877403  52.6700640   8.6069345  47.2010183  52.5312328
   7.1501064  47.2393751  52.1223736  17.9763353  43.1305647  16.6432655
  18.3362126  42.6311398  15.9102619  17.8722608  44.0181017  16.3002229
  18.4212565  35.5300999  20.1960111  19.1470981  35.2902317  20.7720733
  18.6934233  36.3578343  19.7997642  59.1277075  11.7506063  21.0935211
  59.1482449  12.4190438  20.4086828  58.4905672  12.0777893  21.7285299
  66.4282751   1.0250257  38.0360723  66.9134617   0.9971458  37.2114182
  67.0449638   1.4010422  38.6641955  67.1411562  47.8074121  53.6190939
  66.9449711  48.6925364  53.9261866  67.1931601  47.2827482  54.4180012
   6.2971526  10.7132697  62.1804476   7.0225644  10.3191292  61.6960287
   5.9576535  10.0021827  62.7238846  33.2794499  70.7658672   2.5136063
  32.4583340  71.0648870   2.1229768  33.0203414  70.3819656   3.3512890
  22.5378799  52.9853344  36.4938188  21.9150591  52.6290226  35.8602858
  23.2644892  52.3622227  36.4918208  65.0119543  36.3797212  61.9689369
  65.5699539  36.8026948  61.3162851  64.1443110  36.7565775  61.8226337
  42.4026632  12.4773169   5.0149268  42.4224806  13.2528186   5.5756736
  41.4947844  12.1765625   5.0541031  51.0792971  68.3779669  60.5184317
  50.4389381  68.0634356  61.1565876  50.9626627  67.8056717  59.7600698
  31.2343287  63.0835342  57.8554869  31.9991398  63.4620476  58.2891035
  31.5596700  62.7987909  57.0014954  42.3300791  66.9821024  58.5093260
  41.7573547  66.4921284  57.9192924  42.2315788  67.8941727  58.2360935
  33.6960173  20.0029850  58.9321947  34.6188498  19.9325264  58.6879587
  33.2504010  20.2398014  58.1188202  42.4151707  72.6891756  60.7443237
  42.0176315  72.0131254  61.2930918  43.0076218  73.1573915  61.3325453
  12.9654074  54.0035248  62.9896498  13.3743787  54.6647644  63.5479832
  12.8018796  54.4564581  62.1624041  35.3630543  60.3686333  54.7954416
  35.1032710  60.8961391  54.0401363  34.6706772  59.7130251  54.8792410
   2.8592288  39.4932413  29.2339969   2.1568380  40.0950575  28.9876270
   3.5543254  39.6633005  28.5982656  32.3393106  23.0982614   5.9167194
  33.0880046  22.5480819   6.1469185  32.7140903  23.8050771   5.3911853
   9.7622132  36.1516500  23.0903721  10.5413938  35.6571603  22.8362274
   9.1190469  35.9513307  22.4103427  21.3925576  27.5026584   5.6411546
  22.0942116  26.8519354   5.6194025  21.1720419  27.5861907   6.5688545
  59.9066353   8.5979682  64.2325306  60.3622150   7.9440361  63.7023878
  60.6049681   9.1506940  64.5833158  23.3141494  55.7233047   0.7378024
  22.7713966  56.1423445   0.0699272  23.8157201  56.4413166   1.1239623
  48.3007288  25.8535743  10.6345820  47.6577568  25.8825445   9.9260795
  49.0046692  25.2999139  10.2966976  13.4627211  22.7042198   3.0925316
  13.3981097  21.7692876   3.2873639  13.1839633  23.1368828   3.8995802
  52.6190853  16.9887614   7.6017565  52.8460360  17.8982246   7.4078476
  52.8356838  16.8800652   8.5277712  49.1787767   9.1601050   0.7876801
  48.2826519   8.9723277   0.5085082  49.2782879  10.1028752   0.6553464
  39.5983481  72.2056818   4.2951211  39.9930501  72.9859257   4.6845558
  38.9043069  72.5450182   3.7299764  12.5824702  62.6758337  11.9574153
  12.8957760  62.6133347  11.0551047  12.0300627  63.4575081  11.9655430
  18.4954560  10.3401160   2.1540859  19.0700293  10.9869611   1.7445885
  17.6258337  10.7389522   2.1237674  23.5451174   1.8464828  29.3811440
  23.8625789   1.8458921  30.2841663  24.2287850   1.3945150  28.8866186
  17.1102238   6.3983244  17.2088206  17.6402664   6.5117300  17.9977608
  17.7367067   6.4630985  16.4880192  12.4084067  59.6745539  36.1931181
  13.0270863  59.4713116  35.4915762  11.8179142  60.3238487  35.8110642
  15.8827662  49.9701309  24.5408916  15.2773011  50.5479765  25.0053644
  16.1175215  49.3018436  25.1847219  17.5018859  57.6992130  60.0430584
  17.1498346  58.4472132  59.5605755  18.4479833  57.7501917  59.9069214
   8.3932716  22.3895836  58.4628725   7.4971247  22.4092579  58.7986803
   8.4051663  23.0530596  57.7730274  38.9249706  12.6435483  60.7652617
  38.1148744  12.1653831  60.5882454  38.6440277  13.5482883  60.9021807
  34.5527267   6.9618052  20.4151130  35.2113748   6.4754468  19.9192607
  35.0602913   7.5190461  21.0051060  18.1504059  40.3798151  34.1427970
  17.7091885  40.9820557  33.5437441  17.5594306  40.3121328  34.8927283
  71.3318825   3.4940398   4.9534518  71.1424780   4.3203661   5.3979087
  70.7653236   2.8545633   5.3850913  46.7893215  73.5872104  59.9358368
  47.0709654  74.1768386  60.6352997  46.1974188  74.1159163  59.4007158
  70.3177357  72.7888775   1.6689499  70.4198933  71.9553375   1.2095926
  71.0258770  73.3370256   1.3308686  40.9257650  10.3011930  57.8365660
  40.0314760  10.0161791  58.0243158  40.9052420  11.2503612  57.9585886
  36.2169290  15.1378250  19.6347308  36.8403840  14.6808231  20.1992512
  35.4340291  15.2399373  20.1759100  29.7713852  51.9988632  60.4691696
  30.1818180  52.2527266  59.6425343  28.8844109  52.3547029  60.4154015
  38.0514550  45.2149534  17.1448219  37.2678900  45.4343891  17.6489067
  38.0521631  45.8393431  16.4193082   8.2390213   6.9767112  42.9634428
   8.5534716   6.2889814  43.5502815   7.3111242   7.0699143  43.1791973
  34.5221376  10.7557583   9.5326263  33.7824607  10.9028351  10.1221001
  34.1416121  10.3053570   8.7785906  72.0893621  13.2144046  37.7944183
  71.3922262  13.1230319  37.1448874  72.0982504  12.3757935  38.2558131
  70.6642580  49.4384098  27.7964807  70.1313019  49.6351862  27.0261121
  70.1878691  48.7399054  28.2452345  45.1011229  18.4055519  55.3003740
  44.7901869  19.3092084  55.2460051  45.2295399  18.1412268  54.3894005
  60.3484774   8.8453799  50.5835438  61.1669254   8.4837472  50.9235382
  60.1706314   8.3344430  49.7938919  54.5549488  73.1657982   3.5341176
  53.9634705  73.6997128   3.0037242  54.5546246  72.3100328   3.1052798
  14.1921759  14.7079897   3.3768010  14.7544515  14.9290967   4.1192219
  14.4507682  13.8180757   3.1371856  33.8673282   9.2418808  63.6025906
  34.2111826   9.3902028  62.7216864  34.5774364   8.7968349  64.0650988
  66.5583849  29.6165133  19.7915089  66.5594769  28.9769292  19.0793550
  66.5529060  29.0870595  20.5889297  74.3138266   7.1775478  55.1933098
  73.4903049   7.3940361  55.6305456  74.5484972   7.9738039  54.7167206
  58.3434057   2.6725799  38.0741143  58.7673903   2.5694817  37.2221518
  57.5795221   2.0972605  38.0326772  15.7057130  34.0736961  15.4029179
  15.6950724  34.5173073  14.5547855  15.2073085  34.6509194  15.9813964
  45.8043146  51.8628979  60.7815647  46.2969732  52.4989796  60.2629852
  46.4756012  51.3380384  61.2176085  63.7170315   1.5544660  47.1429729
  64.6456003   1.7863056  47.1273232  63.6941290   0.6386015  46.8656683
  23.0994844  21.2518978  10.6971097  22.9606462  21.9366074  11.3514233
  22.3116851  20.7104206  10.7461953  75.4409409  34.3763185  10.3301096
  75.7654619  34.0542722   9.4891554  76.0820055  34.0652323  10.9692454
   8.5825044  15.5229199   6.3646960   7.6524627  15.3025198   6.4164466
   9.0339643  14.6897042   6.4994836  74.4916296  18.7644184  62.6950216
  74.7591639  19.0250742  61.8137074  74.1139841  17.8920877  62.5825214
  12.0758009   9.4706833  15.4857624  12.6868093   8.7865728  15.2120960
  12.5102997  10.2894437  15.2468598  31.1383986   8.0613256  29.7421384
  31.9757175   8.0905449  29.2792392  31.1318731   8.8559532  30.2757621
   3.6385292  49.6128416  54.9485922   3.4984273  49.1217327  55.7581663
   2.8717798  49.4130898  54.4115353  41.4630032  59.4845581  43.7767601
  41.7456579  60.2104568  43.2205200  42.2492599  58.9509630  43.8921070
  43.4445313  33.9706344   0.9933015  42.7155665  33.5217971   0.5650683
  44.2261199  33.6176748   0.5681296  61.2771940  15.1621032  12.2777545
  61.1156273  15.9464633  12.8020692  60.4164696  14.9217844  11.9347739
  13.0004036  26.2175512  26.9873595  13.2262850  26.2629414  26.0583019
  12.1557879  26.6634893  27.0505619  10.2915108   1.8220022  54.6043587
  10.8753324   1.6685569  55.3472185   9.4535738   1.4482105  54.8770714
   5.1084268  69.3633223   2.3581982   5.4788584  69.2234039   3.2296535
   4.7398806  70.2460241   2.3935038  19.0200424  46.7467546   7.0440274
  18.6321902  47.1241188   6.2544727  19.7196889  46.1797142   6.7196929
   1.6753346   7.9652292  56.8189907   2.1814506   7.2065240  56.5283966
   2.3243320   8.6614537  56.9205093  48.9586306  60.7757473  50.5428743
  48.6251783  60.6082106  49.6614122  49.5537615  60.0464201  50.7164526
  57.5300503  47.3458958  64.4543743  57.5311041  47.8521585  65.2667332
  56.6045380  47.1749926  64.2798662  26.9326591  35.7249331  13.2364833
  27.5541186  35.0964046  12.8690982  26.1697006  35.6717491  12.6609004
  48.8293886   7.8908002  58.5413790  48.6359787   6.9638848  58.4011889
  49.3502140   7.9080284  59.3442917  77.6145697  66.3514853  55.3483915
  76.9561625  65.7699251  54.9682379  77.5763273  66.1745834  56.2883234
   9.2357337  30.2575994  28.5934615   9.0544236  29.9234962  27.7149796
   9.4707072  31.1754036  28.4568787  16.9531059  21.4054656  49.3887329
  16.7981756  21.4757276  50.3306913  16.3649380  20.7073879  49.1006756
  58.3043337  34.2413044  34.0052533  58.4661198  35.0341010  33.4938526
  57.7502489  34.5323658  34.7294807  17.1139336  48.2758570  56.2261724
  18.0367053  48.0636501  56.0858488  17.1243858  49.1612768  56.5897083
  23.3780360  18.2708335  42.0876741  22.9756474  19.1031110  41.8394232
  22.8615785  17.9685056  42.8347349  66.1676884  61.0313416  57.2673225
  66.4751911  61.8614101  57.6315498  66.5866089  60.9768534  56.4083862
  13.1130624  35.4048944  26.4251089  13.1615973  35.8209300  25.5644178
  13.5564184  34.5643806  26.3101959  74.1960287  72.3382378  54.0572691
  74.2481899  73.1347656  54.5855236  74.5898914  72.5804567  53.2191563
   0.8319245  70.7582951  41.3092327   0.8857293  71.1190653  40.4242563
   1.6926615  70.9306479  41.6908836  17.6679063  50.2841568  53.4699965
  17.1298099  49.5435476  53.7496138  17.4110067  50.4370546  52.5606823
  72.4564219  25.8585095  45.1462173  71.7621183  26.5104938  45.2415609
  72.7498102  25.9518456  44.2398787   8.9484930  49.6589422  49.7973108
   8.1668991  50.0853491  50.1487684   9.5654601  49.6490335  50.5290794
  71.2957430  21.5576148  46.2127113  71.9925499  21.1169147  46.6989994
  71.6171980  21.5919304  45.3117514  78.9495123  16.1610317  21.7557168
  78.5797807  16.9141710  21.2949443  78.2747499  15.4852843  21.6901946
  19.0119040  26.3885808  18.3319509  18.7934923  25.4670548  18.4709382
  19.7363257  26.3713431  17.7065337  27.5305581  41.2986803  14.9446774
  26.6202283  41.3180065  15.2399015  27.8801584  40.4813480  15.2996111
   3.2877451  13.9737070  32.5760555   3.3124042  13.0191851  32.6432252
   3.1917828  14.2749894  33.4795213  56.1594248   8.8161778  38.8096929
  55.4543400   9.3462086  38.4379983  56.7187262   9.4462597  39.2640185
  51.0046434  59.6073961  56.3841248  50.2444410  59.2122412  56.8109417
  51.4808607  60.0381613  57.0939779  33.0559301  17.6693773  11.8626046
  33.3979392  17.0570266  12.5139785  32.1987748  17.3144078  11.6269934
   3.3242515  18.2320988  13.6103415   3.6798471  18.3300006  14.4936299
   4.0907359  18.2687008  13.0381584  69.8365498  43.8115406   3.8429862
  69.5406342  44.7113943   3.7054023  70.7682180  43.8296795   3.6241305
  23.5370255  21.0102725  52.6815605  23.6121345  20.0563240  52.6576138
  24.0342283  21.2702799  53.4570694  35.7701707   9.5895356  48.8529110
  36.6224647   9.9659371  48.6334801  35.8929968   9.2094344  49.7227764
   9.5572424   6.7877609  34.1667223   9.7441608   7.2582012  34.9791121
   9.4428164   7.4765593  33.5119748  44.4232798  16.9829237  52.7603388
  44.1874456  16.1102319  52.4456596  43.6034489  17.4763405  52.7349377
  42.4522686  63.4243536  52.4826479  41.5587759  63.3948898  52.8247499
  42.7296209  64.3308878  52.6149464  17.0407665  30.8694792  53.3094025
  17.6390791  31.2785602  53.9346313  17.4539697  31.0073900  52.4570704
  44.1160297   3.7299222   1.8571237  44.6928835   2.9673618   1.9014971
  43.4808493   3.5909501   2.5595969  33.5438251  29.9959946   1.0849753
  32.5964618  29.9277878   0.9663234  33.9120674  29.6734405   0.2624249
  41.5424013  72.8245401  32.8603768  41.4920235  73.2610226  32.0099783
  41.5511847  73.5397148  33.4965229  18.3791471  12.2373688  27.6383877
  19.2091656  11.7609787  27.6572037  18.6272502  13.1436825  27.4559808
  59.8397875   4.4693372  14.3310690  60.0548506   5.1324868  13.6751640
  59.4365215   3.7597588  13.8309610  16.2970734  58.8183928  37.3253393
  15.8837521  58.5065508  36.5202618  15.6518626  59.4103146  37.7120781
  75.9159279  70.2611113  50.6665421  75.9429073  69.6696424  49.9144316
  76.2959290  69.7538948  51.3838720  78.2765818  20.8647346  27.9061246
  78.1668854  21.1488771  26.9986773  78.2827950  19.9087310  27.8586698
  52.1810579  55.1352978  64.6953297  51.7026949  55.8260250  65.1539087
  52.4445295  55.5358744  63.8668633  61.7168856  28.6630678  52.3699570
  62.5207996  28.2160234  52.6347256  61.2765646  28.8720059  53.1937838
  74.2760658   0.9660619  14.9324000  73.3276224   0.9101281  14.8159695
  74.5990324   1.3164851  14.1022611  22.6741123   7.8328347  63.3304739
  22.0542383   8.4472132  63.7235737  23.5116744   8.0392998  63.7453175
  44.3026400  14.6885991   9.1406924  44.8062611  13.9792466   9.5399648
  44.5895910  15.4759181   9.6033132  74.0516186  11.5464854  32.9301047
  74.5010328  12.3608685  33.1560230  73.3629084  11.4621139  33.5894895
  72.9130602  26.7890668  14.7725046  72.2734404  26.7322683  15.4823589
  72.3867989  26.7640233  13.9733446  19.9432623  53.7049675  18.3896911
  19.1262257  53.2235575  18.2595956  19.9302328  53.9535379  19.3139613
  76.0664940  14.7252429  48.6452341  76.6582584  15.0628006  47.9728508
  75.8816957  13.8265562  48.3723927   0.9651477   1.4580221  34.5731449
   0.1068107   1.7983755  34.3208575   1.5654096   2.1888833  34.4256330
  35.3860641   7.0559216  24.5107102  35.8444834   6.7524177  25.2942705
  35.9231496   6.7431307  23.7827444  -0.1066616  25.7618594  58.8689089
   0.5080596  26.3423038  58.4200954   0.4383476  25.0516081  59.2076397
  36.0059786  13.7308419  11.0396063  36.7168260  13.7950778  11.6774166
  35.6359744  12.8593302  11.1803043  17.5835037  11.2437677  40.5110598
  16.8992913  11.9130743  40.5004120  18.2300687  11.5721381  41.1358452
  10.7139587  29.5132661  51.0430431  11.2581849  30.2440548  50.7497883
  11.2384081  29.0789318  51.7157555  14.3879235  62.6526308  63.6571360
  14.3161035  63.1111526  62.8199816  13.9101481  61.8340111  63.5236120
  35.2448797  74.2367077  17.9086471  35.8441591  74.9361229  18.1692588
  35.0690389  73.7578011  18.7185597   5.7982367  28.0918264  34.8190928
   5.8420205  27.2394419  35.2523971   5.7307529  28.7219810  35.5364370
  71.5809059  64.5725060   7.2791445  71.6443729  65.4403019   6.8802297
  72.2344065  64.0478945   6.8165952   5.0306231  68.2146645  19.8062921
   4.5259085  68.2576227  18.9941049   5.9191185  67.9964399  19.5248914
  18.4818184  15.2160692  10.7895684  19.4210184  15.2978325  10.6238842
  18.1715536  16.1188436  10.8600271  77.5729799  27.7234745  46.0712624
  78.2054424  28.1409597  45.4865170  76.9837618  27.2473860  45.4861212
   4.5828035  53.5739470   6.4634418   4.0350112  53.1185293   7.1027780
   4.3766898  54.5003366   6.5881425  36.5639424  47.1118498  10.0165689
  37.4009132  47.4678755   9.7183079  36.0731888  47.8756714  10.3198373
  47.2272682   6.1669850  47.9991579  47.6565313   6.6752589  47.3109531
  46.7385292   5.4916877  47.5286961  52.7393961  25.1877809  13.9500201
  52.9664469  24.5807028  13.2456517  53.1300783  24.8018837  14.7340357
  24.2041898  11.2207782   8.8013840  24.3920660  12.1309125   9.0307081
  23.4769821  11.2752211   8.1813532   8.3618295  41.6319752  32.1846533
   7.8649610  41.0297966  31.6308165   7.9166168  41.6012287  33.0314541
  68.5556841  40.8249331  51.1434317  68.0303812  41.6017962  50.9516525
  67.9270077  40.1031590  51.1371183  15.4169548   9.7977895  34.9353528
  16.0634172   9.4928223  34.2987108  15.8282065  10.5563629  35.3496838
  40.6294060  18.4697986  50.6518078  40.6103468  17.6860011  50.1026917
  39.7218752  18.7737513  50.6669617  65.4488277   3.6749679  44.8709345
  65.4214573   3.2909840  45.7473135  66.0030031   4.4496104  44.9660492
  77.2940636  18.1835926  47.5731277  77.8803778  18.2773924  48.3239079
  76.4327526  18.4310520  47.9094839  70.0008011  34.4554329  27.2120976
  70.3865910  33.6794305  26.8056297  69.6283007  34.9485588  26.4811373
  66.9809771  58.8042355  39.1104388  66.9734621  57.8973913  38.8041592
  66.2022638  59.1967869  38.7157965   0.8282301  72.1287537  46.2892294
   1.3706726  72.9132318  46.3703537  -0.0380005  72.4044847  46.5889835
  17.3164320   3.5763717  51.3511086  17.4620652   4.5096853  51.5058613
  17.2350693   3.1982461  52.2266865  76.8933725  23.8069797  26.9527793
  76.3443041  24.5489883  26.6994572  77.4814606  23.6790657  26.2084508
  75.2244329  42.3332167  58.6704683  74.8196363  42.0907068  59.5032692
  74.6865892  41.9000912  58.0076265   9.4681740   4.8925862  44.6171570
   9.9006385   5.6464905  45.0181961   9.1295171   4.3889886  45.3573799
  20.4387379  19.3365216  43.4098101  20.7562971  18.4381449  43.5009575
  19.6795034  19.2646527  42.8313398  64.3005896  48.0919552  26.7108512
  64.4594717  47.2043800  26.3896060  64.1801214  47.9870987  27.6546335
  28.5030103   4.2297447  39.0539885  28.4979391   4.8701531  38.3425927
  28.1718063   4.7112453  39.8120737  63.1379843  38.4787011  57.2316504
  62.5304890  39.1984844  57.0610905  63.9934206  38.9008784  57.3105907
  56.1836243  65.3827143  60.6770277  55.8817911  64.7867966  59.9914551
  55.3905439  65.6115866  61.1616659  34.3294311  17.8920138  45.8340836
  34.7892046  18.3407223  46.5436602  34.1037583  18.5881114  45.2170324
  17.1790588  13.6178446  43.9997673  16.2308252  13.7481678  44.0097666
  17.4651158  13.8727391  44.8769426  45.0043917  67.6435614  58.1398964
  45.2152681  67.7181435  57.2092009  44.0541601  67.5303555  58.1618547
   5.2280146  41.6893291   2.9720464   5.6299692  40.8216381   3.0142087
   5.7817465  42.1805716   2.3651771  65.1263428  16.3786602   7.9962426
  65.7800007  15.6925440   8.1311852  65.3974009  17.0861018   8.5812950
   5.4827559   2.5294852  53.6517143   5.7156318   1.6072337  53.5446930
   4.7442594   2.6606065  53.0570173  30.4700136  53.2755709  63.7203789
  30.4382133  53.1575251  64.6697378  29.7936058  52.6881933  63.3831930
  68.5005093  56.2160540  62.0214033  69.2688608  55.8034992  62.4159575
  68.2810926  55.6530952  61.2789965  75.9119225  44.8650455   2.3094273
  75.4870176  45.6935167   2.0873372  75.7133913  44.7350883   3.2367501
  44.8155785  49.6289968  11.5964746  44.5112324  49.2014456  10.7959735
  44.6208191  50.5564165  11.4615774  22.7055836  12.9021561  55.5536556
  22.3332620  12.6736236  56.4053488  22.8394389  12.0608175  55.1172352
  54.1634560  67.7807808  59.7878838  54.1775942  67.3598242  58.9283323
  53.9431047  67.0755100  60.3963804  17.3512626  64.9481344  14.1914511
  17.7441609  64.4012642  14.8717415  17.9069495  65.7268667  14.1595185
  10.4376209   7.7471882  59.8999691  10.5894005   8.6892378  59.8242235
   9.6347582   7.6746762  60.4160929  11.8924487  46.7501974  47.0670843
  10.9638822  46.9157314  47.2301674  12.1508908  46.1370468  47.7551842
  22.8790617  32.9362273  54.5746088  22.6672459  32.3367572  53.8590622
  22.1675181  32.8188062  55.2040100  34.1318750  66.3969374  14.5254326
  34.9231076  66.1543036  15.0063777  33.6266685  65.5857658  14.4706583
  41.7444849  38.4322619   4.2325777  41.5720510  38.9250636   5.0348532
  42.3796558  37.7652287   4.4930598  18.9701462  55.9600735  63.1753635
  19.7085786  56.4656448  62.8357363  19.2430449  55.0470924  63.0846882
  37.7388978  43.0871820   1.2143312  38.2813239  43.7914944   0.8594373
  37.2256064  42.7803707   0.4669153   9.8852026  40.9352970  49.9871492
   8.9882118  40.7685614  49.6976042  10.1462007  41.7260170  49.5150566
  58.4633636  68.1419945   5.4199368  59.3522739  68.3384705   5.1241851
  57.9203415  68.2583523   4.6403110  10.9334445  47.9832172   7.4760044
  11.5104377  48.6204576   7.0550150  10.4266369  48.4974909   8.1044149
  75.2105570  26.4998293  22.8561711  75.4466248  25.5727243  22.8248215
  75.5560732  26.8626738  22.0405769  41.9694233  30.1056695  59.9745750
  41.3291883  30.4489374  59.3512821  42.5626278  30.8391213  60.1370049
   5.3846055   5.9196424  39.3217134   5.6616950   5.0037503  39.3461108
   4.4672668   5.8852053  39.0505385  39.2745662  14.2383933  16.0450864
  39.0110850  14.9684477  16.6052914  38.4575009  13.9303660  15.6529713
  10.2707231  71.2119865  53.7118483  10.5975711  70.7729721  54.4971323
   9.8818284  72.0243692  54.0359306  36.7445350  23.7560868  59.9859238
  35.8572602  23.8257432  59.6336126  37.1262598  24.6227598  59.8466587
  50.6837320  70.8728552  59.4134235  50.8013916  70.1027632  59.9696064
  50.7207870  70.5310392  58.5201025  44.3604660  25.7747364  54.5845127
  45.2559662  25.9572244  54.2998934  43.9391947  25.3882813  53.8167810
  14.1387045  32.5765491  63.4898138  14.7575021  32.5263810  62.7612543
  14.4729900  33.2852149  64.0396166  22.3083568  59.4590092  12.0053244
  21.4774704  59.9168873  11.8780065  22.0607972  58.6125135  12.3773301
  59.1167688  33.8504624  40.4303217  59.5419455  33.7580323  39.5777297
  58.2820845  34.2771363  40.2367163  20.0185418  14.9849534   6.6824132
  20.7603550  14.5338154   7.0854264  20.3729200  15.8307517   6.4080542
  36.3405442   1.6115709  17.3543167  36.1274457   0.8198334  17.8482533
  36.9338727   1.3117813  16.6656077  33.2635355  21.5115833  43.4957123
  33.0536008  21.3314104  44.4120646  33.2398701  22.4660754  43.4277773
  74.7745037  53.5853863  32.0761538  74.3752337  54.0653753  32.8017044
  75.2364588  54.2548370  31.5715098  62.8520012  65.9887791  12.1521676
  62.8710747  66.6167164  11.4299750  62.3450994  66.4259815  12.8363740
  21.7064142   3.7498602  21.7602849  20.8509564   3.6560196  21.3412166
  22.3324776   3.4724060  21.0914826  46.2379885  62.3689127   5.6761825
  45.8517122  61.6972923   6.2382817  47.1576357  62.1153879   5.5973774
  12.4729693  15.3487456  23.4038973  12.4050462  14.4360709  23.1234646
  12.5215888  15.3029275  24.3587637  32.1024179  65.6933641  51.2848234
  32.7804136  65.2269602  50.7959270  31.2866211  65.2576876  51.0380554
  66.9894648  10.6448114  44.3849230  67.0674372  10.3380048  43.4815836
  67.7701759  11.1808777  44.5240355   8.8096917  33.7368274  47.5615358
   9.6677804  33.6507058  47.9768658   8.2110274  33.9226437  48.2849360
  31.3573194  72.0896435   7.5569046  30.9877086  72.7800226   8.1073558
  31.7236447  72.5538349   6.8041980  55.9586000  37.5604439  63.0064154
  55.9798717  36.8356085  63.6312294  56.6977072  38.1145835  63.2571697
   4.9324238  39.7210598  27.3312235   4.8365754  40.6159163  27.0052314
   5.8483779  39.5010734  27.1613193  72.5316763  60.7154036   7.1036905
  73.2539129  60.1723099   7.4193758  72.4030018  60.4390049   6.1963427
  33.6642838  52.5212574  25.9031081  34.4356990  52.2785473  25.3910112
  33.1964183  53.1465721  25.3496456  36.3951826  63.4595013   5.4264426
  36.1413431  63.0950022   4.5785415  37.1591592  64.0032625   5.2343589
  42.3799515  61.7261887   6.9849920  42.7520943  61.9184542   7.8456759
  42.7147961  60.8560610   6.7682177   4.2951959  35.0067711  39.1468024
   4.0618077  35.6202912  38.4501266   4.0440652  35.4547834  39.9545455
   8.6347401  14.8927402  32.9185438   9.2643374  15.4882121  32.5120306
   8.7439865  15.0341904  33.8589096  71.8599510  35.5087566  45.0756931
  72.6376867  35.8726811  44.6527100  72.1470356  34.6617341  45.4168177
  17.3828351  27.6103377  52.7421856  17.2020233  28.4780502  53.1035900
  17.7884054  27.7844071  51.8928099  28.7497592  24.0308094  45.0775385
  28.7324858  23.4467793  44.3193531  28.2014561  23.5937166  45.7291079
  35.5453801   5.3709608  15.7790756  35.9969926   4.6958005  15.2726805
  34.9863529   5.8148867  15.1413834  35.2408552   0.9987523  21.3047767
  34.4256020   0.5135109  21.4317989  35.4818583   0.8279723  20.3942895
  58.1346798  54.2732239   2.2075000  58.3991289  54.7033501   1.3943021
  58.9582920  54.0092373   2.6176283  17.0591176  55.8952236  55.2619743
  17.3543608  55.1197052  54.7848654  16.1419845  55.7147932  55.4682398
  64.4838905  70.4816675  25.5507207  64.2171717  70.2813578  26.4479208
  63.7917137  71.0523129  25.2168250  38.9031267  33.3364463  55.6874037
  39.4855475  33.5254931  54.9516869  38.9688158  32.3890972  55.8075953
  24.2211437  37.4013305  52.7891159  24.1635442  37.7736330  51.9091654
  24.9247265  36.7550111  52.7301407  31.9997263  18.3430195  64.5064545
  32.5022340  18.4284341  63.6962557  31.0943389  18.2323039  64.2162037
  64.5043468  69.4188070  58.2722998  64.0531683  70.1697636  58.6579657
  64.2173433  68.6715412  58.7971401  73.5213375  29.0246582  59.1894960
  73.9897728  29.6580219  59.7332287  74.2112160  28.5540032  58.7217474
   8.2015300  13.1640637  52.0101690   7.7092659  13.2508969  52.8264809
   9.0991747  12.9843366  52.2897482  25.5073190  15.6360352  16.7931557
  25.2835917  15.0563645  17.5212777  26.1171079  16.2700999  17.1704471
  55.3886604  16.9571865   3.1000051  55.4024506  16.0000908   3.1033689
  56.0756397  17.2044456   2.4810132  37.4900222   9.9292594  45.3008747
  37.7567339   9.5978200  44.4434118  37.6863337   9.2139006  45.9058189
   3.5476279   4.2510363  20.3527713   3.4744155   3.2976162  20.3096223
   2.6428264   4.5622072  20.3255916  38.8149166  11.9048059  46.9373035
  38.3326650  11.3823247  46.2964630  38.3560014  11.7536759  47.7636147
  64.9483967  57.3648262   8.7313956  65.7181120  57.9126835   8.5777193
  64.8739529  56.8293762   7.9414696  27.0999169  59.7238541  13.5087860
  27.8232098  59.4689226  12.9359937  27.3037529  60.6229544  13.7662768
  52.5143433  61.1226177  26.3321376  51.6465902  61.0737896  26.7331982
  52.4406672  61.8255997  25.6866789   6.7663151  51.8180799  11.9019091
   6.2946105  52.6509809  11.9001591   7.2712851  51.8305159  12.7149796
   5.8181929  43.1339125   0.3324815   5.2828097  43.6850081   0.9033509
   5.5695462  43.3948968  -0.5542545  10.9154713  63.3452272  56.1361933
  11.2617421  63.9541340  56.7885447  11.0207903  62.4814892  56.5350628
   3.4380332  70.5779505  26.3019371   3.8513204  69.8372507  26.7455482
   2.6396608  70.2132797  25.9200382  27.5323319  46.7108297  47.1057463
  27.1948981  47.2198772  46.3686991  26.9833279  45.9270048  47.1267843
   4.2330971  18.4795082  40.8688211   3.6528733  19.1413713  41.2449980
   4.9045047  18.9832282  40.4087019  34.5184851  60.1248217  16.1330235
  33.8665962  59.5321035  16.5071273  34.6091080  59.8383379  15.2242076
  28.1975508  65.2182055   8.9676052  28.4821534  66.1072445   8.7558448
  28.9980364  64.7685480   9.2382783  59.2698574  30.5612779  44.8450851
  58.8289690  30.7726955  45.6679773  58.9425564  31.2118983  44.2239618
  21.8469715  26.3077211  63.0876970  22.1877742  27.1854568  62.9154491
  21.5595245  26.3372135  64.0002441  64.2256117  55.8330822  15.3140223
  64.7999811  55.8063602  16.0792792  64.2924452  56.7333317  14.9957132
  20.6458282  10.7891977  46.6635513  21.0145020  11.6464734  46.8766022
  20.0931430  10.9495425  45.8986616  33.0498886  38.2365513  62.3215437
  33.6867476  38.5085392  62.9823494  33.5070062  37.5703597  61.8082571
  56.2164068  71.5731382  43.4260464  55.4528809  71.7729425  42.8844404
  56.2301111  72.2664976  44.0858126  66.3957787  12.7173173  17.7923667
  67.2200489  13.0383849  17.4266815  66.0759354  13.4397995  18.3326900
   9.7674268   8.1989664  36.4494419   8.9755237   8.0508244  36.9663310
  10.4775310   7.8666544  36.9985795  55.3963900  53.2917070   0.7890326
  55.4180956  53.3917665  -0.1626760  55.6971025  54.1358471   1.1255331
  18.1140316  31.5348268  55.8715963  18.7163556  30.7911229  55.8900833
  17.5209570  31.3810444  56.6070175  28.3179736  68.0010033  55.1664209
  28.6273456  68.6352158  54.5196629  28.6071587  67.1535349  54.8282003
  48.7972832  35.0305367   9.7436851  49.3409538  34.8529935   8.9761353
  48.1306553  35.6411004   9.4289625  42.0342398  15.4394865  51.0200644
  41.2542200  15.4158890  50.4657698  42.7547741  15.2210248  50.4290152
   8.7021607  57.3967934  14.5224535   7.9666293  57.9656887  14.2953348
   9.4752210  57.8711843  14.2165685  58.7587404   2.1539037  13.1787622
  57.9311514   2.1195923  12.6990223  59.4076633   1.8163574  12.5613499
  55.4967117  69.8932076  12.8527391  55.5074644  70.7160234  13.3417118
  56.4204121  69.6904278  12.7047920  53.2405758   1.7820218  13.4279919
  52.8594589   2.5557727  13.0129099  53.8594770   2.1338248  14.0678561
  49.5190096   2.4374866  46.9945097  50.0027466   3.1937325  46.6623640
  48.7178183   2.4169557  46.4711523  57.9730272  66.0025930   1.1754151
  57.2772980  66.0080147   0.5180242  58.4190750  66.8414736   1.0590169
  44.2692232  66.5179729  39.1661930  44.3155527  66.1675596  40.0557423
  43.5207701  66.0706806  38.7712502  67.4653101  33.2918954  43.0410099
  67.7633142  33.6701441  43.8682652  68.2657719  32.9825878  42.6169491
  34.0423346  53.1498671  11.9041371  33.8255811  52.4680567  12.5400507
  33.4965944  53.8947439  12.1562362   5.6540120   7.7142763   2.4178536
   6.0228539   7.4530005   1.5740988   5.8453381   6.9795120   3.0007321
  24.6219635  54.8610163  56.9090128  23.9477301  55.5393600  56.8704510
  24.2251492  54.1041279  56.4778614  39.9986339  34.6228409   1.1731731
  39.1142130  34.9874759   1.1403581  40.5706072  35.3874350   1.2400785
   9.0734673  16.9295061  57.7976465   8.1484163  16.8000031  57.5885057
   9.1164172  16.8536043  58.7508678  16.1748981  42.6386881  58.5422850
  15.7884228  42.6283646  57.6666355  16.6207397  43.4839249  58.5973597
  68.3046198  56.7986393  52.6453924  67.9406977  57.2861576  51.9063950
  68.8600540  57.4319839  53.0999184   5.8599669  57.4777794  37.7946639
   5.7381058  56.7377663  37.1998811   5.8768189  57.0837879  38.6668563
  53.7846804  54.0840578   7.5650537  54.5598412  53.7571287   7.1084636
  53.0532026  53.6205482   7.1572149  22.1868896  28.1326246  17.0559955
  22.2824597  27.1883225  17.1800590  22.4713659  28.5133600  17.8868651
  10.3581023  65.1147366  64.7257376  10.9603131  64.5957375  65.2588558
  10.7018650  65.0408554  63.8354588   2.7077278  28.2894254  48.4302092
   3.0311683  28.7784243  47.6735735   2.0487392  27.6968384  48.0685377
  14.0985978  39.8695111   8.0002147  13.4456444  39.9831080   7.3095775
  14.2298806  40.7496643   8.3528179  78.0463362  61.1540079   5.0722605
  77.2266579  61.2552595   5.5561078  77.8229475  61.3872337   4.1711861
  17.7544022   1.3424549  40.5198288  17.3947966   2.2254460  40.6049299
  17.0448077   0.7664157  40.8042336  65.4170036  71.9455385  42.6724339
  64.8964310  71.3801098  42.1018839  66.3087511  71.6058874  42.5972271
  77.8849268  64.5886660  52.2117138  77.3291397  64.4849586  51.4393330
  78.3870935  63.7749958  52.2564459  26.9046021   7.5362587  56.6719913
  26.2530208   7.2695208  57.3204708  27.2469497   6.7129767  56.3238001
  35.9647298  70.6959486  13.5439694  35.7303166  71.6221476  13.6026371
  35.1301003  70.2453375  13.4152210   3.0572906  16.7721856  18.9120793
   2.6918116  17.1247649  19.7234643   3.3829325  15.9049380  19.1530597
  30.0044751  42.1262121  13.9735651  30.1893735  42.1563721  14.9122536
  29.3074894  41.4757967  13.8875175  13.0367744  63.7971878   5.5006045
  13.7090552  63.1307364   5.6424284  12.3885465  63.6330414   6.1855042
  78.6453152   1.4702518  10.8797562  78.9198017   0.5905505  11.1386251
  78.5798693   1.9529223  11.7037570  48.3063841  26.3562870   0.5764047
  47.6697206  26.9070268   1.0320132  48.9038849  26.9764376   0.1585140
   6.4034855  11.9483995  23.7627220   6.4236605  12.8954613  23.6252522
   7.2188300  11.6324353  23.3733487   2.1395348  32.0647478  42.1450901
   2.7062991  32.7422667  41.7763376   2.7259409  31.3269734  42.3125744
  10.4362929   5.1466030  59.0674353  10.5020440   4.8277310  59.9675608
  10.5090630   6.0979223  59.1444254  36.4686346   9.4335538  51.4197159
  37.0745873   9.9192280  51.9793367  36.7513132   8.5221452  51.4949369
   2.3808257  11.4785254  48.2833767   2.0615420  12.2530341  48.7464380
   1.6223294  11.1639082  47.7915096   6.6264850  37.9051542  51.4406157
   7.1456140  37.3320556  50.8764410   7.0281512  37.8180218  52.3050833
  67.4918556  74.6861506  45.1909781  67.5443268  73.8815260  44.6751690
  67.8373957  74.4430065  46.0498810  26.3210869  11.5853941  39.7690463
  26.3644361  12.5414491  39.7514033  26.2302876  11.3327575  38.8502622
  18.7870264   0.1889097  52.3116541  19.0676653  -0.0925430  51.4408731
  19.5500469   0.0381106  52.8695869  62.0370340  63.7758446  50.6388044
  61.6940355  63.3724308  51.4362001  62.4831486  64.5661974  50.9430313
  23.4895658  13.3268929  38.4114552  23.2666731  14.1576505  37.9914641
  24.2368913  13.5349309  38.9722204  26.3014507  24.0879655  53.0162001
  25.7910252  24.0768027  53.8258743  26.5054512  23.1678295  52.8489685
   0.6023483   5.2508265  52.0892525   0.0214205   4.4982362  52.2004414
   0.0311831   5.9490412  51.7690992  14.6756625  18.4075272  29.2786360
  14.5371127  18.8458323  28.4390378  15.1475239  19.0496099  29.8090219
  21.8102098  32.6730680  47.8944826  20.9572673  32.3010039  47.6702309
  21.6915870  33.0308795  48.7743282  45.1393461  30.4313707  52.4281168
  45.1849127  31.2991095  52.8295898  46.0494804  30.2112412  52.2295570
  39.1753507  69.7595692  15.1928174  38.7189460  69.7679663  14.3514740
  39.6491957  70.5909157  15.2165580  31.6204023  21.1274576  45.6763887
  31.3841128  20.3631973  46.2020350  30.9311247  21.1854768  45.0147533
  42.7380848  14.8735118  61.9954777  43.4878826  14.7346413  62.5740528
  42.9449081  14.3674827  61.2097359  15.1872230  61.2582827   3.8161397
  14.9074304  60.8739042   4.6469223  14.8269272  62.1449900   3.8290960
  23.7717175   3.0922714  59.5263910  24.2321873   2.2561929  59.5983028
  23.7408876   3.2686219  58.5860825  68.3772135  52.9970121  42.8584576
  69.3261480  53.0996561  42.9306984  68.1069565  53.6877966  42.2534657
  68.8592196  15.2099621  62.9192448  68.2596684  15.5167770  63.5994148
  69.3587637  15.9879971  62.6715517  75.4007292  48.6552715  41.8676662
  75.4385614  47.8905582  41.2932014  75.8149862  48.3650827  42.6803255
  12.2471464  72.9147863  56.8466711  11.4413178  72.4013519  56.7896128
  12.6161599  72.6873064  57.7000856   8.8421232  51.8946028  57.7824736
   8.4152734  51.4355707  57.0590639   8.1852573  52.5188160  58.0908918
  58.9938545  62.7852583  31.8963480  58.8927937  62.1061945  31.2293458
  58.3601475  62.5511217  32.5744534   5.9763080  28.0661678  56.5489006
   5.5770600  27.8433514  57.3898458   6.7328763  28.6057520  56.7784357
  75.7150936  23.5830331  51.5868521  75.3215885  24.3071270  51.0999441
  75.8526850  23.9330721  52.4670601  39.2095685  73.1940651  50.8130264
  38.5912323  72.9615736  50.1203203  38.9453602  72.6570749  51.5600634
  73.1249571  66.6697741  26.5905190  72.9823399  67.6096058  26.7028189
  73.6513186  66.4151573  27.3483753  48.4693480  10.2521276  25.5414510
  48.5422421  10.1269686  26.4876294  47.5270796  10.2668512  25.3736877
   1.1620494   0.3933154  45.6815863   0.2849360   0.0124282  45.6387854
   1.0104342   1.3316992  45.7942057  14.1988456   5.7107866  56.5901041
  14.2442656   6.4917845  57.1416569  13.7122118   5.9925777  55.8155012
  33.6979580  26.9458318  51.0599804  32.8757381  26.8306088  51.5363312
  34.0447783  27.7790499  51.3788795  72.0775700   1.9090612   7.7345401
  72.5133944   1.1151274   8.0443084  71.7760658   1.6884670   6.8532538
  50.7794809  25.5180979  35.0944686  51.4173460  26.1335182  34.7330618
  50.0013876  25.6314945  34.5486259   1.9167557  34.9153233  57.5856304
   2.0693427  34.6296763  58.4863853   1.4214255  34.1992760  57.1879435
  77.0231104  62.6751089  20.0294590  76.9547081  62.5910330  20.9805012
  76.1737013  62.3801517  19.7012258  28.8928127  71.2851524  41.6247988
  29.7120094  70.7904148  41.6443586  28.3016562  70.7921982  42.1937943
   6.2164575  44.4610739  62.7068949   6.6645360  44.0679693  61.9579411
   5.4398394  43.9162350  62.8343439   2.0982812  24.3469095  45.2121258
   1.6933434  24.5831680  46.0466576   2.9106894  24.8525429  45.1884651
  66.4515257  60.9963655  42.6653481  66.3249493  61.3695621  41.7930317
  67.3595715  61.2043762  42.8853941  77.5366592  26.3832283  54.7506046
  77.1277332  25.6906509  55.2695894  77.7136087  27.0818424  55.3805733
  26.5240097   1.2781216  47.8745794  25.8462811   0.6120700  47.9898643
  26.1670208   1.8711455  47.2134352   3.5720575  69.4050026   6.0513127
   2.9757997  69.7711039   5.3981078   3.9091846  70.1673603   6.5218341
  33.4340096  62.6498270   3.8555032  33.8822341  63.4724474   4.0520221
  34.1394281  62.0346689   3.6549979  69.8051453  32.3706961  55.4685783
  69.9520111  33.2364321  55.0875759  69.3123102  32.5426006  56.2709475
   0.1099797  10.3621411  47.1640730  -0.5101804   9.6914941  46.8779612
   0.5597087  10.6300080  46.3626862  46.1999607   9.8455751  40.8428478
  45.6995869   9.2570347  40.2776289  46.6652060   9.2630154  41.4431858
  21.6527963  27.5112033  48.5693407  21.5594649  26.6291833  48.2093954
  22.2532725  27.4064064  49.3073654  71.6457462  74.2555141  35.2725959
  70.8475971  74.1299105  35.7858348  71.6686058  73.5057688  34.6779633
  21.6726303  64.2687988   4.0196326  20.7746363  64.0469170   4.2658228
  21.9181085  64.9735880   4.6190000  16.5732813  42.9179478   5.3069311
  17.1844089  42.3164654   5.7323420  16.9252992  43.7883949   5.4930335
  37.1508288   2.6083335  47.4708223  37.2797608   3.4032005  47.9883099
  36.5274191   2.0898491  47.9795122  63.0578899  38.2710695  64.4505596
  62.4615097  38.8824487  64.8827410  62.4838543  37.6834607  63.9592075
  11.5129340  56.4304447  57.1734238  11.5062845  57.1823168  56.5810728
  12.1985376  55.8590412  56.8274736   2.4474922  23.7114120  29.4481468
   2.6629350  23.2235074  28.6533093   2.1465053  23.0439639  30.0647092
  27.5981184   1.5305318  63.4670691  28.2929750   1.9433083  63.9799233
  26.9179722   2.2009053  63.4020061   9.8857820  36.4675927   0.1214918
   9.8056811  36.8945074   0.9744631   9.1176265  35.8992791   0.0650183
  43.4584093  23.8041520  56.2670088  43.8179493  24.4325161  55.6408167
  43.5601282  24.2295671  57.1184254  44.6471119  70.1320648  23.0775905
  45.4919434  69.9543476  22.6641846  44.5944786  71.0871220  23.1140327
  12.2384083  28.9905047  47.4510193  11.5824783  28.2969928  47.3801088
  11.9380236  29.5304394  48.1820965  52.2625585  29.7032036  64.4155314
  51.5068766  29.3283524  63.9631362  53.0196043  29.2914500  63.9989107
  70.5653763  36.0906053  50.8766079  70.8847094  35.1969790  50.7513475
  70.6740141  36.2546730  51.8133640  66.1115789  59.0428638   0.6428665
  65.5427980  58.9131403   1.4017415  66.4351702  58.1666851   0.4335190
  25.4511333  72.2020674   8.4876865  25.5407310  71.3548946   8.0512202
  25.9084964  72.0915937   9.3212605  58.7428665  71.1120796  49.4237757
  58.3875751  70.2251482  49.4816828  58.4588051  71.5371895  50.2329826
  50.6673861  10.8132517  56.7530632  51.5843916  10.5478287  56.6831827
  50.5548573  11.0455441  57.6748085  37.2180033  10.7115138  60.5934954
  36.3688135  10.7915270  60.1590919  37.3076701   9.7756964  60.7736015
  68.5750866  58.9001036   1.7768022  67.6530600  58.9284992   1.5212835
  68.9205313  58.1210470   1.3409512  24.4664478  49.1787243  11.0803807
  24.7044635  48.3113337  11.4078140  24.3245149  49.7018957  11.8692911
  15.9029806  39.0534115   5.4034227  15.2656794  39.6976185   5.0950760
  16.7536283  39.4367886   5.1897544  75.4585171  32.8137803  53.4342766
  75.3229189  31.8807626  53.2689762  76.0147238  33.1065631  52.7123737
  67.1871042  45.9686089  10.5550838  66.8494654  45.8077621  11.4361966
  68.1386852  45.9628057  10.6584764  -0.1590656  69.3212080  48.4165955
   0.4982792  69.6265364  49.0418196   0.2936267  69.3227434  47.5732088
   1.6938901  21.1708713  61.3316107   2.4547319  20.8461595  61.8131876
   0.9670713  21.0897923  61.9491816  64.1354275  37.8926897  11.1059093
  63.4120464  38.0201316  11.7196798  64.6593714  37.1926022  11.4952564
  18.5455310  42.8436327  61.4063311  18.2825756  43.2465124  62.2338438
  19.5023227  42.8417492  61.4342356  67.3323393  25.2993608  63.2851982
  67.5447702  26.1732173  63.6130381  67.7514935  25.2575779  62.4256659
  36.2412810  63.2069588  20.8683085  35.9645724  62.3102760  20.6795645
  36.5398526  63.1791592  21.7773271  67.7289867  43.2898903  13.6880243
  67.2152424  42.7904940  14.3227684  67.1220207  43.9514112  13.3560419
  13.8308465  71.3070822  38.7437272  13.0908740  71.8979311  38.8836122
  13.7900460  71.0883760  37.8127408  44.8958397  56.9586802  22.6891088
  45.2581024  57.0116758  21.8046927  44.0414953  57.3853874  22.6239562
  32.1969962  22.8511405  51.9114208  32.7277756  22.1074438  52.1967602
  32.8150201  23.4285188  51.4631891  51.3083220  33.8512635  55.4298639
  51.5930080  34.5129633  54.7995138  50.3967237  33.6751795  55.1970243
  31.9188142  19.2917478  42.3760033  31.6160965  19.3038869  41.4680147
  32.2508168  20.1762843  42.5296354  43.3656788  67.7847290  14.6909595
  43.3941364  68.4489393  14.0023041  42.4715853  67.4444437  14.6587169
  39.9152255   3.5078093   1.8924575  39.9071550   3.0588019   1.0471415
  39.0153694   3.8119647   2.0107022  68.4759998  72.9742098   5.2852899
  68.5370445  73.5992098   4.5628792  68.0259705  73.4545946   5.9802264
  44.0660620  33.1256580  53.5962772  44.7222519  33.0988550  52.8999090
  44.5761633  33.1894684  54.4037151  71.9135141  26.3459492  49.3908882
  71.1957169  26.9722080  49.4846869  71.4815760  25.5134678  49.1994810
  31.8363833  40.6386852  61.7445469  32.0874453  39.8768711  62.2668886
  30.9083867  40.5026960  61.5533447  43.4454918  21.4045072  57.5869560
  42.6674509  21.9465423  57.4562645  44.1748619  21.9642997  57.3207235
  41.3156462  46.9214582   0.5176594  41.1926508  47.6542044   1.1211381
  41.8855858  47.2691679  -0.1682722  72.7890682  69.3998766   3.9050922
  72.3944426  70.2067995   3.5743752  73.7149715  69.6148252   4.0179381
  12.8248477  15.9226799  17.3344016  13.0100560  16.1655188  16.4272308
  12.5753748  14.9996722  17.2891116  59.7980833  43.8308001  11.5815580
  59.7445202  44.6205187  11.0433090  59.4131660  44.0858603  12.4200201
  75.6093073  38.2912493  23.3253908  76.4101791  38.6052680  22.9055858
  75.7418728  37.3478818  23.4187460  16.2472594  11.7519236   1.9842176
  16.5736473  12.5711346   2.3565038  15.7481968  11.3482189   2.6942807
  36.9988036  19.3808699  49.5423937  36.6380167  18.9030266  50.2892113
  37.3761058  20.1731849  49.9246407  57.4049950  30.1832604  62.5818920
  56.7022038  30.4273534  63.1841707  57.5351810  30.9602618  62.0382404
  36.3821483  34.3503952  61.7404699  36.5735984  34.4022822  62.6768923
  37.2171807  34.1114402  61.3381624  34.3722367  23.5115504  58.8030148
  33.6713290  23.0511665  59.2645407  34.1871047  23.3619523  57.8758812
  46.7946005  22.7412033  56.7266750  47.1948147  22.4214101  55.9180975
  47.0016479  22.0708466  57.3778152  59.2179060  17.9368174  62.7714157
  59.1637850  16.9815207  62.7980614  59.4912767  18.1363463  61.8760490
  72.2675037  49.4513512  42.9155254  71.7570925  50.1914597  43.2440948
  73.0069399  49.8537683  42.4599791  19.2014623  52.6580715  11.9366443
  19.1434324  53.6114597  11.8740714  19.6550071  52.3927021  11.1365783
  28.7370682  15.2305496  60.3553391  28.7105417  14.4438159  60.8999300
  28.7581491  14.8996735  59.4573927  37.8381419  58.3833408  47.7927399
  38.1268191  58.7671232  48.6207533  37.9457402  57.4401617  47.9155111
  60.8583450  62.1542501  53.1653690  59.9288368  62.0690536  53.3774567
  61.3095093  61.9784451  53.9910698  51.9117212   9.9890977  47.6606417
  51.0269547   9.7115248  47.4232054  52.4692345   9.6271402  46.9718742
  70.1421785  23.9579415  49.4857979  69.4061518  24.5301890  49.7026539
  69.7743654  23.0745959  49.5112133  46.4849997  33.1509757  52.6305962
  46.3435888  33.8897943  52.0386648  47.0822668  32.5737953  52.1548176
  32.2491622  71.0050917  10.2494466  33.1916571  71.1386347  10.1489472
  31.9167423  70.9597683   9.3529677  13.7408638  73.1842041   1.7744941
  12.8142071  73.3213711   1.5777096  14.1815817  73.2786942   0.9300590
  57.7154684   6.7145795  20.5397415  57.0677376   6.2291640  20.0288129
  57.6653624   7.6089233  20.2022958  57.0575333  66.5931320  19.3630826
  56.5684605  66.0647964  19.9938738  57.7857161  66.0327482  19.0948534
  37.4732685  20.5584359  23.2452106  36.9854259  19.7402096  23.3387446
  37.7318072  20.7865596  24.1381550  20.5142903  17.4505103  55.8565950
  21.1622095  18.1012380  55.5864334  19.9648654  17.3240972  55.0830412
  40.2015543  31.1743522  58.0501461  39.6142840  31.1044765  57.2975111
  40.3883505  32.1103883  58.1221008  36.1735654  47.8281260   7.3985833
  36.4625525  47.4900532   8.2461816  35.2405071  47.6176119   7.3622596
  55.3766727  68.1719255  25.7508254  54.9158621  69.0048170  25.6499457
  55.1920414  67.9035330  26.6508865  30.9139824  36.4031124  63.0402422
  31.4556623  37.1269369  62.7257681  30.5594039  36.0060954  62.2447014
  49.6090460  28.8201213  61.6267538  50.4905844  28.9972615  61.2985086
  49.1169834  28.5427094  60.8540010  45.9269285  34.9761844  55.4975319
  45.3828859  35.3639603  56.1830091  46.1749411  35.7151079  54.9419117
   0.5459972  54.7704124   2.2919914   0.4807935  55.7249212   2.2620299
   0.0484917  54.4723368   1.5304989  75.2486801  23.1177855   7.9506379
  75.3238297  22.8279305   7.0414799  74.9941349  22.3309398   8.4326261
  46.4330626  26.6258907   8.9297336  46.3881826  27.4850583   9.3493176
  45.9877443  26.7454410   8.0909067   7.9671836  47.0425844  36.7077899
   8.5459650  47.0941877  37.4684334   8.5373926  47.2224712  35.9603047
  12.7864301  66.0703421  39.8284292  12.9497015  66.3461590  40.7303715
  11.8470585  65.8887005  39.7998381  57.2563934  51.5045929  60.0288916
  57.7721691  52.2531462  60.3286791  57.8814268  50.7803202  59.9972725
  46.5616322  65.5753374  51.1895132  47.3014784  65.0067139  50.9761572
  45.9030819  64.9845600  51.5549231  12.7620554   5.7681471  10.0181317
  11.9964767   5.7163942  10.5903566  12.4977815   5.3067809   9.2221844
  32.0757318   0.8542854  17.3939693  31.6139555   1.2566468  18.1295645
  31.7407846   1.3109197  16.6222644  41.8689585  68.0149937  46.8479013
  42.7461720  68.3751631  46.9783211  41.2797499  68.7458754  47.0346594
  51.0720587  31.0287881  49.8808527  51.6541052  30.2726007  49.9558687
  50.4631138  30.7938004  49.1807079  79.0686159  50.1214600  33.4629774
  79.4799971  50.0282717  34.3222308  79.1458641  51.0537577  33.2602882
  21.2850618  15.6269467  10.1957738  21.6838789  15.9297419  11.0115516
  21.5135360  16.2989914   9.5536005   5.3516585   3.0534944  15.5407727
   5.3459841   2.0968859  15.5739343   4.6883532   3.2744247  14.8869777
  21.6572976  15.5422175  64.2121267  21.9560790  14.8679459  63.6019468
  22.3500013  15.5931544  64.8707628  36.1191702  67.0158625  46.4761496
  36.9647241  67.2485876  46.0926104  36.2220168  67.1968365  47.4104452
  45.8230543  44.2773294  41.4015341  45.4042625  44.2499447  42.2618198
  46.4491415  43.5534430  41.4167786  50.7224941  47.7129555  53.8125134
  49.8580360  47.3156548  53.7071800  51.3325977  47.0460415  53.4975004
  22.1213412   1.5995722   1.4322020  22.7599788   1.2169877   0.8305361
  21.2716055   1.3899268   1.0446031  36.5639138  21.0670209  12.4093199
  36.8016934  21.9799709  12.5712323  37.0003462  20.8482504  11.5859747
  61.5858555  55.2715254  24.8916817  61.9925261  55.1788855  25.7532310
  61.4115715  54.3730736  24.6112394  70.0169182   5.4434907   2.7025193
  70.5252171   4.7167909   2.3422793  70.5302191   5.7467872   3.4513637
  18.9253795  37.0159507   7.6430231  18.9577007  37.0375633   8.5994327
  18.0714440  36.6336751   7.4408096  41.2461948  25.4714847  54.8683643
  41.8366098  26.2156796  54.7508192  41.8065643  24.7718906  55.2042007
  15.4623985  70.1899862  15.9519577  16.2960279  70.5307722  15.6276774
  15.3544199  70.5986166  16.8107903  71.2936640  17.1454406  13.1029475
  71.3071108  16.2758815  13.5028458  70.3693533  17.3083401  12.9149425
  26.7690229  61.3194895  43.3603096  27.6378560  61.1443949  43.7218380
  26.6881967  60.7110977  42.6257610  71.7372513  73.0986309   9.1694504
  71.9867802  73.7500525   9.8249006  71.4154148  73.6141014   8.4298933
  46.5424252  65.2348995  32.7232718  47.1123695  65.7156944  32.1230745
  46.6597319  64.3163681  32.4808431  77.6304150  24.5526671  14.2436576
  76.8964052  25.1238585  14.0173841  78.4041548  25.0220942  13.9318907
  11.5440142  59.7819185   9.9438155  11.9136870  58.9583874  10.2621961
  10.6517231  59.7936440  10.2900982  70.4918146  66.3313866  15.0357878
  70.8044767  65.5246449  14.6263504  71.2894630  66.8064880  15.2687287
   6.9317150  25.8867383  38.2463479   7.6724517  26.3011456  37.8038454
   7.2413832  25.0061178  38.4581184  32.7095938  47.9058552  55.4759598
  32.2010899  47.7121401  54.6884775  32.3666000  48.7454414  55.7820368
   9.6638733  57.5403547   8.1894797  10.3268993  57.0869255   7.6688749
  10.1634276  58.0078316   8.8589156  25.2773619   8.4720677  63.9930487
  25.6301808   9.3342763  63.7731743  25.5601239   7.9070842  63.2739735
  43.3184385  13.5387671  21.0062599  43.5446119  12.6193213  20.8659172
  43.6561012  13.9893305  20.2321744  53.2178354  36.4458466  42.9887629
  53.3672142  37.0400333  43.7241936  52.2673607  36.3367772  42.9582071
  42.2877693  64.6789503  40.7968521  43.0334949  64.6299887  41.3949537
  42.3784494  63.9076281  40.2373266  63.1724358  15.1555622   1.0203113
  62.6693678  14.7529602   0.3124508  62.7440166  15.9984803   1.1692423
  68.9040947  14.1870511  42.1939659  69.6794224  13.8839257  42.6664162
  69.1803217  15.0047147  41.7800140  47.5363922  30.1890707  42.1837091
  48.2595491  30.7307005  41.8676186  46.7529678  30.7115555  42.0119667
  23.3632112  56.9072294   5.2092075  22.7245164  56.4434671   5.7507086
  22.8433967  57.5424337   4.7167251  33.5125470  18.0945909  62.0654964
  32.8091049  17.5350404  61.7363977  34.3038201  17.7558708  61.6467047
  48.9502668  22.3917246  44.8577356  48.9799690  23.2759166  44.4922829
  49.8619461  22.1000791  44.8535395  71.7027521   6.0188490  20.0938940
  71.4016104   6.1912125  19.2017984  72.2232676   5.2188933  20.0206161
  48.8028049  61.0329771   4.6521527  49.2677116  61.4349604   3.9183226
  49.2374325  61.3811874   5.4306644  58.2755566   5.6049430  42.6792145
  57.4998379   5.3480732  42.1807003  58.3796978   4.9137831  43.3331871
  78.5422802   7.4280590  51.2526035  77.9108810   8.0725229  51.5723372
  79.3646479   7.9128444  51.1824036  64.3496847  53.4321928  54.4327879
  65.1741838  53.8642597  54.2097378  63.7290955  54.1502094  54.5574999
  22.4243712  68.2558584  62.6360846  21.8978381  67.5471306  62.2663593
  23.2735229  68.1750631  62.2017527   5.1960313  31.4483190  58.0946445
   4.9817374  32.0174932  57.3554850   5.9231126  30.9109783  57.7802420
  47.3749971  37.8841710  43.3137798  46.7198753  38.1712890  42.6776934
  47.1143579  38.3054638  44.1328096  68.4037685  61.8362427   9.6054715
  68.5590172  62.5190926   8.9529055  69.0037870  61.1313343   9.3619186
  75.6760502  32.4673367  49.4842005  76.3574505  31.8805742  49.8122787
  75.3241396  32.0193052  48.7150097  68.6698818   1.3560759  54.0267992
  68.8190842   0.8235994  53.2454920  68.9765167   2.2295761  53.7834787
  56.8544531  25.9679031  31.8150854  56.0823298  25.7239175  32.3255014
  56.5523815  25.9633923  30.9068084  63.0034161  31.4106154   3.4826270
  62.7877092  31.4775562   4.4128004  63.9585114  31.4670205   3.4535810
  19.8620331  14.7574389   2.6472235  18.9781880  14.7630763   3.0146688
  19.9391437  15.5980170   2.1958765  39.7365928   6.7695385   8.1966448
  40.5010176   6.2717795   7.9066020  39.0152550   6.4316231   7.6658750
   0.0431609   0.8137878  49.7456169   0.7601094   1.3908514  49.4825220
  -0.6461597   0.9797319  49.1025496  32.7986789  69.7903347  63.1102848
  33.4220529  69.0965319  62.8951693  32.1503878  69.3644094  63.6711216
   7.7061617  14.0350842   3.3254087   7.0967162  14.6742690   3.6945295
   7.3654997  13.1871128   3.6102343  65.0123501  58.7489462  49.1569090
  64.5482635  57.9125404  49.1211081  65.6996250  58.6700201  48.4953499
  50.0482464  36.8211079  39.7248435  49.6167755  37.4607682  40.2913237
  49.9561596  37.1816087  38.8429189  51.9749260  27.6100731  54.9772644
  52.7817392  27.0995545  54.9090672  51.3375044  27.1213293  54.4566298
  77.5600815  29.2219901  13.0934310  77.6469421  28.9368558  14.0030384
  76.6156149  29.2498517  12.9403102  76.5570545  47.2561693  48.8073683
  76.0619831  46.6115665  49.3129635  76.6751194  46.8482924  47.9495049
   2.5664335  20.4149985   5.4558873   2.0502737  21.2071252   5.3063959
   3.3915344  20.7324719   5.8228356  13.1925082  15.7007492   1.0495803
  13.3288264  15.0112796   0.3997487  13.3256853  15.2658057   1.8917915
  42.1365929  61.2080193  50.3470135  42.4071789  62.0497036  50.7138729
  41.2605238  61.3698626  49.9969435  48.8246393  58.2368135  57.7417946
  48.9474440  59.0272141  58.2675505  47.8873301  58.0522966  57.8020668
  37.4316120  27.7924871   3.0832577  36.7243576  27.5257587   3.6705214
  38.2117057  27.3669624   3.4390858  52.6358700  27.0898819  34.1038775
  52.9095650  26.5322971  33.3755755  52.5615120  27.9641747  33.7213659
  63.0711222  19.2889059  58.2155609  62.1374655  19.4071114  58.3903170
  63.1662083  18.3517313  58.0455780  77.5479269  15.1099253  58.9261389
  77.2247744  15.7564211  59.5537090  76.9341135  15.1598239  58.1933498
  41.7246008  63.1169796  35.1008582  40.8617544  62.7879190  35.3527498
  42.3355246  62.4475908  35.4089475  47.6663876  42.2105694  41.5468884
  46.8323231  41.7688847  41.3872576  48.1663322  41.5927458  42.0803452
  68.4601021   7.0103180  20.6258273  67.6599360   6.9037455  20.1114249
  68.9022350   6.1639738  20.5591083   7.5756669   6.5310997   6.0331589
   7.2293204   7.2789866   6.5199244   7.5250626   5.8001959   6.6491550
   4.2841807   5.6822127  58.0553818   5.2249390   5.8365345  58.1413507
   3.8947001   6.1647135  58.7845802  46.1959124  48.3753395  53.1653166
  45.2449322  48.2709122  53.1342745  46.4602137  47.9253054  53.9677143
  37.4140906  27.5166583  62.9175282  36.6678572  26.9198394  62.9738903
  37.7283454  27.5929499  63.8184452  78.7553706  74.3494368   9.3883371
  79.2816888  73.5710716   9.2056710  77.8763367  74.1204166   9.0865421
  24.7287846  53.6368132  47.4553776  24.6544409  52.7064896  47.6679850
  25.1412058  54.0264702  48.2262945  20.2198458  28.0879354  51.1467600
  20.1653600  27.1857381  50.8316374  20.9975767  28.1002259  51.7046261
  42.4650908  41.4429092  63.5632467  42.6272821  40.5192947  63.7552261
  43.2707024  41.7454767  63.1441021  26.0419798  61.3950396  46.1374712
  26.3353515  61.4877367  45.2310658  25.5845690  60.5544138  46.1563826
  20.1161289  17.6048279   1.2723897  19.6107221  18.2939422   0.8412062
  20.9270215  18.0358279   1.5424336  18.4670842  70.9117460  50.8110046
  18.2679605  69.9916983  50.6375170  17.9721928  71.3930655  50.1479483
  27.0849538  35.6655645  61.8697119  26.7527270  34.8308325  62.1999836
  27.9339933  35.4496861  61.4840174  17.1040857  36.4905000   3.9733809
  16.7637491  36.9544125   4.7383571  17.4161863  37.1839261   3.3920154
   3.7455004  18.3171570  16.6820610   4.6924824  18.2111561  16.5913916
   3.5510862  17.9914200  17.5608838  75.6919193  31.4711976   5.5848968
  75.9729910  30.8703399   6.2749702  74.8118067  31.1747670   5.3530419
  20.7099414   6.1237764   6.1370873  21.6402960   6.3084269   6.2658238
  20.6877089   5.2269578   5.8032405  53.0500841   3.9334410  61.1751699
  53.6301661   4.6817768  61.0347033  53.6057997   3.1683958  61.0264397
  46.3455725  50.4773808  48.8990831  46.2313795  51.3537645  48.5314560
  46.2310314  50.5963659  49.8419285  24.0049338  18.4192884  11.7562890
  24.6826887  18.0917740  11.1650062  23.5562515  19.0989149  11.2532735
  54.1039371  29.5831013  59.0005016  53.2584620  29.9963427  58.8254881
  54.5488310  29.5796037  58.1529808  63.4874392  68.6297512  48.3716774
  64.1605949  69.2337561  48.0581951  62.6683712  68.9825773  48.0240011
  41.1144447  19.3574345  62.4069071  41.9716454  19.7778201  62.3382139
  41.0690832  18.7800431  61.6448069  78.4265232  12.1143210  62.6587152
  77.9025841  12.7574956  62.1811676  78.3188057  11.3023555  62.1633959
  13.0317605  42.7996969   2.8066257  12.3149216  43.4338570   2.7921727
  12.6003468  41.9487572   2.7290681  70.7295179  55.2272272   3.9971417
  71.4176750  55.8805513   4.1230208  70.9182787  54.5519447   4.6487492
  38.1970191  33.6115265  63.5321188  39.1372538  33.6569834  63.3585501
  37.9756737  32.6880407  63.4120750  14.7719812   5.8735335   5.8403140
  13.9276159   6.2913257   6.0098082  14.5467532   5.0085390   5.4978400
  29.8826909  21.2553573  11.2106395  30.6763721  21.2328744  11.7452407
  29.6559882  22.1837974  11.1574054  45.9368896  31.4310718  47.8297853
  46.5453196  32.1494412  48.0029774  45.3938770  31.7460537  47.1071815
  42.6572371  27.1815038  46.8928242  42.1986008  27.7158713  47.5411606
  43.0022526  27.8136349  46.2622643  10.6757545   5.7987005  11.8008113
  10.5404818   5.9240645  12.7400756   9.7988099   5.8605832  11.4221692
  43.3630228  44.5092869  48.1372118  43.5988140  45.1901102  48.7673759
  43.1307125  43.7535667  48.6767960  47.3900557  44.2165518  37.2141051
  47.8544283  44.1281843  38.0464411  46.8100357  44.9671888  37.3419571
  30.0649381  49.7152185  27.7355123  29.9405432  50.0911713  26.8640661
  30.8115101  49.1243076  27.6370978  43.7191010  53.7310648  47.9347849
  43.1121111  54.2110252  48.4982014  44.5187521  53.6537933  48.4551907
  47.4114180  59.3900871  23.4691215  46.7720890  59.8859596  23.9805937
  46.9384670  58.6062145  23.1896710   1.5644555  58.9442921  30.6917119
   1.1726679  58.5882521  29.8942375   1.2549447  58.3664608  31.3892365
  41.8665934  47.6403093  61.5675402  41.2386179  47.2612381  60.9525681
  42.6259089  47.0591927  61.5231705  47.6016855  73.7978649  42.9283667
  46.6997480  73.4877205  43.0092955  48.0891895  73.2882261  43.5755444
  64.8107672  71.0249805  35.5376387  65.7565880  70.8917665  35.4751396
  64.7079372  71.9720364  35.6311417  32.4286437  65.8021355  11.7578197
  33.1671810  66.0793114  12.3000050  31.9237590  66.6024542  11.6135621
  25.9875894  62.7771091  54.2381763  26.0344768  63.2603312  55.0631237
  25.9306073  63.4560251  53.5658264  63.3917713   3.1310064  62.4076319
  62.8223324   2.4650985  62.7930355  64.2736435   2.8804755  62.6828814
  72.2219992  66.8748522   5.5558097  71.3116217  67.1342897   5.4138911
  72.7355194  67.6100445   5.2211106  50.5710077  36.5005064  43.6040401
  50.1812553  37.0559716  44.2791605  49.8299408  36.0267377  43.2264280
  43.4432507  15.8274972  55.8462763  43.0925035  15.3432417  55.0988150
  44.1797018  16.3221991  55.4869175   3.2769164  52.7639961   3.0144882
   2.8841314  53.4883928   3.5015261   3.4128842  53.1133842   2.1337640
  68.8895559  10.1663375  31.7121363  69.1923141   9.5585424  32.3867893
  68.5358000  10.9095919  32.2006655  68.6504364  23.3750558  56.5762234
  69.3563128  23.8712573  56.9906569  68.0621958  24.0433884  56.2247419
  50.2949572  62.4604082  58.2831764  49.4627619  62.4572134  57.8102350
  50.2591133  63.2482195  58.8256741  67.6103163  59.1067553  44.4446802
  68.3283472  59.7085571  44.6408844  67.3152494  59.3627548  43.5708189
  48.5893202  66.2654066  13.0186534  48.8780117  65.3634548  13.1578112
  48.8900423  66.7358017  13.7961662   5.2513891  19.2087018  51.1048841
   4.8261970  18.5168695  50.5981159   5.5687702  18.7677586  51.8929625
  66.5062428  41.5650415  47.6081228  65.6291437  41.4629602  47.2386456
  66.9483185  40.7401896  47.4070835  34.6470308  74.4913006  60.7163811
  34.4280648  73.5701227  60.5759668  34.5666790  74.8912668  59.8504686
  46.1271477  58.6141634  57.3110533  45.5254793  58.0586672  57.8066874
  46.0319090  59.4813919  57.7048540  15.2442360  13.2288599   7.4460924
  15.9539759  13.4840250   8.0354917  15.5935955  12.4821293   6.9597054
  22.9532933  41.6821241  57.7455950  23.8311505  41.3523293  57.5536823
  23.0669904  42.6284218  57.8340960   7.2094923   7.4272460  27.4928713
   6.6362864   6.7027491  27.7434111   7.8361279   7.0371616  26.8834496
  64.8517895  72.5266886  45.2780581  64.4016838  73.3513927  45.4610872
  64.9727678  72.5254488  44.3285370   5.4913121  70.4092026  47.0923805
   4.9488977  70.8796120  47.7254152   6.3693845  70.4217720  47.4732494
   3.6094776   4.3343055   3.3326390   3.0974680   4.7449094   4.0294048
   4.4265911   4.8323703   3.3105394  57.6187515  14.0683889  14.5965624
  57.0156813  14.1131687  15.3385437  58.2697105  13.4163415  14.8560178
  70.5956316  51.1644411  14.7744131  71.1079645  51.3015747  15.5712450
  69.7237968  51.4953852  14.9903011  30.6084609  23.5889792  53.9889526
  31.0051703  23.0693054  53.2898140  31.3347507  24.0955305  54.3524647
  58.4078312  47.9609394   4.0283313  59.0396738  48.1024599   4.7332984
  57.5936460  48.3428192   4.3561974  20.7834888  69.9198437  60.1288843
  21.2875772  70.4381752  59.5016241  20.6841445  70.4935598  60.8886290
   7.7153349  72.5265694  24.5182586   6.8904161  73.0081987  24.5797157
   8.3577311  73.1847000  24.2528844  72.4987602  69.1138172  42.0798969
  73.0008411  68.5979795  42.7108145  72.7762699  70.0168562  42.2340012
  29.4816399  30.9779310   8.7435669  29.6211743  31.5905523   8.0214471
  30.3628039  30.7663059   9.0517819  36.8378234  58.2932091  40.6180668
  37.1532106  57.6041555  41.2028551  37.4264836  58.2555819  39.8642159
   3.9083767  47.4298573  56.5303040   3.6153045  46.8017101  55.8701754
   3.2584584  47.3629045  57.2298431  16.2530375  48.7746000  45.0503969
  15.2960908  48.7697506  45.0289106  16.5074003  47.9869032  44.5697069
  44.1135645  47.5628042  55.6653023  44.9902201  47.1884918  55.5781507
  44.2225313  48.2869768  56.2816906  30.4471326  14.6728098  23.9427972
  29.7932172  14.8613274  23.2696819  30.4460621  13.7185037  24.0171671
  76.7853785  14.0922594  21.3814282  76.8698359  13.3891010  20.7374811
  76.0690641  13.8109815  21.9506454  61.7607212  49.0708494  51.2406874
  62.3412895  49.7800255  51.5167999  61.2748146  48.8374043  52.0316553
   9.9213547  64.0351391  47.7175045   9.6234000  63.4096050  48.3779335
  10.2372050  64.7844076  48.2225466  69.8036718  19.8179555  36.2451530
  69.0231323  20.0269270  35.7320094  70.3825235  19.3693733  35.6287622
  22.9257298  64.9117804  57.8573465  22.1997976  64.7430229  58.4579945
  22.5076151  65.2489996  57.0650768  37.4137139  47.5638723  54.5080423
  37.8787732  47.8234911  53.7127113  36.6051626  47.1607161  54.1919088
   7.8131342  57.6511526  27.1356559   7.1689689  57.0812035  26.7156005
   7.5884759  58.5308123  26.8324089  73.0742931  59.8769379  29.7535062
  72.8944540  59.3317938  30.5194759  72.3125505  60.4525137  29.6849895
  18.1425261  66.9071102  44.1487694  18.2396376  67.5545454  43.4504652
  18.0907714  67.4263048  44.9512577  40.8985043  44.7246552  57.2858047
  39.9614286  44.7492170  57.4795103  41.0770941  45.5630732  56.8599033
  63.3831406  69.7354364  28.1083703  62.5832701  70.1518440  28.4293747
  63.5979176  69.0832901  28.7753105  25.2061919  34.2250318   0.2010747
  26.0962752  34.5261354   0.3836175  24.6696309  35.0157136   0.2572032
  71.6849709  42.4146795  58.1780958  71.9203186  42.0454359  57.3269224
  70.9979439  41.8358707  58.5085678  76.6417980  66.5409708  20.0052381
  76.0195875  66.0839033  19.4393992  77.4166536  66.6660213  19.4573426
  14.1762304  21.3582134   6.9124299  13.4840977  21.9682956   7.1673477
  13.9578497  21.1100245   6.0141295  61.5255165  50.7351065  61.9080687
  61.3316441  50.6485033  62.8414202  62.4697828  50.5914164  61.8452454
  58.8390493   2.2311188  57.9435539  58.4481049   1.9349238  58.7655401
  59.7469807   1.9313273  57.9884338  40.0663233  39.3698359  55.9175014
  39.7975087  40.0033474  56.5828085  40.1442480  39.8845744  55.1142550
  46.2254333  60.8584738  51.0173178  47.1763086  60.9281683  51.1022282
  46.0842657  60.6069183  50.1046181   8.5269153  21.7685008  37.3696041
   8.7129849  21.6211748  38.2969165   9.3067807  21.4497519  36.9152474
  27.7307868   8.4902352  39.2639709  27.3126984   9.2527515  38.8639665
  27.5217199   7.7656829  38.6744404   0.5145169  47.4718475  17.6905370
  -0.2862535  47.4590826  18.2147849   0.6040536  46.5750265  17.3681569
  25.4328489  27.7803445  61.5202904  24.7683859  27.8859305  62.2011566
  24.9403858  27.8010702  60.6997538  50.8434677  57.6644135  64.0718985
  50.6370258  58.5310698  63.7218714  51.3840961  57.2556639  63.3959723
  34.1705346   2.2287951  10.8806121  34.1390324   2.5031647  11.7971063
  34.5001054   1.3306242  10.9106743  54.0010071  62.0964718  55.9005404
  53.4426403  61.8098211  55.1778412  53.5595322  61.7746305  56.6865110
  40.8346748  16.6773438  54.8545265  40.6468153  17.2705400  54.1271591
  41.7875624  16.5867293  54.8497152  69.6753311  46.7263842   1.4312065
  70.0900316  46.3765907   0.6426017  69.0424633  47.3662901   1.1052796
   4.8984903  55.5119991  46.6754198   5.5507249  54.8421717  46.8807316
   4.5300448  55.2380562  45.8355188  53.7106752  55.9006357  56.3742828
  53.7282085  56.3345575  55.5212688  54.4119453  55.2508640  56.3269329
  66.9325304  35.3166246  25.4761457  67.7061415  35.2803588  24.9136162
  66.1931992  35.2721071  24.8698115  63.6732674  19.6640015  42.6828957
  63.7076902  20.6098390  42.5399303  64.5893288  19.3866038  42.6718521
  68.3882952  68.9363289  40.5318975  67.9935312  69.0947533  39.6744084
  69.3143415  68.7827826  40.3445673  52.4214649   7.2866291  28.8798857
  52.2838449   6.3399732  28.8461971  53.3730078   7.3901814  28.8882685
  40.5480528  68.6102724  50.0179195  40.6778240  67.6769352  49.8497915
  41.2214136  68.8337851  50.6604624  43.6064529  32.2036934  57.9661274
  43.0381441  32.9725313  58.0124044  43.8706303  32.0462179  58.8725758
   4.4691247  12.7797353  60.9204531   5.2099735  12.2161579  61.1435127
   4.0800732  13.0091333  61.7643976  44.4073200  72.1304083  34.1157722
  43.4683847  72.2264862  34.2751646  44.6875572  72.9925680  33.8085556
  49.4541168  65.9408331  63.6999083  48.6959505  66.0218763  64.2785645
  49.1065359  66.1111546  62.8244543  59.9441624  71.4399862  10.5800831
  59.4841480  72.0954084  11.1045229  60.8578300  71.5101099  10.8567131
  34.3883443  68.8880444  51.8655539  34.1673732  69.3001699  52.7007484
  35.3452396  68.8663387  51.8549347   4.3327039  67.9486275  44.0672112
   3.6743739  67.3679304  43.6855984   4.0955684  68.0039263  44.9929190
  24.8200870  48.2774067  56.7969227  24.1516924  48.3537579  57.4778414
  24.7534299  47.3710442  56.4964342  34.5808077  55.2235794   0.1886372
  35.4127669  55.1390743   0.6543976  34.2134428  56.0498667   0.5025252
   6.5839481  49.1084433  24.9355841   5.8131737  49.6760082  24.9327016
   6.5812409  48.7052393  25.8037162  44.3259096  61.6253710   2.6526877
  44.5735550  62.5496435   2.6775911  45.1495457  61.1533403   2.7753374
  47.7486563  55.7776594  13.3581626  47.1838427  55.0996971  13.7290883
  48.1454372  55.3654194  12.5907922  10.2721691  28.4393907  10.3026867
  10.9920037  28.8541746   9.8272657  10.5394924  27.5245810  10.3915381
   5.1845676  12.4481809  13.1299865   4.7204828  11.7721999  13.6238551
   5.0774008  13.2428324  13.6527455  12.1841872  31.1082721  49.1924667
  12.8931606  31.5167618  49.6891785  11.8299735  31.8161941  48.6543083
  41.4629030  52.6032877  56.1665297  40.8467579  52.1607304  55.5827999
  42.1241331  52.9726982  55.5812597  35.3848290  15.5352080  63.6217308
  35.7056952  16.3529778  63.2415628  34.4928098  15.4485667  63.2855415
   1.9515480  44.0614605  46.6671228   2.5081897  44.3141270  47.4036980
   2.3738682  44.4528341  45.9024668  44.4124413   3.6318871  23.1192827
  44.9165297   4.3953326  23.4008503  44.8114395   3.3746979  22.2880864
  54.4100666  62.3874903  63.7330103  53.7448931  61.7058039  63.6377096
  55.2163172  61.9816160  63.4145021  72.8967381  57.8850508  20.5684900
  72.2602558  57.9806995  21.2769890  72.4078274  57.4616480  19.8628485
  69.5608711   3.9824450  52.8962278  70.2021360   4.5253637  53.3547592
  69.7181702   4.1579163  51.9684887  13.5861099  27.4888182   1.3432774
  13.9816654  28.3556128   1.2514330  13.3111823  27.2558260   0.4565073
  58.3399010   4.3091846  45.0902414  57.4003077   4.3490210  45.2685833
  58.6911774   3.7472445  45.7809401  34.8792648  57.1559429  47.3144293
  35.4100227  57.7814865  46.8212557  35.1548409  57.2724581  48.2236671
  59.9565840  21.5908408   3.4912351  59.4856691  21.3145566   2.7050176
  59.7450113  20.9235358   4.1440558  42.2275925  69.2898798  57.1773767
  41.8888712  70.1800680  57.2725821  41.8934917  68.9958429  56.3299417
  62.5265741  17.7605176   1.9064051  62.8440714  17.4150288   2.7407098
  61.7277908  18.2368577   2.1328470   6.7580271  12.0135128  42.3368025
   7.5116646  11.5632010  41.9553852   6.6546679  11.6169512  43.2018375
  61.3749409  57.1744251  34.8430085  62.2350311  57.5218201  34.6067977
  61.1715841  56.5465546  34.1497135  76.9074011  20.0669718  30.6299281
  77.3018360  20.2899408  29.7867537  77.6527929  19.9385345  31.2165546
  62.1051931  37.5418711  41.8490171  61.5637350  37.9323268  41.1630106
  62.8928852  38.0852818  41.8707895  40.7026958   6.1249179  16.0533881
  41.2591696   5.6241012  16.6498387  40.1650810   6.6697991  16.6281104
   6.6530520  23.6443472  47.5299072   6.3943613  22.8387427  47.9774761
   7.2626507  24.0686393  48.1337261  76.5139818  10.2430522  43.5501528
  75.7358932   9.6886104  43.4917688  77.0393419   9.8461187  44.2448997
  43.0724382  69.7044468  35.5346203  43.9767981  69.5606136  35.8133125
  43.1020832  69.6357870  34.5803475   0.3477871  68.4750748  59.5038128
   1.2635919  68.5639191  59.2399168   0.2944439  68.9341879  60.3420210
   3.1533593  22.0759368  26.9597054   2.3947884  21.5051317  26.8372941
   3.6498928  21.9922900  26.1456466  38.7962437   1.0955977  45.6879044
  38.1765175   1.4774653  46.3094759  39.6575904   1.3087402  46.0469103
  62.7487946  14.3830538  49.7271776  61.9286251  14.2401814  50.1995564
  63.4051323  13.9093971  50.2381516  27.2916865  56.2480402  52.8273582
  27.5688362  55.7211590  52.0778131  26.3505220  56.0882902  52.8975153
  45.2830935  38.2551551  52.5031328  44.4613695  38.1020832  52.9695749
  45.0258446  38.3348846  51.5846014  66.9625998   5.8878666  39.8698068
  66.1710882   5.5977625  40.3232193  66.6720676   6.6192919  39.3249774
  77.9051161   1.8896002  47.7057314  77.3484087   2.6380897  47.4910831
  77.4155903   1.1292318  47.3919868  17.6943302  21.0159707   1.3990808
  18.1445813  21.7502046   1.8167001  16.8225360  21.3544202   1.1949779
   3.9747247  12.0673943  55.6585121   3.3464301  12.7674174  55.8358431
   3.5754085  11.2850976  56.0390282  66.9828224  65.5782270  49.6617794
  67.1444178  66.2208366  50.3525543  67.6646233  65.7486057  49.0118933
  43.1883335  24.1339636  52.5397825  43.7913465  23.3907413  52.5247717
  43.0340815  24.3359208  51.6169310  43.9692831  73.8560581  36.7149496
  43.8249302  74.7691059  36.9634032  44.6899128  73.8900852  36.0858512
  40.8535194  33.5886478  63.0797195  41.4843607  32.8940034  63.2687616
  41.0811949  33.8856959  62.1987200  16.9321299  33.1670427   9.6128887
  16.9872880  34.0233374   9.1886860  16.1182368  32.7875710   9.2815107
  54.5411825   1.8765026  20.3296304  53.7541246   1.4091507  20.0497127
  54.6186686   1.6776760  21.2627411  35.5531526   8.2940644   5.8218825
  36.3960934   8.4216797   6.2570798  34.9344659   8.1454909   6.5369958
  21.0021448  20.1552033  55.0995731  20.5852342  21.0164380  55.1258612
  20.7695627  19.8026347  54.2405987  22.4851203  29.3985128   3.9537865
  22.1633601  28.6380529   4.4379419  22.4482131  30.1173377   4.5847851
  67.5031519  56.4698648  44.3439102  67.5507498  57.4243116  44.3986225
  67.8489590  56.2621784  43.4758615   1.5080100  11.9943798  12.4509501
   1.1866014  12.5926340  13.1255031   1.6088086  12.5426638  11.6728401
  60.2792025  68.3277369  20.5639863  59.9720335  67.7462721  21.2595296
  60.9705830  67.8319979  20.1252699  60.4096460  55.4517698  58.6617899
  60.7518721  56.1081219  59.2686749  60.9239101  54.6653938  58.8444948
   0.7085200  26.7249346  32.8489947   0.1373406  27.4781227  32.6983404
   1.3165732  27.0174670  33.5279083  47.3664045  29.9733663   2.2027138
  46.9843912  30.1274943   1.3386868  46.6230249  30.0155401   2.8042471
  20.7375503  23.0905247  46.7274380  21.0507941  22.5802898  45.9805965
  19.7999549  22.9024601  46.7696428  51.9241476  11.3695550  38.2310581
  51.8555832  12.2733593  38.5387397  51.1770916  11.2594712  37.6428270
  21.6773844  39.4981670  50.1537895  22.4357772  40.0037527  49.8614597
  21.0360026  40.1584911  50.4161453  14.3744743  25.5093503  45.6923389
  13.5291159  25.1112700  45.9000254  14.1526747  26.3665438  45.3286648
  54.9695635  45.7327271  54.6334076  55.4852724  46.4862871  54.9204922
  55.5878115  45.1931190  54.1406345   5.8862799  43.9570379  32.8778005
   5.3944421  44.5800352  32.3428273   5.5121595  43.1040907  32.6570058
  68.7908268  19.4007850   6.5158206  68.4716940  19.6892965   7.3708928
  68.1433773  18.7597585   6.2223506  31.3706779  26.6605926  52.3084211
  31.1584735  26.9898176  53.1818104  30.6172967  26.1222792  52.0657969
  20.1529980  12.3641968   0.3339535  19.5175219  12.9346406  -0.0984765
  20.4388261  12.8615773   1.1002087  45.5466318  70.6665182  47.7643251
  46.0348272  70.6674385  48.5876703  45.8793163  71.4270687  47.2877598
  26.4837956  31.4248657  59.7774935  26.5824962  30.5553007  60.1652336
  25.7645345  31.3285470  59.1532993  11.2634695  52.1859026  38.0554247
  10.5742884  52.8439283  37.9645181  11.4955556  52.2088194  38.9837790
  77.2675371  65.5698824  59.8838377  76.3210773  65.4572296  59.9718952
  77.3663807  66.2714672  59.2402220   0.4697582  20.6053925   2.7783221
   0.5298276  19.7601700   2.3330995   0.6486861  21.2499833   2.0936909
  10.2482200  26.8597937  54.0667868  10.2729404  27.0053864  55.0125265
   9.3188721  26.9039845  53.8418627  15.7241595  67.4803400  47.9587507
  14.9048817  67.2713470  47.5100422  16.2021542  68.0323362  47.3398352
  50.5039597  38.7914801  59.8191977  51.0083628  38.3220553  60.4836130
  50.2590084  39.6147037  60.2417278  60.5904675  42.2167158  60.1559973
  59.8709536  42.4876261  60.7262087  60.9395695  41.4271975  60.5695486
  13.1460142  15.6582952  55.0325727  13.6474884  14.8429763  55.0359964
  13.4840131  16.1505187  55.7807064  58.8536692  54.1550398  26.0941458
  58.7804747  54.7494888  26.8408132  59.7203064  53.7593889  26.1870480
  17.2228086   1.8556191  53.5642862  17.9314888   1.3004681  53.2389975
  16.6468287   1.2556684  54.0381384  70.2445984  52.6249933  38.8896322
  70.7033682  51.8869257  39.2909002  70.2364159  53.2996655  39.5685935
   6.0583979  32.8683925  38.3519101   5.5081439  33.6195445  38.5737705
   6.6027153  32.7328324  39.1275239  39.3687248   3.2743627  61.0286427
  39.4958520   2.4308246  61.4628267  38.9690757   3.8302428  61.6976023
  57.5798798  64.3358231  52.5129843  57.8744888  65.2396727  52.6247883
  56.7644405  64.2862654  53.0118179  54.9902821  26.6782331   8.4437346
  55.5714083  26.9626760   7.7383161  54.6094751  25.8599043   8.1250536
  19.7912240  10.5601370   4.5100045  19.6351933  10.3770852   3.5835174
  19.4196129   9.8067677   4.9688870  38.6510301   1.0602184  53.5850191
  38.7790799   1.7377713  52.9211235  39.3219566   0.4054949  53.3915567
  78.7797594  38.4936786   4.6924758  79.6175098  38.9116120   4.8918030
  78.6030054  37.9375482   5.4512316   8.0769420  56.3380480  44.5521641
   8.2860577  55.7401800  45.2698326   8.8933367  56.8100643  44.3880510
   4.3079433  31.3709259  -0.2671093   3.9671823  32.0219827   0.3462729
   4.4341463  30.5845737   0.2638875  31.4418578   3.8055149   0.6040029
  32.1941662   4.3502924   0.8352644  30.6817555   4.3154445   0.8840866
  11.3545370  58.0647802  24.1545200  11.8711281  57.6047182  24.8161149
  10.7751858  57.3936701  23.7936902   6.9631529   0.6157735  44.7846746
   6.2229240   1.1211245  44.4486475   7.5170338   0.4642026  44.0188599
  10.4056525  53.1864023  31.4109230  11.0231161  53.3575916  32.1220231
  10.7579768  52.4141550  30.9685040  68.2995129  30.5041647   0.8065079
  67.6495171  29.8427439   1.0437065  68.1552219  30.6577301  -0.1272105
  49.0123081  36.1447740  51.5915632  48.9842892  37.0188355  51.9807434
  49.5465088  36.2501359  50.8043146  29.1080332  23.1528687  61.3962936
  28.5076404  23.6676335  60.8570576  29.6144676  23.8051796  61.8802881
  64.4157648  48.3590460  56.4066124  64.8951006  48.4032869  57.2339630
  64.5948553  49.1974640  55.9809208  10.8672643  19.0452397   6.0023808
   9.9994218  18.6434829   5.9614760  11.1114347  18.9943564   6.9265145
  36.6644859  32.4656200   1.2594944  36.3661671  31.7633963   0.6814647
  35.9912634  32.5197721   1.9377798  46.2944746  18.6153746   3.7794784
  46.6795254  19.4414544   3.4869716  45.3943634  18.6425006   3.4549841
  78.8869572  68.3638048  13.1093335  79.7080708  68.1032467  12.6920617
  78.3543158  67.5684881  13.1072378  77.6322174   8.5162908  53.7519693
  77.9679585   8.4379125  54.6449232  77.2344542   7.6648676  53.5700464
   1.1430318  32.5242114   7.1682066   1.5639022  31.7472577   6.8001825
   1.8649606  33.1285548   7.3408908   8.3593446  13.2174206  45.6117725
   8.1489372  12.8511083  46.4707136   7.5082731  13.4131265  45.2198458
  24.6979713  30.3885818  17.3109341  25.1838541  30.1460528  18.0991781
  25.3688073  30.4776120  16.6339672  57.8810549  72.2277260  51.6487932
  56.9454479  72.4073792  51.7415047  58.0314875  71.4544296  52.1924973
  36.8957090  68.1696320   6.0067248  37.3883009  68.9900351   6.0295963
  36.0033703  68.4192705   6.2468135  28.2267618  24.9073458   9.8645926
  27.9255581  24.4912767   9.0568841  27.8157830  24.3987894  10.5636621
  47.7971172   4.5151967  25.9501338  47.4095821   4.8404613  26.7626929
  47.2567177   4.8959133  25.2578521  49.8483467  22.3216987  11.2567735
  49.3817902  22.0624614  12.0513475  49.3425798  21.9314456  10.5439389
   0.2906438   1.1931799  26.8444967   0.1195927   0.7014517  27.6477242
   0.7956191   1.9537394  27.1322155  52.9369783  59.8662853  63.4570217
  52.0368528  59.8204374  63.1346846  52.8681183  59.6619606  64.3896198
  50.8659744  25.8173847   4.4149187  50.4950619  26.3069844   5.1490498
  50.2027321  25.1595020   4.2062819  42.7473497  20.9880590  54.3872738
  43.5221863  21.4195299  54.0271521  42.5856876  21.4387870  55.2160931
  67.6570845  51.6513300  51.5706301  67.4472094  52.4980354  51.1765862
  68.1003809  51.8717051  52.3898697  67.8037930  35.7382679  56.5430975
  67.8988075  36.6699958  56.3453913  67.0576286  35.6951880  57.1411037
  62.8832722   0.2190238  49.2924881  63.3132601   0.6040353  48.5288715
  62.2888803   0.9022631  49.6025085  10.4857016  40.8523607  35.0675082
  10.7838404  41.1280251  35.9343147  10.9000349  41.4693594  34.4642878
  69.4292927  29.6377563  57.9552841  68.8464451  30.1500082  58.5157490
  68.8407278  29.0987325  57.4268198  68.4267187  24.3793607  14.7627985
  68.1352711  23.8418841  14.0263140  69.1162968  23.8619852  15.1787770
  73.9407873  36.5133810  33.8291454  73.8242579  37.3036480  34.3565226
  74.7030783  36.0797381  34.2126703  73.1535482   6.1931443  60.8386040
  73.0893612   7.1348447  60.6795073  72.9500628   6.0929292  61.7685413
  55.2159977  10.6618071  62.9733753  56.1379433  10.4073298  62.9347563
  54.8232365  10.0459146  63.5919571  65.9118700  59.1245317  22.2923970
  65.6196642  58.3989620  22.8441238  65.1208496  59.6404696  22.1364260
  67.0091248  15.4001534  39.6918392  66.7999411  15.6846118  38.8021445
  67.2138739  14.4692659  39.6037531  14.3567801  62.5844049  41.9605589
  15.2107358  62.7613783  41.5660048  14.1542351  61.6858387  41.7001963
  76.3340855  62.0868063  54.1541243  75.9810495  61.2035561  54.0470171
  77.2531319  61.9510651  54.3846893  35.3739905  10.1460254  58.0801153
  35.3091407  10.7702661  57.3573780  35.0708699   9.3174541  57.7088690
   3.3218798  44.3598366  49.2091990   2.4446896  44.1013098  49.4919252
   3.6182371  44.9748373  49.8801517  34.3273067  14.6605754  43.1640530
  34.2946339  14.3159473  42.2716427  33.8133764  15.4673123  43.1282234
  27.8162026  14.5381367  30.7208300  27.5053620  14.3710804  29.8310542
  27.7723861  15.4896700  30.8151484  16.6986871   8.0981505  47.2221231
  16.8921661   7.1952838  46.9698763  16.2001646   8.4511411  46.4851665
  61.5428257  69.7142839  46.9620180  61.1074829  70.4578638  47.3789072
  60.8332634  69.1053009  46.7573309  19.3647468  45.3184509  34.3971300
  20.2363849  45.6619692  34.5932674  19.5287406  44.5326614  33.8757133
  45.3468370  65.7721758  18.3753216  46.1363506  65.5504847  18.8690376
  44.6695089  65.8808374  19.0428901  69.5753050  56.4663887  46.5289307
  70.2406740  56.0623455  45.9719181  68.8421392  56.6402483  45.9386110
  17.0428813  66.0936737   3.2673663  16.6081989  65.3867579   2.7903414
  16.4169800  66.3443708   3.9467996  44.3248701  63.6377716  17.3740399
  43.4821224  63.6327219  17.8278935  44.7431087  64.4517803  17.6545727
  62.2552824  16.6272891  52.7650928  63.0491924  16.3610280  53.2288218
  61.8371725  15.8037579  52.5136662  24.2746782  15.3307807  25.6645989
  24.0882373  16.1753702  25.2545500  25.2063489  15.3699088  25.8806872
  15.2383673   6.2239635  35.9635901  14.8567581   7.0283735  36.3150597
  16.1066270   6.1760533  36.3636661  21.6212916  59.6777058  53.9180660
  22.2263551  60.4186487  53.9516926  21.3170719  59.6578932  53.0107164
  18.5979486   5.5248344  59.3248320  17.6641941   5.3482795  59.2100954
  18.6651981   5.8959931  60.2045727  74.7958374  57.1672010  27.7188993
  75.3531504  56.6260576  27.1596169  75.3138113  57.3046017  28.5120296
  27.3776746  19.5338929   7.0453274  27.4969792  19.6499503   7.9879457
  28.2671475  19.4717157   6.6971862  66.3975286  72.8860474  55.7404852
  66.6736031  72.5862598  54.8743773  65.4415989  72.9035902  55.6944084
   4.2823082  24.1604710  31.9896007   3.7553436  24.9481320  31.8549442
   3.8403675  23.4856439  31.4743090  20.6649613  13.1751227  44.6757507
  20.3996801  14.0314686  44.3402958  21.6091561  13.2533360  44.8121691
  36.0957766  45.4011250   1.4358719  36.5622544  44.5807791   1.5960571
  35.2196980  45.1290560   1.1625654  61.5647793  34.8798370  12.6357639
  60.9111691  35.2033281  12.0157826  62.2507524  35.5474067  12.6306903
  25.5452466  25.7689285   0.7444686  26.3567781  25.3371596   1.0113503
  25.7744622  26.6966414   0.6893180  17.8687632  30.7361746  10.4885089
  18.4205163  30.7316947   9.7063446  17.4278331  31.5854645  10.4657149
  49.4320250  74.3912411  28.0976582  49.7804737  75.2060890  28.4593701
  49.2621040  73.8426304  28.8634157  73.8205624  23.7868762  33.0546284
  74.4322491  23.4094381  32.4224806  73.9651060  23.2850289  33.8568044
  36.7097235  21.0598779  58.9151287  36.6890907  21.8540955  59.4490051
  37.5398684  20.6405711  59.1415644  27.8582454  53.9860582  55.3759003
  27.7667260  54.5678091  54.6212959  28.1052518  54.5656109  56.0965538
  61.3995647  71.2770128  54.1505623  61.4625311  71.5113497  53.2246304
  61.1122417  70.3639603  54.1475487   9.0953505  47.4352598  48.3615303
   9.1971469  48.1925678  48.9380264   8.3863556  46.9274569  48.7561083
   3.0645493   6.8804562  37.5699210   2.9788062   7.5888544  38.2079268
   2.5801703   6.1506152  37.9558492  65.2951050  10.1341963  47.4477577
  65.6449652  10.9910393  47.2035217  66.0687351   9.6093601  47.6533794
  67.7800751   4.7639823  10.8812165  67.2887278   5.5836213  10.8264220
  68.6270618   4.9654165  10.4833817  77.3050022  15.3429949  50.9940624
  77.6020432  14.5055580  51.3500071  76.7439270  15.1041424  50.2562475
  66.6827869  73.8324738  20.1168680  66.3322449  72.9902697  20.4067802
  67.5856781  73.8382769  20.4346538  30.3249717   3.7315097  16.9979799
  31.0677576   4.3185937  16.8571520  30.2830768   3.2028562  16.2011099
  50.1679659  58.2630110  47.8072548  50.0297070  57.8500891  46.9548416
  49.3641901  58.7576532  47.9669714  23.1810713   0.2603570  25.3338671
  22.3101163   0.4060161  24.9644732  23.7471080   0.1381039  24.5717072
  13.0493569  71.4049149  27.6230979  13.7812531  72.0112944  27.5096822
  13.4500337  70.5363798  27.5865221  50.4871750  18.6910665   8.4544778
  50.1699638  18.3324897   7.6256049  50.2062988  18.0560088   9.1132957
   2.6932520   6.1604011  11.8822885   2.3073058   5.3089702  11.6765153
   2.3119637   6.3982451  12.7274406  60.7119989  20.3155470  44.2739344
  60.8048248  19.8468482  43.4445143  61.0971975  19.7289741  44.9249220
  38.2447672  26.5457726   5.6517166  37.6941228  26.6869473   6.4218402
  39.1365170  26.7005372   5.9632617  39.5713997  64.6015310  63.4335852
  39.0669537  64.1241455  62.7748966  40.4067183  64.7895527  63.0056572
  73.5372877  68.7505865  31.9175506  73.7823486  68.7896109  32.8420258
  73.1068134  69.5886087  31.7482948   9.4603175   8.8263977  52.1629238
   9.9858546   8.0352575  52.0440149   9.8996162   9.4882649  51.6289043
  65.7151794  61.2921953  50.9805250  66.3441801  61.9158268  50.6176567
  66.1546421  60.4442358  50.9167767  20.5953932  56.1044216  46.2295628
  20.3978300  57.0085001  45.9849310  19.7384989  55.7014275  46.3694143
  62.2071743   8.3937949  22.7917600  61.4184093   7.8803194  22.6173210
  61.9911385   8.9078200  23.5697961  46.7996740   4.7130865  31.3140607
  47.2109699   5.4516155  31.7631030  47.1086979   3.9416993  31.7891359
  41.2437487  49.6608257   8.0951518  40.7031107  50.4498386   8.0577207
  41.3455296  49.3966246   7.1807832   8.3535165  24.7092819  31.1075878
   9.0241164  25.3482437  30.8662271   7.8751230  25.1237869  31.8256116
  44.1825151  31.7476368  10.8050144  43.4961319  31.8057704  11.4696383
  44.8647547  32.3445249  11.1124361  31.6420007  70.8313608  55.8467054
  30.7537603  71.1780882  55.7627869  31.6027236  70.2540827  56.6092253
  35.2725625  72.8931570  45.8906317  34.8240161  73.6995459  45.6361151
  34.5662165  72.2820663  46.1001015  28.9234328  27.8868651  12.9137480
  29.6296310  28.4467053  12.5911093  28.8219166  28.1349730  13.8326430
  21.1080146  26.9050717   2.3273072  21.3875866  27.6006126   2.9225332
  20.3286862  26.5343595   2.7413738   3.5085666   3.6961162  64.9730682
   4.1281620   3.2396847  64.4038534   2.8995520   4.1230837  64.3705463
  60.9426308  45.3180075   9.6094096  61.6528320  45.8680439   9.2787945
  60.9496021  44.5493507   9.0390188   7.3170477  35.3282142  56.1739397
   7.3157585  35.5240083  55.2369785   6.3906437  35.2853775  56.4109468
  48.8252735  20.9856963   8.9219069  48.2320690  20.4955006   8.3526534
  49.6491051  20.4997563   8.8846070  61.5238380   7.5390536  61.7774582
  61.6548872   6.6684926  62.1532011  62.3298883   8.0125391  61.9832039
  43.0035591   7.7589077  54.5610619  42.1692657   7.9699272  54.9801731
  43.5687876   8.5042971  54.7639084  18.0778718   7.3491377  53.1859207
  18.4155941   7.3105311  52.2911119  17.1370602   7.4908471  53.0809307
   3.1975397  72.2399664  53.3463001   3.9838102  71.8281984  52.9878855
   2.8211823  72.7201080  52.6086998  78.2137251  10.6872988  49.9717188
  78.7156439  10.8346164  49.1700888  77.5675917  10.0233233  49.7311354
  72.0420933  11.3321602  30.8871508  72.4263000  10.6240749  30.3702044
  72.7482414  11.6148555  31.4682460  35.4415631  63.4527397   7.9561353
  36.0454416  62.8399944   8.3757848  35.7081032  63.4599686   7.0368218
  73.4371185  63.1161070  41.7784166  73.0594826  63.2773256  40.9137630
  74.3240118  62.8044367  41.5981007  62.3693800   3.5144725  35.8544207
  62.6038980   4.3223929  36.3110352  62.8635311   3.5501468  35.0354123
  50.2751160  60.2397728  62.7556467  50.0704288  61.1309195  62.4724722
  49.6565104  59.6882343  62.2767210  75.7452154  57.1266174  37.8907084
  75.0751257  57.2598600  38.5611248  75.9419823  56.1907434  37.9314137
  24.7113371   5.9951639  11.5792215  24.3496346   6.4262444  12.3535419
  25.6527138   6.1606687  11.6307414  48.7813473  47.3436785  12.0845509
  48.2900333  47.8513813  12.7303672  49.2237520  46.6675138  12.5976872
  36.3273573   8.4425318  64.3522120  37.1025300   8.5913783  64.8936749
  36.6743779   8.1183469  63.5211182   7.0907557  66.3517714  43.3472967
   7.0775074  67.2269869  43.7346601   6.6722918  66.4614058  42.4934244
  19.6273327  18.1573892  12.9320276  19.6635187  18.5350490  13.8108313
  18.8320243  17.6247394  12.9328001  41.6834211  64.1912031   0.5690581
  40.9562969  64.3449926  -0.0341588  41.4601898  64.7006321   1.3480847
  22.3565622  74.2244244  57.6126146  21.8430277  74.7999695  58.1794119
  22.4696823  74.7235945  56.8037462  65.6197929  12.2287774  29.7487664
  65.8317232  11.3896298  30.1576066  64.9936295  12.6356125  30.3476310
  19.0042162  73.9321518  62.8783083  19.6247756  73.7958956  63.5942507
  19.1992128  74.8123169  62.5565767  36.7798996  21.4057374   5.6078577
  36.2614584  22.0391107   6.1041325  37.6149106  21.8477225   5.4541159
  55.1264524  71.0140038  37.9544735  55.3160906  70.9317112  37.0198631
  54.6840858  71.8589640  38.0356169  16.2919629   1.7926320  49.4467497
  16.6503835   2.3454042  50.1411629  15.3907478   2.0968658  49.3395853
  19.2189443   6.1655533  15.5964780  19.1152573   5.2969527  15.2078724
  19.3347526   6.7506224  14.8478019  26.0043216  66.9211674  31.4530182
  26.1627269  66.8599844  32.3950362  26.4475775  67.7269125  31.1874437
   7.4495888  64.3932962  31.4138794   7.7328312  63.8795137  32.1702051
   6.6652465  64.8514700  31.7157340  77.0619488  62.5106430  57.3587275
  77.1486282  63.4119368  57.6692009  77.3041964  62.5516605  56.4336014
  31.2078810   0.8230079  23.2905436  30.4636240   1.3669410  23.5483241
  31.5550566   0.4852836  24.1161609  64.1576576  63.6249161  38.6623025
  63.4097195  63.0604744  38.4667754  64.1435957  64.2886019  37.9727006
  67.0931292  61.5863848  35.7056284  67.0768833  60.9406328  34.9992466
  66.4557695  61.2616634  36.3416839  60.1763964  53.4015560  48.6144638
  59.9119997  52.6337337  49.1211939  59.9141550  54.1469622  49.1546774
  72.4129295   2.7041769  26.0139155  73.1074190   2.2963098  26.5311766
  71.6038990   2.3269784  26.3594961  43.6618567  74.0456486  45.6938314
  43.2031298  73.8612175  46.5134573  43.0453539  73.7836027  45.0101042
  21.0680866   8.7100947  33.9917779  21.1539531   9.4540650  33.3956504
  20.8869052   7.9644024  33.4196329  77.8472137  57.0962763  55.4794264
  77.0537090  56.8058491  55.0297260  78.5232830  56.4822388  55.1928520
  71.2494040  -0.1002269  58.2973242  70.6197214  -0.3769306  58.9630318
  70.7977581   0.5909266  57.8130150  26.9514704   9.6964121   5.5569571
  27.8261542   9.6639532   5.9443885  26.3674784   9.4114107   6.2597811
  20.3935313  56.1962128  37.8858352  20.4084420  56.1843491  38.8428450
  21.0075355  56.8900251  37.6453114  24.3719482  33.6308837   8.2585645
  24.6704388  32.7539539   8.0174595  23.8617110  33.4989500   9.0576160
  78.2419682  53.5439539  60.2378035  78.4613037  54.2946339  60.7897139
  78.9534330  53.5003710  59.5989370  11.9547701   5.8683699  32.4267697
  12.2868657   6.6280216  32.9051781  11.4736772   5.3638202  33.0826759
  60.2838898  26.0409164  17.4297214  60.8144093  26.7491817  17.0648384
  59.8472786  26.4336705  18.1855953  77.8094769  23.0393219   6.6664582
  78.5272121  23.5715747   7.0096660  77.9437447  22.1757531   7.0569122
   9.9369103  16.6245162  13.7475979   9.6994138  16.7598414  14.6649384
   9.1634429  16.2173283  13.3574986  11.1157370  69.8044825  41.1923552
  11.3977098  68.9776993  40.8010101  10.1595855  69.7679424  41.1664486
  18.9263821  41.0402775  52.7594042  18.1516576  41.1946440  52.2188473
  19.2608547  41.9157410  52.9541588  23.4629416   6.7821413  24.6845365
  23.3441949   7.7180398  24.8464775  22.6374030   6.3845360  24.9613523
  14.1051781   3.3664972   4.8586449  13.3780515   2.9846761   5.3503060
  14.8110378   2.7248561   4.9379614   5.0044143  59.8128366  36.1856008
   4.8060739  60.7270861  36.3881803   5.0181931  59.3763256  37.0373631
  30.9042287  19.4012320  27.6852989  30.4634905  19.0217435  26.9250560
  30.6024289  20.3093123  27.7085423   3.5662687  51.5110445  31.2217379
   2.9471251  50.7888937  31.1150002   3.1170222  52.2689772  30.8476400
  45.8799410   6.6354537  52.6978827  46.1504984   6.6706032  53.6153746
  45.2926207   5.8811289  52.6500940  40.6112814  13.5560644  26.3945365
  40.9543943  13.6737454  27.2803426  41.2329006  14.0196335  25.8333540
  67.5114775  27.7001119  43.9283514  66.9684887  26.9257164  43.7810326
  66.8895054  28.4272099  43.9549875  28.1389761  37.7435923   7.2731793
  28.9233971  38.1717682   6.9302762  28.4381008  36.8746853   7.5410569
  69.5976973  74.2889214  47.7964592  69.5218182  75.1224661  48.2608700
  69.0011835  73.7012291  48.2601643  45.1276159  10.0827324  52.4247360
  44.7244358   9.2351621  52.2368479  45.8831358   9.8721910  52.9734516
  12.8727098   7.6964011  64.8026378  13.5146876   8.3718218  65.0215100
  12.1691533   8.1696286  64.3584577  29.7040701  45.7412148   3.3676746
  29.7551966  46.2079191   2.5335246  29.1689277  44.9704647   3.1784853
  77.5247526  67.9914951  43.9046717  77.2667265  68.9132357  43.8979053
  78.3638668  67.9742861  43.4444332  37.6301408  11.8037748  64.3707132
  38.3199358  11.3883400  63.8531923  37.5722837  11.2713003  65.1640320
  27.3303556  13.1544566   7.2430956  27.9910707  13.8296556   7.3973513
  27.5698304  12.4444854   7.8387672  60.3551722  64.4862080  59.9479389
  60.8452845  63.7132025  60.2280951  60.6163120  65.1713657  60.5632401
  28.7304711  68.4044456  12.1498036  27.9695988  68.9756489  12.0447826
  28.7885356  68.2538986  13.0933058  62.0075750  67.9976749  33.3138704
  61.9079733  67.1894121  32.8108525  62.9404259  68.2036591  33.2539392
  17.1975684   9.0695226  18.7366033  16.8175304   8.9190614  17.8710604
  18.1053901   9.3162954  18.5599792  15.4922283  56.3657761  41.5909910
  15.0230110  56.5921640  40.7879877  15.6500912  55.4244423  41.5188599
  73.4001637  63.7065506   4.4239691  73.5528803  63.3453131   3.5508046
  73.6721468  64.6217394   4.3554780  63.0743074  24.0983295  14.6184480
  62.7267408  23.3419776  14.1458380  63.9885569  24.1549110  14.3406320
  31.7261982   3.9987874  44.7665930  30.7779241   4.1200316  44.7185564
  32.0733643   4.8794258  44.9086618  14.6291649   4.4263896  46.9402027
  14.1173184   3.6313134  47.0888567  15.1099205   4.5580316  47.7573776
  14.5786154   8.5787266  45.4253054  15.2421176   9.0129101  44.8891306
  13.7831318   8.6100155  44.8938370  54.1971016  58.1713533  54.6342993
  54.0738821  58.8444567  55.3036118  54.7157907  58.6016226  53.9545488
  26.4917111   6.0685498  51.8808174  25.7056904   6.2835854  52.3829794
  27.1009564   6.7814744  52.0726204  26.0562992  25.4025817  20.9807086
  26.0150361  26.3583803  20.9494400  26.8625140  25.1822615  20.5141163
  34.0711737   2.3177454  15.9234929  33.4352469   2.0349570  16.5806532
  34.8794436   2.4574022  16.4168787  25.4557177  74.8406676  15.6929731
  25.0679632  73.9660466  15.6626940  25.7925173  74.9840964  14.8085380
  15.8768404   8.7647283  61.3122654  15.4739761   9.6330106  61.3165331
  15.2217853   8.1947768  61.7151165  55.6980423  68.0454145   0.8864136
  54.9746231  67.7918707   1.4596577  55.3385381  67.9758464   0.0020190
  66.3642454  19.6476221  50.9999561  67.2199535  19.2188048  50.9896183
  65.9898663  19.4146967  51.8495560  67.5286436  52.8650618  22.8579640
  66.5723038  52.8457594  22.8936338  67.8028107  52.8534508  23.7749863
   1.1777408  39.8043680   7.9512399   0.8808675  39.6164393   8.8416225
   0.3710299  39.9005413   7.4450773   8.5948873  67.0105886  31.3045359
   8.8998598  67.3515177  30.4637074   8.1719756  66.1798954  31.0869813
  61.4114666  59.1255665  24.8339057  62.1417141  58.5281849  24.9954557
  60.6868887  58.5545683  24.5785999  39.4097495  18.3683622  19.7490168
  40.2428579  18.2254338  20.1981664  39.6427512  18.8644421  18.9642584
  39.5371079  10.9758508  62.7126122  39.2446804  11.4982212  61.9657230
  40.4704666  10.8338332  62.5548029  39.3657660  16.5968060   9.9159837
  38.5188699  16.6578317  10.3578842  39.9962211  16.9167876  10.5612493
  10.1833129   0.4448364  31.2779713  10.4948676   0.8097091  32.1062446
  10.4691541   1.0746147  30.6162286  58.4839392  30.7021809   8.2279223
  59.2517567  30.9441328   8.7457520  58.6974812  29.8398733   7.8714687
  19.7960210   7.7295506  45.2485371  19.8381317   6.9872212  45.8513689
  19.2482710   8.3727503  45.6985331  26.5441895   1.0967387  21.1428523
  27.0067406   1.9336970  21.1006856  27.2206330   0.4405367  20.9753537
  67.9715919  62.8736162   2.9688078  68.0603361  62.5509834   2.0720002
  68.8427353  62.7641010   3.3500519  56.8038273  25.5741024  16.7590928
  57.0559311  24.7776651  17.2263813  56.3604689  25.2593994  15.9712946
  12.0973361  64.8193359  51.0196257  12.9078412  64.7301960  51.5209913
  12.0865715  64.0547657  50.4438257  53.6655807  17.2442293  29.3654370
  52.7399254  17.1438992  29.1433430  53.9457798  16.3668931  29.6262097
  14.1695273  19.9300301  26.8815994  13.6516249  20.2337646  26.1361122
  15.0055695  20.3880167  26.7949176   8.7945986  71.0106421  29.2115951
   9.4372290  70.3325367  29.0031838   9.1088808  71.7883110  28.7504196
  70.0218153  72.6930046  39.7560835  69.2414284  72.4226475  39.2722082
  70.7347107  72.1916819  39.3602467   9.4469905  72.5494909  48.5109091
   8.8354546  71.8161297  48.4443045   9.9566913  72.3654127  49.2999315
  62.0859671  73.0502176  57.3525763  62.2022533  73.8384390  57.8830624
  61.1403751  72.9904413  57.2164965  34.1804671   7.9441082   8.0485016
  34.7799516   7.7150500   8.7587017  33.3137655   7.9360956   8.4546942
  44.3056726   9.6524161  34.2647552  44.7792006  10.4822052  34.3235302
  44.0439844   9.4616616  35.1655126  35.5075955   5.0068980  46.5124273
  35.9258723   5.6012058  45.8894730  35.3574944   4.2038754  46.0135746
  50.8196306  63.8714647  25.1869655  51.1746597  64.7406721  25.3731561
  51.2199259  63.6226702  24.3538404  79.1902924  68.2339525  53.9216328
  78.5433149  67.8275442  54.4982481  78.9704943  67.9091311  53.0484724
  68.7483120  62.3867941  33.1924701  69.3371201  62.0512009  33.8684249
  69.2943525  62.4495173  32.4088025  25.6580400  14.0732729  51.0525608
  25.9611773  13.4017015  51.6635704  26.4503574  14.5535421  50.8121300
  50.7633448   3.1731415  25.3505707  51.1614227   4.0099394  25.1107121
  49.9201298   3.4108415  25.7362127  60.6509304  18.7406826  42.0988083
  59.9036837  18.1546688  41.9786358  61.4029312  18.2368243  41.7875862
  27.9722261   5.5286151  16.9746065  28.8364959   5.1280510  17.0685053
  28.1048012   6.2401748  16.3482380  58.0571795  65.3733253  49.4841480
  58.2682610  66.3032341  49.5674849  58.2922554  64.9974012  50.3324699
  71.5371656  58.1876898  15.7134974  71.0027599  58.4708405  16.4554298
  70.9529543  58.2544708  14.9582028   1.3972175  41.0671186  48.1580639
   0.7956146  41.8048286  48.0576372   0.8379582  40.2924299  48.1004620
  44.1784906  56.7489147  40.5842400  43.2562685  56.9955254  40.6543827
  44.6574783  57.5442934  40.8169937  23.4391022  17.9554915  24.8300838
  23.2191467  17.3713756  24.1043687  22.7568865  18.6266875  24.8125291
  24.1631079   2.9508698  26.1214852  23.9541340   2.0249456  25.9980917
  23.4160829   3.3025324  26.6057563   1.3767503  64.3771601  30.1137972
   1.0557120  63.4909678  29.9469686   2.2556779  64.3887901  29.7348738
  47.0181370  17.6937950   7.9365218  47.5185204  18.2313943   7.3226559
  46.4255857  18.3102095   8.3668107  34.7527409   9.5220494  46.3220406
  35.0082421   9.4538677  47.2419882  35.4869843   9.9701369  45.9021139
  15.9621203  65.0647783  28.1863284  15.8356941  65.3827715  27.2923875
  15.5214894  64.2151880  28.2028866  32.8297544  16.7817020  42.5066566
  32.2044039  16.3640511  41.9144249  32.3975420  17.5910473  42.7793932
  66.5508795  69.7258139  52.7483320  66.4882040  70.6809568  52.7456522
  66.2113190  69.4659090  53.6047077  43.5671329   4.4355124  31.6836071
  43.8888693   3.8218156  32.3439813  44.3590641   4.8213935  31.3092136
  61.3131809   1.0286562  58.4779167  61.9651747   0.7919589  57.8182888
  61.7240620   1.7333511  58.9787292  66.2055635  42.3526716  15.6690776
  66.0286283  41.4129305  15.6265140  65.3390551  42.7590179  15.6858027
  34.8694944   3.7652674  21.5492058  35.4140234   2.9900679  21.6862583
  34.2726636   3.7740734  22.2975039  49.4917393  71.1178064  38.7836766
  48.9437437  71.6219807  39.3851233  50.0713015  70.6127119  39.3539572
  11.7445171  63.6375046  53.6119080  11.7060268  64.5937252  53.5919237
  11.4067173  63.4022093  54.4760561  11.6941130   9.4713390  24.5183635
  12.5808322   9.3645293  24.8626804  11.1953545   9.8352033  25.2498507
  13.1443489  46.4796257   5.7064909  12.2552907  46.7180347   5.9691066
  13.1902933  46.7111540   4.7788513  30.5685306  23.4036350  57.6751852
  29.7781301  22.8676915  57.6098728  31.2219238  22.8206754  58.0617952
  64.5074844   9.7514665  20.7570672  63.8082886  10.2992678  20.4003167
  65.3087997  10.1031148  20.3691649  44.3170834   0.4767035  51.5316200
  45.2145624   0.7942053  51.6314220  43.8790035   1.1546659  51.0171461
  26.0229349  14.6542418  32.9408216  26.6928506  14.0401685  32.6402235
  25.2464080  14.4318581  32.4272203  41.7198610   8.6605835   2.6676968
  41.4875984   7.9639375   2.0537189  42.2485781   9.2687023   2.1510893
  37.4847102  17.1020675   5.5153430  37.6955557  17.1743345   4.5844543
  36.7438936  17.6952910   5.6398827  17.7052116   8.1491989  57.7703094
  18.4675694   7.6653165  58.0879593  17.8137565   8.1698495  56.8195105
  61.4178896  61.7642784   4.1853157  61.7513132  62.5765371   4.5664957
  61.9260025  61.0737085   4.6109495  41.3591909  17.6755977  11.5181935
  41.8101406  17.3809624  12.3094380  41.4893293  18.6238480  11.5073776
   4.9292186  33.1849480  47.3604870   4.4430220  33.8187504  47.8878736
   5.1262516  32.4703979  47.9661465  13.5345495  72.1039343   5.0583661
  14.2589653  71.8004179   5.6054783  13.7918985  71.8672895   4.1672981
  34.5596910   3.9584273  35.8510637  35.1002049   3.4949809  36.4908242
  33.9860392   3.2834256  35.4883957  59.6695518   7.9139513  41.4710855
  59.9508333   7.8980219  40.5562878  59.5032978   6.9962567  41.6865587
  76.8201637  32.9783130  20.0334191  76.2435865  33.5901141  20.4911232
  77.6839447  33.3889747  20.0717282  17.9010594  21.6635656  17.0884609
  17.0158052  21.7799950  16.7434967  17.8872049  20.7977486  17.4963832
  72.8074408  67.0837975  12.1971285  72.7366638  66.2683916  12.6934505
  72.1839333  66.9814205  11.4781058  77.5301886  73.2888746  11.9314313
  78.2022953  73.5961723  11.3230956  76.7272711  73.2681417  11.4107358
  49.3505096   7.2635096  21.7173600  49.9803782   7.8644568  22.1153069
  49.0585899   7.7131122  20.9243441  58.4643888  27.7167797  30.0274777
  57.9694414  26.8980265  30.0574851  59.1383505  27.6139951  30.6993723
  38.3080077  72.1276808  31.5076065  38.4529662  72.7909708  30.8328724
  37.5219226  71.6625786  31.2212920  13.9174235  73.1665182  50.3502798
  14.2562342  73.3807945  51.2194920  13.4934008  73.9716625  50.0533247
  50.0089312  12.7227306  34.8285770  50.1353407  12.6799023  33.8807273
  49.5329762  13.5410798  34.9699998  44.6404934  14.3914139  59.5064449
  45.1448298  13.5873723  59.3823719  45.1964903  15.0812101  59.1441202
  46.4080667  25.5083013  56.9824457  45.6550455  25.7047462  56.4251328
  46.5330505  24.5636177  56.8919516  78.5592699  71.4770460  26.3607550
  77.8053141  71.8548346  25.9079242  78.2466030  70.6313276  26.6820550
  33.1610155   1.6464195  33.5022163  32.4169087   2.0060129  33.0192780
  33.6149454   1.0937601  32.8660178  37.2729468   1.5863787  26.5983248
  37.5502777   0.7348850  26.2602758  37.8456068   1.7441460  27.3489261
  23.0599113  12.0055403  64.7380139  23.9616295  12.3266186  64.7316211
  22.6087280  12.5456824  64.0892370  12.6412618  71.7189407  59.1931820
  12.4588144  70.7846546  59.0928841  11.9939899  72.0223904  59.8297262
  20.1589036   1.9412409  39.5421696  20.1650333   1.6358919  38.6350012
  19.2318118   1.9716033  39.7784066   3.3595031  72.9404879  34.8683524
   3.0568728  73.2195473  34.0041924   2.5566697  72.7466583  35.3522110
  75.0431108   6.2588727  38.1454444  74.8439503   5.4431850  38.6050320
  74.9317408   6.0451794  37.2190738   9.4338328  55.3810453  35.4875636
   8.8614810  55.4776430  34.7264361   9.9700785  56.1739349  35.4861569
  52.2992468  15.3631330  31.3393927  52.0417643  14.4443727  31.4156413
  51.5021276  15.8528626  31.5418792  69.3532848  67.6998234  25.1768565
  69.7437429  66.8341732  25.0567508  69.5027733  67.9040098  26.0999990
  61.3423014  60.0895882   8.6588722  61.0820866  60.1920843   7.7434421
  60.5775595  60.3752327   9.1586792  56.2646961  29.9452114  45.7555866
  56.7301130  30.4396248  46.4302540  55.7819653  30.6086564  45.2625942
  39.9841547  15.7242644  30.5735803  39.8301554  15.2228403  31.3742614
  39.7594523  15.1202953  29.8657942  12.0224118  23.6800003  27.3691392
  11.3311303  23.3680749  27.9531455  11.9300222  24.6327043  27.3760653
  65.2764082  31.2229967  45.9954739  65.3563404  32.1746016  46.0609674
  64.4038773  31.0316920  46.3394594   9.6025169  19.8372686  61.7583036
   9.6329534  19.7413385  60.8064079   9.7013724  20.7775784  61.9075489
  13.7193525   1.7493644  41.8053818  13.1028378   2.0059042  41.1195755
  14.3043196   1.1227821  41.3794231  51.5042305   5.5279136  24.6202564
  52.4141073   5.7020229  24.3793392  51.2434053   6.2899238  25.1375031
  40.3926563  30.2090549   0.5803657  39.6224809  30.2168989   0.0120323
  40.1659298  30.7991219   1.2991473  71.7152643  17.0981550  44.0085030
  72.2965240  17.8494382  44.1265678  71.5584469  17.0626104  43.0649042
  36.8418384  18.3196759  35.7294989  36.1901712  17.6250613  35.6342435
  37.6727986  17.9009318  35.5050230   7.6914430  41.3795376   1.0226294
   8.3028150  42.1035719   1.1576683   7.1686035  41.6454601   0.2662180
  19.6635890  10.0982022  24.4477105  18.8862479  10.1234376  25.0056863
  19.6275485   9.2399383  24.0254378  54.9927330   8.8796234  28.7956142
  55.1409674   8.5467798  29.6807551  55.6910086   8.4867078  28.2719159
  46.2249756   8.5659367  61.5453339  46.1414146   7.7770644  61.0096741
  46.3279915   9.2759198  60.9116554   9.7393769  71.0233307   5.7081252
  10.1957858  71.1463165   4.8757809  10.2791071  70.3940105   6.1865366
  24.8486853  47.4985600   0.1688037  24.6808124  48.3362007   0.6005618
  24.9832249  47.7260351  -0.7511894   1.6979691  72.7203751  27.1247411
   0.8935110  72.2943735  26.8287635   2.3897812  72.0887327  26.9281244
  31.0972571   4.1890234  37.4162650  31.4954281   3.3435699  37.6233912
  31.0059905   4.1837782  36.4634395  51.0822630  26.9245720   1.9287537
  50.6821489  27.7870083   2.0398459  51.0601902  26.5358639   2.8031966
   7.9346484  23.5906315  39.9855971   8.3248758  22.7283454  39.8427081
   7.3224080  23.4594655  40.7096052  71.0931969  43.5107040  54.6535873
  70.1932859  43.6749172  54.3717670  71.2663746  42.6075840  54.3878651
  35.0217438  70.4015017  26.2175798  34.0827203  70.5299854  26.3515997
  35.4346991  70.8989429  26.9234514  -0.2504721  67.2710276  19.1237330
   0.1183628  67.8510380  18.4575641   0.3851830  66.5594721  19.2002940
  11.0313845  64.7911024  14.4668543  10.5577183  64.1942596  15.0462079
  11.9158888  64.8267555  14.8310149  61.0406113  55.6532049  29.8789191
  60.2045631  56.0387039  29.6169209  61.5955162  55.7347536  29.1032481
  67.9134750  21.1172462  42.5528765  68.6535025  21.5663719  42.1443701
  67.1622467  21.6833282  42.3755789  24.2374945  11.8948460  33.9203286
  24.1713166  11.3350773  34.6939635  25.1464343  11.8023717  33.6348271
  76.9036675  74.7185123  61.7875385  76.7275763  73.9049186  61.3150024
  77.6502872  75.1046597  61.3296270  16.7905343  11.8108785  36.3953853
  16.4689040  12.6654518  36.6825962  17.5999391  12.0059574  35.9231138
   9.8953474  66.5352917  42.8446054  10.4779577  65.7763004  42.8716516
   9.0167809  66.1661577  42.9345798  60.6630039  64.8329496  56.5668726
  60.1875830  64.0817165  56.9216394  60.0170374  65.5391216  56.5503311
  12.6569331  51.8839455  40.4577780  12.7037203  52.7591085  40.8426571
  13.5336280  51.5204048  40.5821705  62.9818439  23.6076212  56.6176271
  63.6334324  24.2676759  56.8542528  63.4751749  22.9481554  56.1298180
  14.3869698  73.1439924  45.4038286  13.8748837  73.7180758  45.9734106
  14.2933691  72.2746658  45.7933664  73.1936264  70.7642841  44.9897909
  73.3580446  71.6935492  44.8295927  72.2763920  70.7265902  45.2608728
  43.4819603  18.6793876  57.7876806  43.7165499  18.3446765  56.9221354
  43.4238148  19.6275616  57.6701307  22.0959234  15.1674747  14.6113825
  22.3817492  15.5029702  13.7616885  21.5463996  14.4131899  14.3985224
  63.5081482  66.0148287  36.5577078  62.6100826  66.3276386  36.4488339
  63.6119366  65.3447485  35.8820915  73.5789490  64.5961046  51.1348295
  74.4586754  64.9393034  50.9782076  73.1411552  64.6630383  50.2862453
  64.4207287  55.7859135   6.4259863  64.6624184  55.1140881   5.7884389
  63.7531185  55.3696203   6.9711745  77.1355295   0.4115258  40.1642323
  77.7586412  -0.3029507  40.2964687  77.5999546   1.1929450  40.4641008
   7.0168561  63.5403252  53.5901833   7.4034894  62.7005863  53.3420277
   7.4632239  63.7787533  54.4026756   7.9496795  60.0923395  47.7465916
   7.6020181  60.8874178  47.3425961   7.3992366  59.3886757  47.4029303
  23.3717513  57.8559208  43.5746431  23.2716799  58.1418657  42.6666498
  23.1937265  56.9157267  43.5506678  27.8384566  17.4742341  10.7489705
  27.4089909  17.2302353  11.5688837  27.3987460  16.9468296  10.0820887
  61.0367537   5.4999840  59.3692970  60.9046984   5.6927788  60.2975321
  61.7315292   4.8416615  59.3578863  28.2917690  43.6391211   2.4639635
  27.3870397  43.5423565   2.7611679  28.7605906  42.9186821   2.8851604
  58.2258034  61.7025137  58.9274597  58.5711002  61.4275932  59.7768211
  58.8383579  62.3732615  58.6256170  40.5758715   9.2104691  52.5619555
  41.1390018   9.5363981  53.2640171  39.7120881   9.5720404  52.7603960
  43.9273453  11.8459308  40.2734184  44.6080494  11.1730933  40.2607107
  43.1126070  11.3651609  40.1274776  79.0437365   1.1011094  56.3639307
  78.9538956   1.1900272  55.4151154  78.6627007   1.9050965  56.7169857
  18.6534953   0.7163744  46.0848570  19.1010642   1.2932904  46.7037964
  17.7334177   0.7521790  46.3464069  38.3690023  51.1173916   3.8441485
  37.7027345  50.5751181   4.2663535  38.0615544  52.0152187   3.9691225
  60.9028006  51.0215521  14.4951665  61.3326550  51.7028666  15.0121474
  60.0710773  51.4126825  14.2277956   0.2404921  61.3528395  44.4632626
   0.0218634  62.2700119  44.2982531   0.0436737  61.2228632  45.3909492
  41.8417168  74.3034840  58.4062481  41.7792416  73.7149668  59.1585588
  41.1108255  74.9116468  58.5165644  42.7306461  10.9574044  12.7198458
  43.4581852  10.8082187  13.3237207  41.9924974  11.1841035  13.2855093
  75.3604269   2.3196033  53.2667685  76.2400866   2.3529573  52.8908443
  75.5029440   2.3500144  54.2128134  16.2683821  19.8962355  31.0370135
  16.6467822  20.7224011  30.7361889  17.0057321  19.4200456  31.4188385
  66.9826365  33.1851292   3.9689660  66.6346407  32.4176264   3.5150120
  66.2213707  33.5745788   4.3991223  10.3838694  68.5035801  29.3279648
  10.8849239  69.2652225  29.6196437  11.0023332  67.7750111  29.3820167
  76.5788746  60.1706934  23.0669498  76.6117239  61.1119461  22.8960824
  76.4136267  60.1036119  24.0073872  51.7093229  10.6136107  62.9817104
  50.9719753  10.1219320  63.3433771  52.4323511  10.4387009  63.5840988
  56.9819689  56.9202518  54.8691130  56.1493206  57.3923969  54.8721790
  56.7618036  56.0485315  54.5406914  16.4380550  55.2216387  52.0759201
  17.2604764  54.9068260  52.4510860  15.7626832  54.6950388  52.5034618
  39.0854740  61.1798859  29.1447091  39.4118905  60.9000587  29.9999166
  38.1491971  61.3246202  29.2813492  47.5499344   9.1020519  53.8259459
  47.7414227   8.2578176  54.2343950  48.0095816   9.7412574  54.3703461
  46.8973827  69.0376663  61.5230274  46.5990400  69.9470758  61.5370083
  46.6253090  68.6833000  62.3695707  46.3384342  36.5681911  31.7715931
  45.5989075  36.3285923  31.2130928  45.9913445  36.5200233  32.6623464
  17.8483534  56.0456753  20.3922772  17.2900331  56.8230915  20.4039764
  18.5736656  56.2628651  20.9779263  26.0641003   2.1119185   1.6143331
  25.2992988   1.5736985   1.4102991  26.5911007   2.0918411   0.8155225
  63.5939312  21.0142255  31.6651344  63.8595247  21.9319844  31.7235208
  62.6393795  21.0447526  31.6008663  19.3468678  37.7971506  19.2145491
  19.7517037  37.8793025  18.3510721  19.6298504  38.5799336  19.6872067
  59.7770166  25.7850528  58.3235359  60.3741026  26.3402224  58.8250399
  59.3463278  26.3852000  57.7147961  42.8549147  33.0503750  44.9461603
  43.1038332  33.4030724  44.0918303  42.0740938  33.5465455  45.1918507
   6.9806260  55.4820490  10.3237987   7.0116675  54.9008369   9.5638919
   6.1378407  55.9296131  10.2487504  18.7409472  56.1471796  49.2448807
  18.7298501  55.8780193  50.1633930  18.9081430  57.0892334  49.2733622
  53.2362318  22.4437594  63.8951588  53.4114933  22.8434014  64.7470999
  53.8302040  21.6941905  63.8554811  52.3207474  29.8261714  20.1082420
  52.0852995  28.9548302  20.4269266  53.2744122  29.8027658  20.0294304
  42.6155853  21.2444592  50.4345179  41.7992830  20.8193254  50.6974745
  43.1172180  21.3224626  51.2460041  45.9870577  48.8563156  39.3856096
  46.1320734  48.4476423  40.2389479  45.8567572  49.7837782  39.5832586
   8.1261355  38.1506681  33.9341211   8.3209658  38.2224321  32.9997110
   8.3224535  39.0184951  34.2870593  41.3872719  25.2232170  44.6285725
  41.3441610  24.3775463  45.0749111  41.5628099  25.8539248  45.3268766
  40.9224176  46.5938377  51.6616631  41.4513254  46.8457747  52.4186373
  41.3875628  45.8484268  51.2818813  43.0744600  28.5725737  44.5578480
  42.9326963  29.3930149  45.0300884  44.0097427  28.5719585  44.3542051
  76.4677191  37.9465961  50.1333666  76.5401649  37.1392179  49.6243238
  77.2936201  38.0015659  50.6140947  67.8965187  31.9400644  37.0035481
  68.3386707  32.6019549  36.4719129  68.3575916  31.9592738  37.8421640
  52.9608202  44.2397070  50.5881214  52.8554630  44.8996019  51.2734461
  52.5080061  44.6079206  49.8294306  48.7514734  41.9952965  45.4630375
  47.9106855  41.5501451  45.5686331  49.2197752  41.4715862  44.8129177
   6.1287230  56.8696594   5.3612036   5.4217529  57.4795008   5.5722022
   6.0123187  56.6809559   4.4300362  56.5180731  19.1830015  34.1456318
  55.9953737  18.7947977  34.8472857  57.0882797  18.4729481  33.8508153
  49.4724941  36.9563222  35.7916164  49.1927624  37.8564572  35.9581661
  50.4114246  37.0253921  35.6187892  66.7269611  27.6982474  21.9883633
  67.5927544  27.7185893  22.3960686  66.2596321  27.0040870  22.4530911
  64.0041733  24.2879939  32.0256257  64.9253368  24.4974303  31.8712568
  63.8151550  24.6597338  32.8872013  42.2976494  41.1835051  42.1792173
  42.0916271  41.8952417  41.5732336  42.3327732  40.4019690  41.6276789
  46.2902447  73.8082244  25.5985141  46.5152737  72.9890329  25.1574731
  47.0771213  74.3473411  25.5184627  50.6948519  41.4584446  35.8784866
  50.2877045  40.6243086  35.6446433  50.6938362  41.9619989  35.0644445
  47.6077795  27.3676229  41.7101812  48.4978199  27.3924255  42.0615339
  47.3044968  28.2740283  41.7619610  52.7104187  35.3573418  34.4342709
  53.2462263  36.0327005  34.0182972  53.1476259  35.1845789  35.2680779
  64.3205070  35.2604604  32.3084402  65.1585436  34.8492694  32.0966578
  64.3685246  35.4314303  33.2490230  57.6899052   9.6922946  63.4520006
  58.1922674   9.9421394  62.6764727  58.2179594   9.0125233  63.8706827
  53.7166071  23.1484628  34.8974109  53.5064030  22.2966361  34.5147371
  53.0100679  23.7237525  34.6040320  75.2139091  43.3501911  29.7916508
  74.7548389  44.0853214  29.3853569  74.5430040  42.9058266  30.3099728
  59.3627834  29.6948671  37.5119352  58.4814978  29.5254827  37.1789503
  59.5226812  30.6164217  37.3084593  72.9992342  74.6125126  16.0106575
  73.2626057  74.3719149  16.8989015  73.6033058  75.3125286  15.7630515
  39.0747714  10.5799937  10.0764680  39.5568275  10.2201200   9.3319255
  38.3176827  11.0147977   9.6840489  57.4742079  35.2959299  43.9160776
  58.0754948  35.7931972  43.3616352  57.1298456  35.9405351  44.5342445
  44.5422220  33.5180616  49.2153072  44.9810219  32.7537560  48.8417768
  43.8394785  33.7169480  48.5965824  64.1387606  37.3487401  51.0207224
  63.4980917  37.0373845  51.6601181  64.8460913  36.7048645  51.0573673
  69.5142031  12.1324730  44.8388433  70.4365349  12.3731172  44.9261856
  69.1314411  12.3371685  45.6919670  46.9018745  36.5612674  35.5291891
  47.8436422  36.4259887  35.6341362  46.8247128  37.4504232  35.1832414
   6.6983318  45.3216171  18.5861397   5.7528746  45.1721525  18.5843790
   6.8906343  45.6494141  17.7076173   9.4013393  62.0627594   8.4424281
   8.5892117  62.0874548   7.9363930   9.1815984  61.5547085   9.2233461
  68.1282282  28.2816887  60.7902145  68.0669546  28.2884860  61.7454243
  68.8984919  28.8156605  60.5958128  46.2644100  47.7554560  48.8301373
  45.3871202  47.6741695  48.4559965  46.4587164  48.6915874  48.7839031
  75.0262737  45.9204960  36.3009191  74.5307159  46.0574150  35.4935122
  75.8915567  46.2854576  36.1156726  77.5205660  25.2935100  18.5318661
  77.7462959  24.4193125  18.8497627  77.9746246  25.8895946  19.1274714
  75.0292635  30.2037072  52.3096991  75.4198980  29.7045374  53.0269623
  75.4008484  29.8155427  51.5175581  42.1410322  14.6792865   2.6575038
  42.5650692  15.0121331   3.4484783  42.3278475  15.3392184   1.9898051
  68.2403326  32.4984193  51.7717934  67.9858398  31.9249344  51.0488939
  67.9822493  33.3743787  51.4848804   2.1291906  39.1492939  62.0220661
   1.4617783  38.5181308  61.7529488   2.9505283  38.6589837  61.9869757
  56.0083008  21.6675234  32.8593755  56.2660789  20.8796883  33.3380175
  55.0532246  21.6201496  32.8167772  52.1309328  32.8966451  33.3067489
  52.6408482  33.0924749  32.5207019  52.1983290  33.6890030  33.8395333
  54.4352818  30.3385568  35.5794406  54.2070627  29.4344759  35.7957458
  53.7446117  30.8633256  35.9841943  48.5906935  29.9321508  58.6866856
  48.0485630  30.6997323  58.5046244  47.9679155  29.2076826  58.7460041
  24.8963118  27.1444869   8.1974894  25.7462788  27.5592208   8.3450836
  25.1056957  26.3161755   7.7658790  38.3548474  45.6358242  56.7761421
  37.6321840  45.3532839  57.3366404  37.9431248  45.8298731  55.9340811
  59.0455770  53.2420015  14.4467163  58.6243391  53.3244228  15.3022850
  59.1636276  54.1443443  14.1499484  43.9938164  30.3594613  49.8536348
  44.8484325  30.4756021  49.4384623  44.1919661  30.2535105  50.7840872
   2.6992202  53.6562681  36.2979126   3.3223453  52.9428101  36.4354706
   2.0495450  53.2940340  35.6954670  69.5867062  17.2743678  37.0754528
  69.9705315  17.7028883  36.3104153  68.6445570  17.4145591  36.9809675
  57.3022413  38.9387321  42.4082565  56.6217756  38.9912748  41.7371082
  56.8379211  38.6646581  43.1991577  61.5201044  54.1062784  45.2238274
  61.8680000  53.2145977  45.2338791  60.7260180  54.0595770  45.7562542
  52.4303722  41.0838556  32.8650451  52.9115820  41.3469601  32.0805430
  51.9951630  41.8842077  33.1587458  44.9637508  42.4836397  46.6479826
  45.2011490  42.2128391  47.5348568  44.3860054  43.2363462  46.7739630
  76.5402985  21.1537075  19.1744971  77.3279142  21.6167450  19.4599640
  76.6030550  20.2945566  19.5918155  67.7485847  31.2477612  49.0644693
  67.9470921  30.3716063  48.7340498  68.5302734  31.7623401  48.8634634
  45.8859587  46.0571480  38.5449576  45.3813171  45.7151461  39.2829323
  46.0156441  46.9826698  38.7518930  64.4823599  43.5796547  23.8460112
  65.0550318  43.0047798  24.3537545  64.6114779  43.3052206  22.9381323
  47.3848772  45.0201178  48.5043049  47.2765732  44.7848654  47.5828075
  46.9983101  45.8928728  48.5757208  41.2785816  33.8821101  58.5456991
  40.6575918  34.3395901  57.9788494  41.6140556  34.5613337  59.1308069
  76.4730883   0.3620530   9.1472298  77.0198965  -0.1920296   8.5902500
  76.8439960   1.2391467   9.0504438  62.4884081  32.4055052  33.1699324
  62.9316378  32.5254297  34.0098119  61.5688610  32.2740626  33.4010029
  17.6213777  14.0783000   8.5685289  18.4185612  14.2641830   8.0723661
  17.8513312  14.2798555   9.4755727  45.1133108  43.7169647  43.9955044
  44.9124718  44.4267225  44.6055412  45.4383278  43.0084515  44.5510244
  69.1924524  10.9634113  36.5564203  69.4479418  10.4020524  35.8244133
  69.4675970  11.8413651  36.2923646  47.5096273  34.5274425  18.2858086
  46.8438530  34.9008012  18.8633680  47.1389771  34.6114516  17.4072909
  40.8181763  37.3231936  57.8338766  40.1110268  37.4224424  58.4713078
  40.4971027  37.7670193  57.0489168  55.0719261  67.3601198  17.4876332
  55.5532694  67.8753948  16.8403077  55.6929398  67.2369623  18.2055485
  26.7037392   7.8523076  13.0996335  27.4902678   7.3068523  13.0905628
  26.3571382   7.7580744  13.9868879  55.6898546   7.6333112  43.4632254
  56.0499001   7.0186180  42.8238916  56.0755968   8.4771109  43.2277775
  53.9293051  30.4482031  61.8242598  53.3388281  31.1794114  62.0056581
  54.0235329  30.4470706  60.8717108  22.4303627  14.8298681  23.5116053
  21.7585826  14.2475116  23.8662934  23.1498218  14.7767782  24.1407251
   5.7523751  47.9995871  22.5056028   5.8693576  48.5859394  23.2530928
   5.8071971  47.1203566  22.8800082  18.9327431  41.0737467  28.5247612
  19.0308142  40.1545668  28.2763147  17.9927182  41.1843014  28.6674547
   9.1465378  64.8549652  21.3631225   8.5457188  64.1976595  21.0121250
   9.9000078  64.8299932  20.7732987  67.0118713  16.6858757  44.3122005
  66.4980316  15.9106719  44.5386028  67.3952484  16.9698572  45.1420212
  50.3167152  38.6818409  45.8535862  50.6916904  39.4109130  46.3476324
  50.7235765  38.7437439  44.9893761  76.4533615  27.1063924  30.2531457
  77.3184586  26.8250537  29.9553442  76.4473104  28.0529833  30.1111579
  51.2986231  46.0430527  64.1428471  51.2302065  46.7515516  63.5028601
  50.8300591  45.3113842  63.7411737   4.5923364  38.5140395  42.0522022
   4.9143156  38.6630058  41.1631775   3.9422885  39.2029905  42.1900988
  30.4759145  42.1479321  16.8420649  30.6349635  43.0473757  17.1283174
  29.9786401  41.7530251  17.5583041   6.8173522  10.3911531   8.7528777
   6.2826568   9.6016192   8.8363570   7.0557886  10.6151640   9.6524322
  47.4288273  35.2687383  42.4958038  46.5338945  35.1705527  42.1707106
  47.4913692  36.1892152  42.7508402  40.4883909  25.1979232  42.1610165
  40.1710749  26.0928988  42.0403385  40.6904316  25.1393008  43.0948114
  74.1084480  21.4672518  52.4894810  74.6736479  22.1861959  52.2068167
  73.4286022  21.4185977  51.8174124  58.0814409  22.0974803  60.1254129
  57.4076509  22.3068452  60.7722616  58.7785959  22.7319145  60.2918339
  77.7941322  12.6849580  39.5560241  78.2306242  13.4602332  39.9090910
  77.4300194  12.2445357  40.3239298  11.3368738  41.5572548  37.8087687
  11.1477733  42.0421362  38.6121130  10.8411527  40.7432938  37.8979850
  59.6625185  46.1643648  55.5904531  60.1181602  45.3632450  55.3319359
  60.2640009  46.5970898  56.1964273   2.5359502  66.0370398  58.6491489
   2.3873298  65.7586527  59.5528316   2.6576096  66.9846869  58.7073898
  68.4550047  31.1341810  60.1043034  67.8141594  31.0555601  60.8109617
  68.7983131  32.0235610  60.1901627  36.5848470  55.2723026  61.2984228
  37.3782158  54.7736025  61.4936066  36.9025445  56.0775518  60.8899212
  66.9757318  56.6429472  49.5435143  67.4277210  57.4194241  49.8736906
  66.3894176  56.3863182  50.2552795  10.7575202  50.2428246  33.7635159
  11.6914701  50.2602863  33.9724731  10.5811787  51.1030912  33.3826256
  43.7966204  12.2853863  42.9183960  44.4275427  11.6526735  43.2616806
  43.9167643  12.2526121  41.9693327   6.0521919  70.8580399  54.8275566
   5.6609768  70.5553579  54.0080643   6.1165124  71.8076468  54.7258711
  74.3587446  50.6213760  48.6194181  73.9530706  51.3367224  48.1295824
  75.2765560  50.6355429  48.3480263  42.3959160  71.0060406  12.4840796
  42.0384598  70.9777117  11.5965819  43.2315636  70.5435514  12.4205935
  72.3140526  19.0769529  58.5250902  71.8457413  19.8538542  58.2195711
  71.6320944  18.4145486  58.6363935  74.9814844  62.1657658  51.8566942
  75.3454065  62.7075148  51.1564827  75.5391216  62.3461390  52.6134872
  18.6708832  49.3647099  30.6125116  19.3708146  48.9713383  31.1336565
  18.5457373  50.2327919  30.9959173  51.5562344   9.1451049  25.9208393
  50.7394314   8.6886579  26.1226344  51.3806391   9.5966387  25.0953007
  44.1608858  22.1646070  48.2980394  43.8670635  22.0944691  49.2063236
  43.9778662  23.0725789  48.0565405  43.8765001  66.8534613  61.4505053
  44.5634556  66.9059849  60.7859993  44.2214823  67.3515749  62.1915197
  47.7691269  53.6752319   3.6329240  48.5235929  53.6513472   3.0443311
  47.8291130  54.5273924   4.0647379  65.3570080  62.3735619  19.6770680
  65.9607601  62.3565102  20.4196453  65.8842182  62.6983452  18.9471400
  19.2389679  24.2262840   0.9969991  19.1924143  23.7201595   1.8081106
  18.6559510  24.9707890   1.1454501  18.5809159  54.0841007  53.8767147
  18.8938928  53.7206125  53.0483723  19.1606426  53.7065220  54.5382118
   4.3852887  31.8190861  49.9131441   4.2254478  30.8792257  49.9988461
   3.5117608  32.2065187  49.8576736   0.6512468  39.8924470  36.1083150
  -0.2019151  40.2228069  36.3897538   0.5279890  38.9464045  36.0305548
  52.7678633  69.7612095   3.1032956  52.9706287  70.4376221   2.4570853
  53.5034513  69.1510344   3.0501944  57.5398064  72.4727535  47.5240993
  58.2888317  72.3991871  46.9326782  57.8800583  72.2009277  48.3764887
  56.3325596  73.8942194  45.1586008  55.4584980  74.2494392  45.3200626
  56.5172863  73.3541012  45.9269667   4.8796007  64.6827078  43.9248800
   4.4186765  64.9022198  44.7345686   5.5908823  65.3212023  43.8735342
  53.5397100  37.5743699  45.6260538  53.3214998  38.3572936  46.1316729
  53.4597445  36.8548512  46.2522602  47.1650171   0.9853694   9.1947597
  46.2134075   0.9836478   9.0914583  47.4682474   0.2724366   8.6326140
  72.0991707  30.6563878   7.6423967  72.7178621  31.0389996   8.2645416
  71.8927288  29.7962546   8.0081642  62.9732227  70.7740164   6.4768475
  62.0257139  70.7826233   6.3412756  63.3299780  71.2085676   5.7021719
  67.1719170  44.2919970  42.7221441  66.2659502  44.2265034  43.0240726
  67.6318169  43.5962439  43.1918812  26.3507557  37.5953341   9.9289322
  27.1355033  37.4256277   9.4077790  26.6769624  38.0227137  10.7208705
  66.8398762  56.3376045  37.8039742  66.5877295  55.7052994  38.4769130
  66.8718147  55.8266687  36.9951725   3.8954845  57.4881029  50.0650692
   3.6127105  56.9085360  49.3577003   4.8328665  57.3164940  50.1550531
  48.6981916  67.7657557  26.2630224  48.8434696  67.6840019  27.2055936
  47.8229904  68.1459904  26.1876678  63.5548067  56.4212322  36.6639996
  62.8796291  56.2868357  35.9989381  64.1877508  55.7203674  36.5077782
  54.0144682  58.2688761   5.5192107  54.5033073  57.7828264   4.8551166
  53.5638809  57.5939083   6.0267740  48.0551434  50.8938026   3.3461806
  47.8424931  51.2647295   2.4897784  47.7993774  51.5721560   3.9712018
  66.5252447   9.7629899  58.1362391  66.7944479  10.2747643  57.3734474
  67.1211243  10.0393450  58.8325024  18.6264801  13.9740944  30.7270885
  18.6996174  14.9246681  30.8124900  17.8000879  13.8381350  30.2636003
  50.3566980  29.9320245  12.7651727  49.8563814  29.5781302  13.5004807
  51.2678194  29.8970532  13.0564928  51.9029140  24.5156860  50.6676197
  51.3280058  23.8999414  51.1221170  52.5523996  24.7664738  51.3245106
   1.8800074  14.0620303  45.5083704   1.9402617  13.1111586  45.4164648
   2.7655596  14.3767953  45.3268433  73.9887857   2.4327303  23.6046433
  74.6900702   2.2830729  24.2387080  73.1886244   2.4406077  24.1299176
  49.7587538  36.4140105  19.7056532  49.3811083  36.9283962  18.9921939
  50.2431917  37.0515108  20.2301908  37.1830225  13.6750495  44.6989727
  36.9206762  14.5491445  44.9876976  37.5786901  13.2756269  45.4736567
  20.1867247  15.8770978  33.8555694  20.7887650  16.4255250  34.3585658
  19.5711982  16.4956129  33.4621286  62.0702219  55.5702591  32.4238539
  61.7999506  55.7469893  31.5227699  62.4361801  54.6862459  32.3951387
  75.9917593  60.6402206  25.6609631  75.1484919  60.3136158  25.9747410
  76.4347172  60.9553862  26.4488029  16.5325403  51.9380522  31.8686795
  17.4317896  51.6443586  32.0147133  16.6131759  52.6499128  31.2338686
  60.1535463  21.7543435  11.5009880  60.1276350  22.6733947  11.7672670
  61.0525370  21.6167283  11.2024677   7.3085177  38.0483627   7.0672059
   7.3275423  38.6502528   6.3231629   8.2301098  37.9016924   7.2802490
  71.1917162   9.0739524  19.0646017  70.7005119   8.2733142  18.8804078
  71.5486383   8.9393520  19.9425101   8.0169821  54.3893385  31.8484664
   7.4958569  53.9531755  32.5225759   8.8424402  53.9049673  31.8331027
   2.6506019  48.2471323  29.1938829   2.0128590  47.5402546  29.0946913
   2.5171041  48.7999439  28.4239388   4.3820807  35.7047844  55.6440449
   4.5210156  36.0586810  54.7655869   3.8892820  36.3860226  56.1015320
  71.0079336  53.2193136  43.7335110  71.3608980  54.0349579  44.0889978
  71.6841364  52.9078245  43.1318855  56.4465666  45.9970856   2.8069228
  55.8572626  46.2492228   2.0960212  56.1128569  46.4653921   3.5721403
  76.1767387  43.9549637  47.2497129  75.7962084  44.0617943  48.1215000
  75.4273176  43.7771177  46.6814137  22.0228386   1.1003297  42.5043440
  22.1782947   1.1831195  43.4451962  21.3405156   1.7448889  42.3166895
   0.2677646  33.3930755  19.0087545   0.4097212  32.9140258  18.1923044
   0.8042313  34.1808963  18.9205790   3.4408450  59.2955542  40.4657793
   3.1544396  59.7483444  41.2589884   4.0150771  59.9226141  40.0261402
  12.4542761  61.4546490  60.5680847  13.3798409  61.2108183  60.5783987
  12.3870742  62.1104383  59.8740673  75.8378839  33.2416677  62.3264503
  76.1660242  32.8443980  63.1331301  74.8958397  33.3321333  62.4700069
  52.9424715  33.3225870   7.2323495  53.3109951  32.6877356   6.6180307
  53.5474825  34.0637398   7.2025567   8.1760591  70.9948492  31.9468999
   8.2086390  70.7205248  31.0304308   8.5432202  70.2554798  32.4314189
  74.4631863  55.6853962  12.6420438  74.4714451  55.2179623  11.8067765
  73.6017323  55.4961109  13.0139303  75.5114508  73.2863522  38.0176377
  75.9343529  73.8249397  37.3488283  76.1358833  73.2710505  38.7429476
  57.2712135  22.4770880  28.1344032  57.0193291  23.3936119  28.0214095
  57.5166178  22.4081373  29.0570378  50.8440113   5.7427013  61.8846703
  51.7458534   5.4287481  61.9505739  50.5621862   5.8539915  62.7926445
  65.4713583  65.7252502  42.3889971  65.6629515  66.6487360  42.5523806
  65.7138538  65.2827787  43.2024145   1.1001548  21.1274290  45.7966232
   0.8580098  20.9174657  44.8946714   1.5366866  21.9771194  45.7358122
  21.6291547  12.7340305   2.6410967  22.3960090  13.2739580   2.8325307
  20.9130192  13.3614659   2.5425795  48.2136345   2.7851236  22.7166224
  49.0016031   2.5566730  22.2235250  48.4050035   2.5120777  23.6138725
  16.3503194  53.7011242  34.5415759  17.1013260  54.2147923  34.8388362
  16.6375160  53.3132839  33.7149382  67.0610094  55.5444717  24.4602060
  67.5703812  56.2447166  24.8681664  67.5268078  54.7417450  24.6945000
  62.2630787  37.2300053  61.6381264  62.1049881  38.1574869  61.4620113
  61.7474461  37.0439267  62.4228096  73.1429195  34.1729569  52.4540424
  73.7853575  33.5621977  52.8152561  73.3828211  34.2547798  51.5310097
  48.4636974  71.3163376  32.5820804  48.1444597  72.0497894  32.0563698
  47.6879215  70.7776451  32.7376986   4.8655751  35.5623484  30.9105468
   4.2463750  36.1788273  31.3014150   5.6740338  35.6873870  31.4075303
  57.7104235  57.5264931  51.3869333  57.0072746  57.0227623  51.7968988
  58.0607462  58.0681562  52.0941162  65.2611637  46.6950607  49.6380615
  64.6202755  46.8546152  48.9452171  66.0415268  47.1729326  49.3571615
  71.1119843  27.6088452  59.0550804  70.5472422  28.3002520  58.7097406
  71.9698429  28.0235457  59.1463518  14.8521960  49.7741127  47.6536417
  15.5547690  50.0824261  47.0813084  14.2872334  49.2551804  47.0811415
  26.9735718  13.7788951  19.8005664  26.1182737  13.4877825  19.4844151
  27.6023293  13.3474886  19.2219615  76.9095373  20.9166813  50.5625296
  77.3092937  20.0469661  50.5669594  76.7241716  21.0997748  51.4835882
  55.9024525  33.5791469  60.6896591  55.8977556  34.0909481  61.4985275
  55.0745869  33.7988973  60.2623701   6.5559900  53.7313986   3.9908969
   7.0930880  52.9513788   3.8518849   5.9299576  53.4736538   4.6675682
  41.4791441  53.2414865  58.8957834  42.0951700  53.9740372  58.9061546
  41.4263296  52.9859734  57.9748297  35.1214433   8.4205639  11.5364146
  35.6199646   7.8926700  10.9126878  35.1757813   9.3122733  11.1927092
  65.2006578  38.4696794  44.2698908  64.8782921  39.2437577  43.8082457
  65.8859825  38.1194830  43.7007475  64.8230171  50.9326553  55.3113604
  64.6056080  51.8486500  55.1383877  65.5358934  50.7367563  54.7033644
  62.9664898  16.1547709  42.2879314  63.5840034  16.7310584  41.8375969
  62.9632378  16.4674056  43.1926298  73.4810734   0.7140429  51.1382914
  74.2267227   0.9512907  51.6896057  72.9256248   0.1780426  51.7043400
  63.8202047  17.2766948   4.4336957  63.8337946  16.4633048   4.9381191
  64.6320248  17.2578418   3.9269230  43.0935287  69.5267010  31.6522646
  43.1331635  68.5876751  31.4709115  42.1604156  69.7376585  31.6201997
  62.0894384  62.3714590  60.3515768  62.4487305  62.1810675  59.4850349
  61.6062880  61.5801859  60.5896711  68.1349564  41.0464859  41.4382935
  68.1495380  41.3602018  42.3425102  68.4357357  41.7934179  40.9207487
  56.9560862  47.4678755  55.2840281  57.0208788  47.9884052  56.0847044
  57.6750374  46.8392134  55.3482151  22.9035640  24.5683742   1.0434484
  23.7396669  25.0313544   0.9903880  22.3248982  25.1716518   1.5097454
  63.0777264   1.7294121  55.4875088  63.5978937   1.8080375  54.6878386
  63.0409813   2.6194507  55.8378124  37.3034525  74.3037891   6.2561280
  36.8451715  75.1441097   6.2475359  37.3304653  74.0363026   5.3374588
  53.5053921   6.4854801   4.7993854  53.7610674   5.9076238   5.5183738
  54.2542505   6.4719421   4.2033455  75.5851889  50.8340216   0.3527882
  76.1396980  51.5166521   0.7306340  74.9419641  50.6428432   1.0353898
  47.1791697  17.8299367  52.4575377  47.4334812  17.2022438  53.1339645
  46.3633680  17.4793887  52.1000242  57.8648949  38.8591313  18.7223697
  57.3987150  38.1222653  18.3274794  57.9448318  38.6242509  19.6468544
  20.8737922  45.5910826   5.3643495  21.8161511  45.6562805   5.5190748
  20.7609010  44.7479534   4.9254632  49.0117216  46.4914274  59.5371437
  48.6956596  46.9872618  60.2924490  49.5139694  47.1266460  59.0267754
  73.8576460  67.6382828  43.8036156  74.0651846  67.9698992  44.6772242
  73.6923075  66.7046499  43.9348650  23.0672789  15.9226954  37.8777313
  23.1644392  16.8395638  38.1349158  22.9299235  15.9527862  36.9309163
  44.8068810  57.4860048  63.0637932  45.5449343  58.0659437  62.8762150
  44.9643469  56.7143250  62.5197840  14.8574281  42.5360823  27.4050045
  15.4489291  42.2372007  26.7143345  13.9820480  42.4336958  27.0315623
   8.0287111   8.7867093  24.3869758   8.7081021   8.9894921  23.7439060
   8.4125394   8.1001973  24.9325109  68.8169813  29.5912719  29.0431905
  69.2431116  29.0351009  28.3910275  68.8137245  30.4634428  28.6488080
  54.1205549  45.8630276  12.1820819  54.3611336  45.1226711  12.7390575
  54.3755484  45.5920696  11.3001561  45.3093004  68.8604927  18.1173110
  46.2423325  69.0690613  18.0706120  45.2768469  68.0000925  18.5355079
  63.4100103   9.7741061  62.7283382  64.0202379  10.0893760  62.0616579
  62.7906227  10.4943633  62.8458929  27.1256065  54.9068785  34.3854642
  27.0507646  55.5627203  33.6922812  27.2796440  54.0841341  33.9211464
  27.1358871  57.5127459  55.2519989  26.2762737  57.7919531  54.9368191
  27.6161027  57.2748137  54.4588947  78.5433980  41.7666742  63.9883992
  78.6295577  40.8161604  64.0614193  78.1173917  42.0318746  64.8035197
   6.1584502  58.8298082  29.5795989   6.6769981  58.3218384  30.2035475
   6.7920762  59.4106531  29.1584492  55.4409742  59.8545265  50.0658941
  55.4199648  60.7916594  49.8720551  56.2887096  59.5600271  49.7329617
  79.3381977  66.1120749  40.2215767  78.4232044  66.0487604  40.4954529
  79.5428181  65.2464342  39.8679757  13.7166667  41.0486650  18.3692336
  13.9886439  41.6860723  19.0295148  13.2462656  41.5664721  17.7159107
   3.6803263  46.3149357  50.9523487   4.4127220  45.9818029  51.4708567
   4.0587536  47.0222330  50.4300928   5.0883281  30.3122807  60.9993124
   5.4342103  31.0699463  61.4710569   5.2698344  30.5001807  60.0784540
   7.2112405  35.0871301  18.5622096   8.0844057  35.3775787  18.2986677
   6.8654728  34.6375990  17.7911067  20.5826116  23.3876705  12.4194276
  20.6342077  22.5508475  12.8812659  20.3347182  24.0190768  13.0947852
  75.5355072  33.9325237  58.1559801  76.1630583  34.6384192  58.3113050
  75.3745747  33.9583611  57.2127581  65.3386927  34.0909934  58.5136604
  65.6253767  34.9575138  58.8020849  64.3968868  34.0811944  58.6843395
  14.0334213  11.5965164  46.1557055  14.1056943  12.3298323  46.7666531
  14.1869533  10.8201551  46.6941547  49.0579605  61.6693735  12.0494390
  48.9860916  62.5839233  12.3226905  48.1976604  61.4597082  11.6858983
  21.0166788  50.3755569  44.3514442  20.5160308  50.9203482  43.7441683
  20.8223748  50.7391357  45.2153206  46.3514900  33.7279773   0.6876020
  46.2079763  34.5614886   0.2393927  47.1102476  33.8856792   1.2494282
  70.8933449  33.2447791  50.3603983  70.6360435  32.8154111  51.1762810
  71.8480158  33.1769657  50.3447866  72.5542498  39.7296929  44.2102432
  72.8802633  40.3926849  44.8188353  71.9268227  39.2209721  44.7238255
  20.9670115  12.0587838  38.7170815  21.8027782  12.4574399  38.9595699
  20.4511237  12.7820194  38.3606815  77.1537018  55.9125614  33.9048123
  77.8378820  56.5548801  33.7162447  76.3469410  56.4262629  33.9432764
  42.2021914  11.0633993  19.6009755  41.6430616  10.5880702  20.2155232
  41.5980816  11.4020503  18.9402187  25.5393310  74.9523410  44.3935537
  25.9443327  74.0914071  44.2886829  25.0596424  74.8923418  45.2197075
  15.6781193  74.8126116   3.1311837  16.0536428  74.9344280   2.2591895
  15.1332184  74.0298365   3.0500841  55.1479578  41.7411947  62.0413065
  54.8396301  41.6402960  62.9418516  54.4723272  42.2679996  61.6144276
  14.5213652   8.6406821  37.1571565  14.8576510   9.0473479  36.3585544
  14.4707572   9.3584400  37.7884221  20.1897430  37.3347330  28.4570956
  20.1165080  38.0692935  27.8477597  20.6031799  36.6393995  27.9454184
   8.4096593  70.5249357  21.6598034   7.8795362  69.8149347  22.0218849
   8.4629673  70.3308058  20.7240129  73.3334494  48.0632687   5.3033739
  72.5912523  47.6962900   4.8230612  73.0853128  47.9842758   6.2244713
  12.5073349  45.4344082  23.0182290  12.3843586  45.7284641  22.1156573
  11.6295254  45.1916218  23.3127403  73.9670944  44.1744137  62.8691196
  74.8359776  43.8598680  62.6194382  73.8995552  45.0387526  62.4634218
  64.7971582  48.2600307  60.8604050  64.4965792  48.3652401  61.7630768
  65.2099752  47.3965740  60.8445215   2.3229215  18.1126273  21.0045481
   1.4560527  18.4327304  20.7549405   2.6183137  18.7231016  21.6800451
  65.4476309  66.1710787  13.7218952  66.3160658  66.2243700  13.3228803
  64.9651909  65.5601788  13.1648636   6.8864596  48.6533213  27.6768708
   7.3089957  48.1510448  28.3735895   6.3357192  49.2860317  28.1379509
  32.9049826  70.8365679  45.4720736  33.1492281  69.9992228  45.0778198
  32.2634172  71.2082529  44.8667049  41.5035391  48.5323048  12.2068119
  41.4032078  48.4959316  11.2555802  41.8248510  47.6632690  12.4471664
  44.0388012  61.0293722  53.1529856  44.5319080  60.7442236  52.3837233
  43.6399794  61.8582392  52.8881168  22.0691538  53.5812187  52.7302408
  21.8338251  53.4176397  51.8169546  21.5746355  54.3654680  52.9682255
  62.9257154  12.1313250   6.3459778  62.5841713  11.3115895   6.7032075
  62.4333382  12.2630727   5.5357683   8.4615894  73.9601137  56.6465664
   8.6405512  74.7165443  57.2051525   9.1752025  73.9592966  56.0086155
  19.0313804  10.6098187  20.4325771  19.9379671  10.9162545  20.4118752
  19.0733159   9.7682852  20.8867741   2.3710166  73.7813807  43.3125496
   2.5138262  72.8488922  43.4747219   2.1171077  74.1365004  44.1644049
  24.2689180  15.2809870  35.2425647  24.7518635  15.0029290  34.4643092
  23.5751367  14.6287084  35.3396702  70.7423496  56.1428499  43.7345982
  69.8490381  56.1314678  43.3909559  71.1871052  56.8188000  43.2232094
  14.4135082  71.2121248  55.9358692  13.9016902  71.4120913  56.7196321
  13.9208317  71.6124868  55.2194786   3.9523435  47.3449945  43.0059385
   4.8929670  47.4928522  43.1039095   3.8462633  46.3995314  43.1111956
  72.0148230  73.7923098  49.7946405  71.8841743  74.0231991  48.8749361
  72.9614162  73.6796045  49.8811531  64.8143435  55.7171202  33.4584355
  63.9104271  55.9880686  33.2979536  64.7780466  55.2413654  34.2882395
  18.2154346  10.0810242  33.8759804  18.4176183  11.0145617  33.8138390
  18.4591305   9.8421931  34.7702980  78.7183300  54.2568207  42.6687956
  79.6591226  54.1580486  42.8150368  78.6471752  54.9831057  42.0493793
  64.6722174  20.1335382  19.7974896  64.2848158  21.0070539  19.7415888
  65.6119108  20.2809787  19.6903706  54.8376894  52.2073221  17.4223351
  54.0941763  52.6430893  17.8389037  54.8051357  52.4971867  16.5106606
  16.8382454  26.5795994  37.8482819  16.0419393  26.5885735  37.3171997
  17.5207198  26.2725449  37.2514749  22.0582771   3.7237370   2.9698768
  21.8971777   3.0470908   2.3122835  21.4280772   3.5364765   3.6655873
  10.6956100  37.5026822  54.6007442  11.4550102  37.3155761  54.0489006
  10.4400766  36.6503477  54.9535322  55.8772278  73.5133839  10.2878332
  56.0741472  72.5984192  10.0870883  55.6013203  73.8880968   9.4513547
  73.5732031  48.6904192  36.0200286  73.9587975  49.5074415  35.7037640
  72.8804493  48.4927845  35.3897405  61.5760517   6.5148580  12.9714966
  62.1445370   5.8805126  13.4081471  62.1464872   6.9525170  12.3396027
  78.7348991  69.9050617  31.1295247  79.5407463  70.3468084  30.8617496
  78.8722872  68.9890718  30.8880496  74.0601778  45.7801580  27.9694486
  73.7636518  45.2100897  27.2599959  73.2991314  45.8630848  28.5440516
  11.5749645  49.1908789  39.5145011  11.5011358  50.0682354  39.8900366
  11.8359125  49.3404818  38.6057901  12.1188498  38.6214328  43.3709908
  13.0205965  38.6447644  43.6912107  11.9264209  37.6898050  43.2648039
  74.2432070  58.9787531  43.3526516  73.3667707  59.2294645  43.0606937
  74.0970135  58.2371664  43.9399433   1.0242163  62.0500517  48.5710907
   0.2656194  62.6334238  48.5500956   0.6490000  61.1695242  48.5817337
   7.8141171  54.2649508  61.1231089   7.5129008  53.3567333  61.1485481
   8.7688637  54.2014503  61.1487961  27.1798325  49.1750622  51.3564539
  26.9408011  50.0993443  51.4257145  27.0242620  48.9556265  50.4378271
  28.7133050   6.0178709  12.6049471  29.3721771   6.2058860  11.9365382
  29.0750694   6.3900208  13.4092259  13.1316352  48.4432030  21.2431550
  13.7171435  47.7527475  20.9322214  13.4098065  49.2255735  20.7669735
  67.3786211  32.1595287  16.3880384  67.1765757  32.5113845  15.5210853
  66.5672827  32.2658062  16.8846977  41.5267897   2.3910248  58.0245638
  41.2354612   1.8987375  57.2570944  41.9079447   3.1919903  57.6648283
   3.6840534  44.0828133  28.3059716   3.5076758  43.4510231  29.0030861
   4.2689291  43.6202192  27.7058387  15.7459986  60.9542656   8.9112914
  16.5178168  61.0190487   9.4737244  15.1907980  61.6857529   9.1813040
  79.3203211  47.3544168   4.7496083  78.5772038  47.9009438   4.4940439
  79.1258001  46.4952898   4.3750507  68.9424181  41.1286259  38.0249238
  69.1449547  40.2218628  37.7947140  68.3800030  41.0599661  38.7964201
   5.1153874  64.0150833  39.1544366   5.6886911  64.7804880  39.1957545
   4.6597004  64.0114307  39.9962020  56.7919874  27.3055792  46.2754440
  57.4106598  27.1395159  46.9867086  56.6457415  28.2511950  46.3011026
  44.9841785  36.9733667  60.8771706  45.9041405  37.1146369  61.1006403
  44.5988083  37.8495407  60.8838224  71.3728952  56.5221357  18.9769399
  71.6686773  56.1265230  18.1570399  70.7223558  55.9083843  19.3180227
  64.5633554  13.8757694  64.9428892  65.3455019  14.0360403  64.4148827
  63.8762283  13.6900854  64.3028784  44.5651436  42.7794933  12.6150203
  44.0372086  42.4123096  11.9060159  44.6456051  43.7081766  12.3975074
  47.3976183  48.9413786  57.6036596  47.7654123  48.2850218  57.0119238
  48.0557156  49.0390110  58.2918453  61.7540884  43.0376577  23.8559937
  62.6691055  43.3186817  23.8547301  61.7602730  42.1996307  23.3934927
  62.2695255  58.0186605   9.8052865  63.1180763  57.8890085   9.3817502
  61.8200064  58.6563683   9.2507684  19.8345900  73.4867477  45.0193691
  18.9362741  73.1562328  45.0150394  19.8067617  74.2633533  44.4604921
  32.6480436  52.5004101  50.3181267  31.7501616  52.1708393  50.2804375
  33.0750179  51.9570589  50.9804630   3.5486898  24.9423361  58.6673212
   3.6313641  25.4420424  59.4795370   3.7710288  25.5677485  57.9776430
  65.8693886  57.1446991  11.1728048  66.4502382  57.9047441  11.1384630
  65.4183960  57.1495724  10.3285217  26.9691539  22.6877689  47.0879269
  26.3154364  23.2365751  47.5211620  26.5296483  21.8470240  46.9605923
  65.4762936  56.6817331  28.3377385  66.2647676  56.9653034  28.8004804
  65.4783964  55.7283354  28.4229612   5.3716099  74.2215490  25.3905940
   4.8572093  73.4673882  25.1027417   5.3450704  74.1788006  26.3464713
  20.3011966  11.6755939  30.5380344  20.9643149  11.5750802  31.2209725
  19.8113704  12.4574399  30.7930207  59.0159941  43.9752293  18.4087145
  58.9846611  43.8042879  19.3500066  59.5923662  44.7345352  18.3222330
   4.6231726  50.5370569  47.9006433   3.9372793  51.1148214  48.2352638
   4.5711219  50.6294298  46.9493341  70.7364178  73.1020212  58.6819172
  71.6832495  73.1118202  58.5417461  70.3652477  73.0131912  57.8040934
  43.8646841  64.0692663  43.2251644  43.9024210  64.5234060  44.0669298
  44.1824961  63.1865120  43.4148169  76.0654736  65.0214958  57.2176170
  75.7932806  64.6913338  56.3613844  75.4485559  65.7278824  57.4091053
  56.1332607  41.3395643  51.1012173  55.2436638  41.1922884  51.4224005
  56.5591383  40.4855442  51.1753845  52.4585962  30.9864426   0.4327495
  52.8753614  31.5738606   1.0632090  52.8718567  30.1370072   0.5873726
  20.4454303  49.8690653  54.6192884  19.6789646  50.1364183  54.1120577
  20.2550697  48.9693117  54.8846817   2.7967364  37.2841907   7.6183504
   2.4144664  38.1365943   7.4097663   2.1286210  36.8442321   8.1439835
  67.8885508  62.6752853  24.1733956  68.6043215  62.9752731  24.7336745
  68.1754923  62.8859377  23.2848430  50.4058266  70.1835108  11.1262369
  50.8482647  69.5688820  11.7116523  49.5007706  69.8736429  11.0932946
  77.8063440  40.8409023  37.4036908  78.1599379  41.1748314  38.2281256
  76.9900799  41.3251925  37.2795439  32.3039460  30.2950168  55.9158039
  32.3420429  29.8429608  56.7586708  33.0394077  30.9072208  55.9389019
  41.5320492  27.7884126   0.9266715  41.4514112  27.6039410   1.8624598
  40.9285116  28.5152864   0.7729609  36.3234591  64.8917961  23.4115362
  36.3276267  65.0237513  24.3595886  35.3981471  64.7923374  23.1876230
  77.5722456  35.3564668  33.0316448  76.8587971  35.1434755  33.6331916
  77.5746298  36.3128424  32.9919839  75.6604910  73.8357401  45.9606600
  75.6242275  73.1399679  45.3042936  75.3756762  74.6210146  45.4932594
   5.6848919  43.2213306  47.9858351   5.0215530  43.5726452  48.5797977
   6.3733763  43.8862467  47.9754686  67.3325491  44.7992992  58.2207155
  67.9394388  45.5386400  58.2566690  67.8240728  44.1072559  57.7783155
  37.4180722  60.9840298  32.9034305  36.7961526  60.5494452  33.4870243
  38.1747341  61.1736774  33.4581661  73.0907631  65.9872389  53.4489822
  72.4591208  65.3375101  53.7573814  73.1398630  65.8437538  52.5038719
  75.6118870  28.2865548  50.0257587  76.1278009  27.5555444  49.6856308
  75.5961847  28.9220619  49.3101358  24.2151523  68.1116247  51.6450548
  24.1272116  67.9076004  52.5761127  24.9482656  68.7256098  51.6026068
  12.3076773   2.9590812   0.6669874  12.4970150   3.8578552   0.3975658
  13.0148995   2.4401636   0.2838517  10.4695404  14.0212107  28.3965516
   9.7243261  13.4435844  28.5615826  10.6906354  14.3785846  29.2565703
  12.6536596  10.5441236  27.3106694  12.4982166   9.9575365  28.0509281
  12.9132545  11.3732231  27.7124619  51.5391874  63.7263298  51.3073301
  50.7035446  63.3027840  51.1110067  51.3915396  64.1723585  52.1412945
   5.3725505  22.0113754   5.0220597   4.6755087  22.6564479   4.9026993
   6.1744845  22.5316572   5.0714678  63.7094069  70.2860117  51.1744452
  63.1448078  69.5472336  51.4017534  64.5217371  70.1230192  51.6537952
  34.1822362  12.3029554  26.1758733  34.0500855  12.2464287  25.2295280
  35.1144195  12.1235526  26.2986755   7.6269341  42.7585459  10.0759244
   7.4469000  43.3605623   9.3538439   7.2943085  41.9139528   9.7722000
  60.0225449  72.7713966  14.5961797  59.2473507  73.1883144  14.9723351
  60.7128429  73.4291601  14.6802473  24.0661883  29.6827388  48.8766479
  24.1638541  28.8257265  48.4616518  23.2127690  29.9973798  48.5784721
  47.7838421  53.3846092  20.2878714  48.1175804  52.5092173  20.4841924
  47.1430731  53.2458067  19.5904589  68.0941486  74.6860027   9.0009719
  67.9709387  75.2951574   9.7289723  67.9993439  73.8190365   9.3954420
  11.7632186  68.7261486  38.1119514  12.5334239  68.1578493  38.1044555
  11.3601792  68.5720587  38.9663815  64.3676233  72.2473669  49.1699553
  64.7138691  71.6657686  48.4931326  64.2352009  71.6794157  49.9289846
  60.7717085  63.9176369  30.2860808  60.1863956  63.8386345  31.0393429
  60.2118349  63.7466574  29.5287538   3.4902656  50.3420305  19.9658179
   3.2889843  51.2164736  19.6325600   4.0208006  49.9398565  19.2780530
  53.6237955  66.5745497   1.7972293  53.0628777  66.3861990   1.0448141
  53.7593699  65.7235241   2.2138904  74.6504116  48.2478046  52.8110123
  73.8063812  48.4785557  52.4229479  74.5281219  48.3864021  53.7501955
  48.4921646  54.2523575  53.2911062  47.5555849  54.4223309  53.3918953
  48.8980293  54.6995735  54.0337420  70.2148724  66.7746830  38.8310695
  69.2681646  66.8923759  38.7527990  70.5225325  67.5791931  39.2486119
  33.6989212  58.7035704  53.1781769  33.2141733  59.4804621  52.8994370
  33.3708739  58.0019712  52.6157045  16.2582397  16.2857449  21.9004011
  15.8961928  15.5873334  21.3550806  15.9010005  16.1182570  22.7725029
  68.9675999  64.7100306  60.5346489  69.3032265  65.5196428  60.9195042
  69.7472429  64.1759062  60.3826427  13.7780201  52.6451206  34.7875667
  14.5908237  53.0918121  34.5508194  13.8992107  51.7474174  34.4782472
  50.5648804  20.2139568  60.3091812  49.8167515  19.7021914  60.6167936
  50.8578587  20.6978011  61.0813808  28.4583640  72.0098066   6.0764891
  28.8106489  71.4388275   6.7592096  28.6254787  71.5385103   5.2602899
  33.1123400   5.8484107   1.3752733  33.1555462   6.4855278   0.6622190
  33.0382061   6.3803536   2.1675943  47.0738077  12.5202870   7.0186043
  47.0446444  12.7007210   7.9581922  46.5091848  11.7559111   6.9038659
  34.6666789   1.7009488  40.6436205  35.3253555   2.2331676  40.1973915
  34.2790341   2.2914970  41.2895441  76.9853973  66.4654779  41.4628124
  77.0717907  67.2314739  42.0302773  76.0408163  66.3391829  41.3730907
  63.7466192  44.8992777  64.5674944  64.6480036  44.7838259  64.2668104
  63.3353329  45.4367971  63.8906288  56.3501358   2.0643884  11.8357790
  55.7608843   2.6975280  12.2458339  56.5165615   2.4220233  10.9636366
  26.2309480  74.1582108  12.6704311  26.2682772  75.0862074  12.4387813
  26.8899155  74.0560722  13.3571351  32.9161787  66.3117361  60.4191780
  32.3540592  67.0858288  60.4513121  33.4719706  66.4509964  59.6524096
  78.7410498   3.2297900  18.8612211  78.8722134   2.7859929  19.6991181
  78.2822609   2.5877914  18.3193886  20.5471754   3.7577543  24.0327644
  21.0232425   3.5776600  23.2221127  20.7836795   3.0356526  24.6148872
  24.8360682   7.2816086  43.2952356  24.4235587   6.6606367  43.8956213
  24.2036629   7.3831671  42.5839138  61.6848040  47.7146196  56.6744375
  62.0072460  47.0679235  57.3021698  62.4764299  48.1166935  56.3168144
  68.0615807  72.2403765  57.6204300  67.3823452  72.4285460  56.9727707
  68.8798046  72.2686386  57.1245003  22.6175117   7.9071140  30.1932645
  22.9076505   7.3275292  29.4888973  22.0604658   8.5525817  29.7581744
  56.7864084  12.8554225  22.0529819  55.8343744  12.7572763  22.0680022
  56.9959641  13.2854688  22.8820634  30.3972673  35.6634212  13.1736851
  30.0834823  34.9992442  12.5599742  29.8870707  35.5141068  13.9696980
   8.2528758  55.1614571   6.1500752   7.7011293  55.9162998   5.9450912
   8.5107303  54.8143148   5.2961218   2.7025920  68.0259323   1.9580001
   3.5417551  68.4208536   2.1948013   2.9384416  67.2297430   1.4818844
  14.7974694  66.4609385  37.8930449  14.2697537  66.1653662  37.1511674
  14.2215538  66.3619566  38.6511707  40.2875233  46.2326002  60.0471926
  39.3579268  46.1767626  60.2684641  40.5265284  45.3419876  59.7904396
  47.2447586   4.4360834  17.0285475  46.8989658   5.0336128  16.3655102
  46.9872236   4.8288542  17.8625977  37.4330425  69.9960613  45.4186535
  37.9981470  69.2303133  45.5212212  37.3098326  70.0778580  44.4729471
  13.2529807  70.7205868  36.0394621  12.4113512  70.3338766  35.7979178
  13.7890458  69.9761200  36.3126564  48.1932592   6.3825566  45.4356289
  47.9220390   5.4896992  45.2223778  47.5675583   6.9399083  44.9729300
  18.4368491  60.3847265  40.6720543  17.4797201  60.3846979  40.6837034
  18.6705196  59.5923281  40.1885986   3.4200108  71.2228870  14.0301144
   2.5641075  71.5575361  13.7623978   3.9496160  72.0071936  14.1736877
  38.0348444  73.4992313   2.3645933  37.4620724  74.1840553   2.0193633
  37.6594043  72.6834345   2.0333046  46.9787359  72.3397779  30.3393722
  46.1291313  71.9926500  30.6112361  46.8180418  73.2701492  30.1818419
  30.0011158  65.8062840  18.6232138  30.4146457  65.9786510  17.7773333
  30.7326293  65.6432343  19.2186403  59.2335224   8.3718216  17.6505637
  58.5791731   9.0565324  17.7892458  59.5412540   8.5124362  16.7551529
  18.3607527  74.3903815  16.0088575  19.0822550  75.0156532  16.0774207
  17.9602762  74.5788998  15.1601458  40.5346441   9.4661838   8.0159825
  41.1338949   9.6020824   7.2820443  40.4104567   8.5177332   8.0513358
   6.3484621  55.0647783  39.5959783   5.4457766  54.8904419  39.8624325
   6.6347748  54.2541361  39.1751313  19.4794619  67.9800606  47.9251909
  18.7832057  68.4690142  47.4865770  20.1466894  68.6376286  48.1217623
  61.3647604  57.6293278  60.1686049  61.9906473  58.3474255  60.2625847
  60.6375790  58.0084705  59.6749592  22.3799539  71.7695332   7.7316368
  23.2127261  72.1795893   7.9652518  21.7680764  72.0703316   8.4034681
   5.4547995  33.1864715  52.7450895   5.3307575  32.2386599  52.6950884
   4.7638518  33.5480642  52.1900463  40.3971910  10.0929248  15.1226556
  40.2194500  10.9921682  15.3983390  39.8034739   9.9463767  14.3862784
  69.4802666  60.9808731  56.9073725  69.8556852  61.5804195  57.5522280
  70.1345491  60.9389019  56.2099600  23.8891554   3.1110683  16.3876152
  23.4077168   2.7084470  15.6648803  24.8085523   2.9274595  16.1946738
  70.6937551  54.2557240  62.9274464  70.8740425  53.3554411  63.1980371
  70.9826708  54.2942047  62.0157051  13.4057498  20.2266288  38.5322261
  13.2199609  20.4626465  37.6233745  14.0540063  20.8698654  38.8190007
  11.9534814   8.9092094  29.2602968  12.4497044   8.7631404  30.0656915
  11.0369170   8.8459074  29.5288777  32.0047712  12.6499355  18.3452642
  32.8325844  13.1260407  18.2798541  31.3752961  13.3044600  18.6479056
  49.9474382  11.9005179  13.5284519  49.4067955  12.0673358  14.3005323
  50.8443069  11.8863261  13.8626027  37.7269840  18.9336801  25.3895688
  38.6530924  18.9513195  25.1482224  37.5133967  18.0026960  25.4518557
  18.7338984   7.5589871  23.9527822  17.8510308   7.2100627  24.0753698
  19.1482460   6.9521248  23.3393741  19.8944402  68.6299181   4.0980402
  19.0469480  69.0302372   4.2922923  19.8339057  68.3759308   3.1771398
  46.4572001  12.8595746   2.5277719  45.8966351  12.0931578   2.4069287
  47.1428919  12.5628436   3.1261140  31.6260338   6.3045049  39.1918921
  31.8312001   5.9697556  40.0648642  31.4984274   5.5200374  38.6584496
   5.3913337   5.7032901  13.0534530   4.6024421   5.2144635  13.2878256
   5.8917093   5.7552087  13.8677990  61.0129261  51.4314127  10.9295857
  60.9432697  52.2856998  11.3556981  60.1287317  51.0677290  10.9761500
  32.3492765  47.3911905  49.7390842  32.7914786  47.0797300  48.9493513
  31.5022159  47.7112961  49.4288349  77.2109795  61.7799950  27.9843497
  77.8436375  62.4605417  28.2142019  76.3669252  62.1325350  28.2663488
  62.9919004  68.1743813  23.5632110  63.3310556  68.0155039  24.4440961
  63.7707472  68.3469629  23.0342054  11.8191743  55.4429102   3.8324496
  11.4772570  55.4774332   4.7258323  11.3615656  54.7052002   3.4291983
  49.2342281  19.4679105  27.9343772  48.4163141  19.8295903  28.2756162
  49.4876337  20.0684524  27.2334027  10.8921170  16.2986600  35.3596449
  11.0499442  17.0368791  35.9481645  10.2180481  15.7810903  35.8000827
   2.9571408  61.1825418  54.2513132   3.6076191  61.3785839  54.9256134
   3.4307113  60.6555700  53.6076832  62.1829605  35.7792211  52.2591496
  61.4254236  35.4720020  52.7571297  62.9113197  35.7334590  52.8785324
  33.1988192  66.2015772  27.3389339  32.3006558  65.8896875  27.2282171
  33.6086035  66.0594845  26.4856339  63.5206127  21.9827461  48.3018637
  63.0574036  22.3883891  47.5689745  63.0422735  21.1703157  48.4673357
  75.4629660   5.6133533  49.6358585  75.0194073   4.8051378  49.8932886
  75.8635330   5.9344989  50.4437208  38.8825679  19.9824762   1.6247603
  38.4974647  20.2675033   0.7960939  38.2682395  19.3308902   1.9627970
  38.3829498  69.9393034  12.4951291  37.4416327  69.9675989  12.6664615
  38.4750295  69.3287039  11.7637455  37.4925113  68.7390900  61.4657259
  37.9455543  69.4379091  60.9938860  37.8533649  68.7751961  62.3515701
  29.4048381  65.7305479  60.3572941  29.5844889  66.6071081  60.0173044
  29.3517351  65.1775455  59.5778084   0.7575510  54.7888994  31.9922519
   1.4924201  54.8198462  31.3796830   0.7820714  55.6352615  32.4386859
  28.1352305  12.4793506  12.3386788  28.6244965  13.1687212  11.8896592
  27.2210383  12.6461303  12.1091783  77.8712988  35.1350713  61.4097548
  78.4515762  34.5216799  60.9589052  77.0764875  34.6302795  61.5820599
  52.8388739  53.8440561  60.4842186  52.9466105  53.2827187  59.7164106
  52.1290445  53.4369516  60.9808397  50.0331402  28.0726480  20.2961588
  50.3898716  27.8116775  19.4471204  49.4166374  28.7755752  20.0910926
  38.3847904  21.8475914  20.7288790  37.6297426  21.6284156  20.1828957
  38.1972384  21.4370251  21.5729690  55.8099127   8.0543888  31.6512513
  56.6209984   8.4528941  31.9667864  55.1757765   8.2167876  32.3496294
  13.6488867  54.0002489  16.2515092  14.0981197  53.3115387  15.7615077
  12.7567887  53.9980936  15.9045374  49.5950031  61.3176012  26.8727207
  48.7021732  61.3776159  26.5328884  49.8510408  62.2255325  27.0350122
  23.4144592  64.0069389   8.8592571  24.0373063  64.6755886   8.5742998
  22.5565982  64.3677711   8.6354113   8.1220806  10.0602913  18.2829106
   7.6652050   9.4869316  18.8983417   8.7941688   9.5031726  17.8902924
  66.8516493  14.6780264  50.9558678  65.9009790  14.6106958  51.0448980
  66.9849586  15.0451922  50.0819969  31.0072517  65.3789854  16.0021102
  31.3326550  64.7829676  15.3274941  30.3777957  65.9369946  15.5453348
  78.7482262  23.0563164  19.4434643  79.5882702  23.1370282  19.8951828
  78.8625526  22.3085594  18.8569319  13.4336805  66.6120291  31.9848371
  13.2023120  66.9194841  31.1083841  14.3806422  66.7397594  32.0412397
  61.6999865   1.0800756  42.2088242  62.2109175   1.6028915  42.8267622
  60.9100533   1.5977171  42.0529985  18.0341017  44.2749071  49.4736719
  18.3880365  43.7967253  48.7238026  17.9124761  43.6066628  50.1481295
  74.4780493  73.1849861  10.7832694  73.7269402  72.5919008  10.8010244
  74.7411776  73.2657576  11.7000425  23.9165902  11.2178743  36.5396380
  24.6916461  10.7764697  36.8870306  23.6063695  11.7621338  37.2633600
  48.8657284  15.1851737  34.6178532  49.0836573  16.1168087  34.5896578
  48.7420797  14.9402595  33.7008142  50.3980207  17.3531878  31.2129617
  51.1888170  17.7794039  31.5434313  50.2838898  17.7100134  30.3321218
  20.9189367  65.7270432  12.9924035  20.5753803  66.1939526  13.7541091
  20.5406928  66.1836243  12.2409415  66.9025421  59.6718836  33.8153553
  66.8351841  59.2990208  32.9363418  67.2976112  58.9762688  34.3409705
  52.8526020  10.5978191  32.8470278  52.1724272  11.2615895  32.7329874
  52.5093412  10.0174069  33.5263872   2.5189123  57.1293783  54.8217154
   2.8463826  57.4560881  53.9837074   3.1245783  57.4865294  55.4712105
  57.4681234  37.8568888   2.4265778  57.4095917  37.4898934   3.3086893
  58.3983564  37.8053236   2.2069496  79.5405859  55.8546925  25.0002122
  78.6361775  56.1677837  25.0160432  79.5685383  55.1694298  25.6679416
  47.7930021  11.1283743  30.6306624  46.8942833  10.9014809  30.8695292
  47.7018166  11.8694568  30.0317359  66.4871788  19.7029960  35.8132386
  66.2465382  19.7998214  34.8918557  66.0647869  18.8887644  36.0868144
  36.7433596  15.2522004  32.5733542  36.6064048  15.4602826  33.4975719
  37.4522161  14.6089637  32.5751591  44.0752029  58.9709568  42.6469231
  43.4435606  58.2985687  42.3916721  44.8985481  58.4958458  42.7591896
  10.1654196  58.2365513  63.2703352  10.6349719  57.6447630  63.8581610
   9.3281162  57.8010416  63.1107044  75.0943899  59.9071360   7.8166842
  75.8005381  59.2839336   7.6457822  75.0286341  59.9387789   8.7710989
  77.2550488  21.4267802  60.0179625  76.6965389  21.8470907  60.6719017
  76.7520475  21.4775324  59.2051601  58.5583115  17.6429915  52.9217815
  59.1637564  17.5059664  52.1931601  58.1895065  18.5125244  52.7664471
  46.1844921  37.3471785   5.0804758  47.1128893  37.5725889   5.1396441
  46.0417223  37.1617460   4.1523248  73.7513733   1.0133394   4.5620006
  73.7939405   1.9425702   4.7877210  74.6634722   0.7230769   4.5692381
  26.1185598  10.6012380  13.3309543  26.4752102   9.7286785  13.1646085
  25.6519723  10.8266973  12.5261581  52.6394320   2.8095183  39.6473074
  51.8400097   3.2164550  39.9813104  52.8716469   3.3322603  38.8798118
  46.3294077   9.0472621  45.1000214  45.3904438   8.9240128  45.2392673
  46.4116335   9.9567115  44.8130178  75.9281254  38.6521387  28.4797478
  75.5665874  38.9246702  27.6363921  75.4969358  37.8183246  28.6669898
  58.5180521  16.3341641  21.0418892  57.6473284  16.2107384  21.4198327
  59.1004324  15.8340454  21.6136813  30.9934545  57.8617716   1.7260526
  31.2121177  56.9300413   1.7088440  30.9037066  58.0695915   2.6561001
   7.4435943  64.2150879   2.5285494   8.0646354  64.3646812   3.2414046
   7.1785754  65.0928259   2.2536336  46.9775391   9.0143466  16.8688631
  47.8917313   8.9541459  16.5916216  46.4741135   8.8400519  16.0736167
  57.7072859  18.1494653  19.1634107  57.8467321  17.4857759  19.8389125
  57.0376158  17.7730155  18.5923910  66.8777561  12.5196934  24.1778088
  66.5160608  12.9394341  24.9583411  66.2449312  11.8357909  23.9586186
  66.6554594  45.7816172  64.4879627  67.3230648  46.4197636  64.7395754
  67.0094490  45.3609753  63.7043905  48.4897518  70.5720329  15.6173754
  49.0244675  71.0573101  16.2457240  48.4596062  71.1347103  14.8436093
  39.8746824   1.1728871  19.8581779  39.9867606   1.9847627  20.3526759
  38.9838290   0.8887989  20.0628924  56.9489574  19.5481098  10.0216722
  56.5168715  18.7205362   9.8103529  57.8057814  19.4855630   9.5995694
   5.6781816  73.6696720  31.4984298   4.7701532  73.9614058  31.4171481
   5.6970394  72.8198814  31.0582805  66.1276197   8.7537009   4.9523085
  65.8547115   9.0140826   5.8320564  66.3916588   9.5718700   4.5314613
  54.0750980   9.6790659  26.1756754  54.2601824   9.7095424  27.1143174
  53.1463289   9.4538307  26.1218786  58.7627745   3.8184130  62.6548147
  58.1665468   4.5198148  62.9170704  59.5908260   4.2631400  62.4737549
  51.7068148  49.2487288   9.5120990  52.1408558  48.8632154  10.2731657
  52.4215937  49.6001530   8.9812315  73.7331581  10.0328970  57.6828718
  73.5910177  10.9099579  57.3267937  74.6782064   9.8969787  57.6146841
  24.1441536   8.1227458   2.3399474  24.3014336   7.7541816   1.4706627
  23.4422588   8.7597644   2.2066027  58.0288792  22.1840549  31.3385701
  57.3615217  21.7345142  31.8570137  58.1406260  23.0294943  31.7732811
   0.7576342  16.2513030   2.9237121   0.7724925  15.3358793   3.2030120
   1.3979025  16.6843867   3.4882686  46.2252998   2.6772293  36.4986444
  47.0195150   2.3308325  36.9054127  45.6046295   2.7654290  37.2219872
  26.0766149  71.7512512  63.8440752  25.3152633  71.2521458  63.5483265
  26.4234638  72.1533966  63.0477047  14.0706086   5.7298362  14.4524574
  14.2434049   6.6616380  14.3178523  14.8642468   5.3971738  14.8716295
  59.7860718  15.3871000  17.7591646  60.6289816  14.9343610  17.7315199
  60.0140905  16.3127458  17.8453064  72.2909784  60.3879452  24.9416804
  71.8434763  59.5479059  24.8401785  72.7832031  60.3000212  25.7579017
  65.5282116   5.3806680  12.4583423  65.9571218   5.9490740  13.0980170
  66.1071634   4.6218395  12.3860335   9.3743324  47.0081282  34.0239334
   9.0266615  46.6163254  33.2227802   9.3906546  47.9479980  33.8433695
  28.0017376  48.9664507  39.3790126  28.5748434  48.3210421  39.7928095
  27.1210074  48.6062670  39.4829893  68.9846992   3.1677660  18.8555133
  68.6002970   3.5962602  19.6202755  68.2378864   2.9737279  18.2890749
  66.9210720  49.5157003  59.0226698  66.3886213  49.1800737  59.7438335
  67.2343874  50.3657389  59.3316984  11.1618388  57.5927401  37.3085713
  10.2445424  57.8220940  37.1595883  11.6529596  58.3493805  36.9883657
  45.2253485   9.6647555  28.3753324  45.5139351   8.8897604  28.8573408
  44.9771261  10.2910566  29.0553069  42.9123020  74.3141127  51.9065094
  42.5843954  73.4683084  51.6010284  42.9074192  74.8688078  51.1264324
  43.3277225  18.2455075   3.8034239  42.7188683  18.3352196   3.0702940
  43.3951902  17.3011744   3.9445511  65.6523705  24.9047017   3.9889815
  65.9682560  25.6141019   4.5486200  64.7008705  25.0089025   3.9843148
   0.5807997  64.8305750  57.2474241   1.2105680  65.3607416  57.7358389
   0.7646830  65.0261450  56.3286352  27.4520350  24.3071008   2.2020736
  28.3005452  23.9721203   1.9121596  26.9035864  23.5273910   2.2885941
  52.6677561  17.2801590  54.3138266  52.3760605  16.3702512  54.3705130
  52.1464252  17.7402318  54.9716854  25.8698511  37.2126460  15.4856658
  25.1426601  37.5175953  14.9430525  26.3488722  36.6034484  14.9238420
   8.5512692  12.0388496  32.5596189   9.0929610  11.8072033  31.8052053
   8.7521493  12.9600239  32.7248979  16.1168444  41.1069250  29.4461942
  15.4291797  40.6922436  29.9671435  15.6607962  41.4514685  28.6783791
  55.9598589  37.7002788  11.9605744  56.2236595  38.4912205  11.4904165
  56.7754745  37.3530960  12.3217750   8.9386499  52.8791475  25.3857517
   9.4657761  52.8376007  24.5878506   8.9258671  53.8080883  25.6162643
  55.5047417  23.9186096  14.8018253  56.1540079  23.3323145  15.1903379
  54.6660423  23.4847307  14.9585629  22.9096198   6.5472585  14.7261727
  23.2446265   7.3538953  14.3345845  23.0411100   6.6651356  15.6669426
  44.6158886  13.6719680  29.7597313  45.5208731  13.6432970  29.4492197
  44.4575548  14.5963490  29.9512529  11.6741443  44.0230465   9.8360437
  12.4524987  43.5111284   9.6161902  11.9436169  44.9333048   9.7133619
  42.2919178  56.4243412  54.5934391  41.3872433  56.3542843  54.8982143
  42.3661804  57.3213863  54.2678308  31.7312670  67.5464058  33.5303783
  32.0110869  68.0019236  32.7363777  31.1153817  68.1487465  33.9476323
  23.3078957  67.6457787  49.1522694  23.7227011  67.6734400  50.0144768
  22.4692726  68.0904627  49.2755604  50.3775167   4.9673769  20.4461050
  49.6076059   4.5380858  20.0730371  50.0435019   5.7904059  20.8028817
  72.6308012  10.5060089  45.5819082  73.0118322  11.2913752  45.9746504
  72.4988747  10.7378137  44.6626186  44.9311686  11.0834789  31.1808300
  44.2009544  11.0827887  31.7997169  44.7668839  11.8396437  30.6173968
  61.0187483  61.7982578  63.2344437  61.9743919  61.8502522  63.2180929
  60.8251715  61.1638975  63.9246225  49.0593719  72.1612883  22.0558810
  49.9846792  72.1742439  21.8112063  48.6993122  72.9615688  21.6735935
  43.8067007  72.5796843  28.0144000  43.6264896  72.8433704  27.1120548
  44.3772078  73.2683182  28.3557653  44.5979595  47.9780054   2.5240338
  43.8158894  48.5240412   2.6043284  45.1325893  48.4207869   1.8649864
  30.5179548   6.3460064  26.7698860  30.6594634   7.0319456  27.4223375
  31.1014247   6.5784711  26.0475588  51.2626934  68.2683325  26.2725592
  50.3143501  68.1393290  26.2878656  51.6140747  67.4275970  25.9794307
  41.7572069  16.2830758  17.3373914  42.3028564  16.5589452  18.0738676
  42.3519421  15.7942188  16.7685831   8.6888731  33.6665702  33.3854246
   8.1950516  34.4758630  33.5174036   8.9510053  33.3995581  34.2664599
  32.4992752   9.8650056  44.9702597  33.3040810   9.8423129  45.4879475
  32.7983189   9.9707937  44.0671444  31.6210151  70.0824738  41.2626505
  32.0570683  69.8329496  42.0774031  31.8879437  69.4125366  40.6332302
  66.7867470   7.0809591  34.8423433  66.5063810   6.7883587  33.9751577
  67.7256536   7.2420281  34.7488189  28.9264560  62.9107904  61.0612059
  28.1618690  63.3372688  60.6742287  29.3629289  63.6044455  61.5557384
  44.7506142  11.5623236  14.7859192  44.7649002  11.6759336  15.7362461
  44.7848082  12.4532628  14.4376504  67.1525431  46.0417509  26.9500327
  67.2359943  45.0928164  26.8562818  66.2294292  46.2199402  26.7701745
  39.5230770  56.9883823  31.8799686  39.1082454  56.4806318  31.1825919
  39.4322920  56.4419222  32.6605916  60.8966637  23.6971879  37.5206780
  61.3945580  23.4398532  36.7447162  60.3505611  24.4252920  37.2242594
  31.8410397   7.9198945  12.0000637  31.5442491   7.1444231  11.5238357
  32.7405024   7.7146405  12.2551489  64.4569159  27.4698496  30.8354831
  64.9553490  28.2865834  30.8627343  63.9314508  27.4831319  31.6354465
  64.1418552  27.8492665  24.8772979  64.3537426  27.4673295  25.7290363
  64.3494558  27.1593451  24.2471075  33.4958649  63.6425734  14.7013021
  32.8238535  62.9609680  14.6940947  34.1115165  63.3647633  15.3795564
  45.3929615  63.2388783   9.1208774  46.2720871  63.3194685   9.4908518
  44.9941635  64.0975618   9.2617810  78.1578255  28.9978743  31.9468498
  77.2689295  29.1297054  32.2765636  78.5894394  29.8421812  32.0775557
  42.3561859   7.4477226  51.6855288  41.5421295   7.9512286  51.6804075
  42.6583719   7.4901909  52.5927830  60.5781317  23.1129789  34.5206285
  59.9597025  23.5333419  33.9230752  60.2829742  22.2037721  34.5701623
  22.6451039   4.7195479  41.0272884  22.6103735   5.6747365  41.0786676
  22.0043111   4.4924775  40.3534555  63.2116461  20.9091759  11.6771019
  62.9103088  21.1816740  12.5438035  63.6845827  20.0918937  11.8339729
  12.7654374  21.6582108  25.1798058  12.6880002  22.2698593  25.9120083
  13.3480763  22.0981836  24.5607829  60.2842808  64.5322895   8.7685162
  60.4812288  65.3983974   8.4117216  61.0941029  64.2616606   9.2011571
  39.6440840  66.0055923   2.8072259  40.5707073  66.1050510   2.5888011
  39.2030358  65.9481812   1.9596343  43.6316729  45.4718161  45.5171251
  43.5757923  45.4238605  46.4714861  42.8219843  45.9077358  45.2513981
  54.8609495  33.4185600  11.9090450  55.3966331  33.9073348  12.5338435
  55.4678583  33.1801057  11.2083054  52.1996832  16.6709435   1.3482703
  52.2864294  16.5890229   2.2980052  53.0756092  16.9132030   1.0477702
  75.8298492  47.5882769  19.8067808  76.5368366  47.3600674  19.2031896
  76.0288906  47.0986891  20.6048512  39.3054843  19.9288237  58.7106943
  39.9989367  20.5884862  58.7248993  39.3197727  19.5855045  57.8172922
  56.4049244  23.5197592  22.3210096  57.1985817  23.2745576  22.7966356
  56.7238569  23.9714098  21.5396476  16.3076806  72.3585939  20.9691405
  17.0817876  72.4229193  21.5284729  15.7262313  71.7562962  21.4332390
  65.9522343  27.7116323  27.9502606  66.6094732  27.9851580  27.3103738
  66.1231947  26.7796183  28.0857396  51.9657564   4.2032349  29.3741345
  51.3213921   3.9369041  28.7183189  52.7663279   3.7416768  29.1245675
  77.0339632  52.0429611  62.4850464  76.7457962  52.5775290  63.2249308
  77.4503469  52.6647091  61.8881464  54.9689913  23.0213928  10.2124536
  55.1767588  23.0811167   9.2799854  55.5971909  23.6065435  10.6357682
  26.0828090  47.3364496  25.8000565  25.4912400  46.7209768  25.3670764
  26.4975548  47.8151751  25.0823951  36.4075756  62.6375675  45.4216003
  35.9189868  63.3727884  45.0515175  37.2206116  62.6120806  44.9170637
  23.0335498   2.7556279   7.8223377  23.6023092   2.0090991   7.6340860
  22.3449898   2.3969501   8.3822185  42.5778627   3.0007118  52.9684591
  42.2928715   2.6756769  52.1144342  41.9438124   3.6831146  53.1887722
  70.9390402  16.7159450  50.4681015  70.1492548  16.8214548  50.9985209
  71.1042738  15.7731152  50.4694462  76.6140127  15.6110764  27.4793553
  76.6025448  14.8161912  26.9461966  75.7244825  15.9579659  27.4113202
  37.6600003   9.1903985   7.4536955  37.5176001  10.0831783   7.7681774
  38.6097145   9.0746528   7.4833167  59.1140175  29.1261983  23.1094146
  58.2008600  29.0444756  23.3845425  59.3982124  29.9665356  23.4689951
  39.3554640  16.0017705  24.5381117  39.0726042  16.5509117  23.8069034
  39.7425342  15.2309752  24.1230416  73.9241600  47.1416712  57.0058393
  73.2502031  46.4625788  56.9767809  73.4350061  47.9644156  57.0130539
  56.2954521  21.2457418  18.7403488  55.5304575  21.5032268  19.2548525
  56.4155769  20.3169465  18.9381850  40.8743238  72.1942139   0.2815797
  40.4829693  72.7491236  -0.3930693  41.0646439  72.7931166   1.0036075
   4.1172606  66.1868334   7.8564793   3.6480784  66.9918680   7.6373351
   5.0317216  66.3783550   7.6483649  30.8110452  60.0366545  56.7547750
  30.4145217  60.2696180  57.5942564  30.2140141  59.3895245  56.3792562
  59.7016191  33.4749770  31.0723710  59.0402555  33.5441542  30.3838634
  59.7602224  32.5371552  31.2548304  67.2449446  25.6291294  42.0534468
  66.6633081  25.6085563  41.2935114  67.9592037  26.2105799  41.7927122
  13.7405121  65.1547766  15.5265558  14.1744173  65.9570932  15.8168042
  14.2885470  64.8313141  14.8115301  22.2391319  55.0694036  58.9808846
  22.0358133  54.1611576  59.2044497  21.4408946  55.5528975  59.1936874
  75.1449490  27.9320526  41.2847090  74.6181917  27.4181223  40.6726360
  75.9913158  28.0301547  40.8485126  56.6311789  27.6257777   6.4791965
  57.4940586  27.6428032   6.8931741  56.7915630  27.2684574   5.6057948
  55.1705551  25.1075196  46.0272789  55.9967947  25.5822921  45.9370089
  55.1778555  24.4752884  45.3086281  38.1543803  32.4822569  10.4661441
  38.2802176  32.4670172   9.5173740  38.0081439  31.5664530  10.7031000
  60.9536076  26.7141652  42.7003813  61.8439436  26.7724514  42.3537779
  60.7906151  27.5741673  43.0877590  45.7029629   1.2227944  58.8517475
  45.7562876   0.4871785  58.2416201  44.8794031   1.0863060  59.3200922
  62.7347040   6.5988523  17.1627569  62.2647762   6.9866073  16.4244866
  62.4159288   7.0777965  17.9277575  52.7624702  27.1137381  17.6992619
  51.9143200  27.4216795  17.3798132  53.3515644  27.8569031  17.5692558
  60.8364582  47.3618793  20.6930780  61.0178471  46.6124392  21.2602329
  60.8004284  46.9916344  19.8111212  70.1008844  70.7992315  36.3569760
  70.9202623  71.0833502  35.9518504  70.3054142  69.9450684  36.7375064
  50.6008959  34.2450309  39.5060611  50.3192472  34.1534686  38.5958290
  50.4454279  35.1664948  39.7133422   8.1905079  69.6936321   1.6069146
   7.4664044  69.9564505   2.1750982   8.8731468  69.3988991   2.2097152
  47.2401667  13.1921709  29.1394234  47.7827168  13.8429117  28.6939955
  47.0441818  12.5416982  28.4651041  55.1233339  21.9142628  24.5220327
  55.4802895  22.5264406  23.8785625  55.0111103  21.0962319  24.0378189
  51.4974022  29.1463566  41.4181376  52.1674490  28.5750580  41.0427952
  50.8925486  29.3131876  40.6952572  32.2269368  28.0120540   8.5150450
  31.7310047  27.2335696   8.7685144  31.8305326  28.7230396   9.0186274
  50.2772474   6.9424921  33.0941772  49.5685291   7.2987676  32.5584364
  50.5451202   6.1450732  32.6374531   3.4351131  33.7436604  45.1397705
   4.0014851  33.7502885  44.3681431   3.9915535  33.4076738  45.8424234
  19.9441040  52.8687859  47.3922873  19.9502313  53.4703732  46.6477823
  19.0158510  52.7184343  47.5710964  59.6622467  29.2391682  48.2783365
  59.6111917  30.0426769  47.7606487  60.4248238  29.3659687  48.8428020
   7.1738678   8.1040460  19.9089289   6.3056546   7.7144921  20.0123024
   7.7550757   7.3579955  19.7611558  29.8063183  17.8169787  50.1962566
  30.3802514  17.8552258  49.4311619  29.4333768  16.9357514  50.1720953
  73.7808514  66.9739628  38.0259395  73.6742163  67.0578575  38.9734745
  73.1818533  66.2693787  37.7789617  57.3112106  10.6242776   9.8390085
  57.8141642  11.3109815   9.4011670  57.1256495   9.9867386   9.1495585
  30.7682395  -0.1483824  20.7347250  30.7784820   0.6518032  20.2095318
  31.0455585   0.1336604  21.6063786  49.0015841  24.1791177  26.9730043
  49.9551630  24.2619920  26.9804645  48.8310289  23.3371735  27.3952270
  56.8780947   2.4417073  24.8134875  56.0148573   2.8030330  24.6122599
  57.3994255   3.1997952  25.0775886  49.8490334  72.5726080   2.8762636
  49.0536976  73.0686092   2.6822072  50.4197931  72.7314615   2.1244480
   9.8128217  56.6517878  41.7789507  10.3885710  56.9917583  41.0939980
   8.9416713  56.9665956  41.5376568  69.7097826  12.6040685  23.6770630
  70.2483606  11.9800210  24.1636157  68.8118839  12.3002195  23.8100553
  29.2565131  34.4061542  15.2247548  29.8872304  33.7074876  15.0507092
  28.5642862  33.9828849  15.7325912  48.1921244  25.9507108  25.2708960
  48.3495665  25.2668691  25.9218979  48.8127279  26.6436553  25.4965401
  66.0929394  49.5548630  46.7863131  65.7312393  49.4864655  47.6699018
  66.5578365  50.3915739  46.7819214  42.5247478   2.6112276  30.0145268
  42.9666328   3.1258231  30.6899214  43.0483484   2.7515215  29.2256117
   6.3745570  70.4645681  64.3179750   5.6978339  69.8302412  64.5544291
   6.0438925  71.3009214  64.6456957  72.4515820  33.5864115   1.1722270
  72.6540279  34.3920588   1.6478102  71.6712379  33.2416701   1.6063392
  50.0863314  47.7190018  57.2086668  50.3185368  47.5514889  56.2952948
  50.3371286  48.6309052  57.3561907  72.7876949  38.3665276   0.8890998
  71.9939613  37.8327918   0.8524467  72.8950977  38.5725832   1.8176678
  29.0237522  51.4195395  42.2502136  28.1351995  51.7718029  42.3013783
  29.3518853  51.7195177  41.4025259  10.6729662  31.0054922  30.8753777
  10.1661098  31.4622331  31.5467310  10.0136387  30.6180406  30.2997041
  48.7707043   9.6650916  28.3746815  48.3222771  10.1521575  29.0659904
  49.7009182   9.8255700  28.5333800  20.7520223  23.1991625  23.2974744
  19.8080325  23.1709695  23.1415200  21.1407280  23.1454182  22.4244046
  53.5335827  33.3978581  27.5560331  53.7307835  32.4739170  27.7099037
  54.0941334  33.8683772  28.1729841  47.9027271  29.5119476  52.5876379
  48.0621052  29.5594692  53.5302782  48.3627319  28.7209940  52.3065233
  45.6800842  66.7360973  15.6189847  44.9318504  67.1431828  15.1823485
  45.3379393  66.4538622  16.4672256   5.2612668  63.9031982  10.7179976
   4.7555253  63.4951973  10.0151515   5.2028394  63.2840490  11.4456451
  10.1658142   8.8850617  12.9615128  10.8221138   8.2767493  13.3013046
  10.0755930   9.5473361  13.6467028  27.5016117  23.4729528   7.5470090
  26.9550729  22.6981592   7.6782286  28.3199573  23.1306744   7.1873045
  35.7106113  12.7085710  30.5722427  34.9081659  13.2281375  30.6208825
  35.8088279  12.5061059  29.6418691   5.0624490  31.3232994  27.2020197
   5.8253360  31.8826866  27.3480320   4.7009566  31.1782265  28.0763817
  43.6087227  18.1470466  13.0255842  43.6572170  19.1028214  13.0062389
  43.9722443  17.9059792  13.8776231  35.4988146  20.1398492  19.1515398
  34.9336457  20.3454137  19.8962259  35.8312130  19.2618632  19.3383074
  74.0330887  35.3625464   6.6247785  74.7304201  34.7863913   6.9378495
  73.7223291  34.9472117   5.8203185   7.9999989  58.9694214  50.1542377
   8.9356780  58.7774849  50.0918150   7.8231221  59.5438862  49.4092989
  57.7878284  25.5908918  35.6957245  57.7987480  24.6502614  35.5187345
  56.9057989  25.7623005  36.0256791   2.4893975   4.0494403  15.9757411
   1.9261767   4.4660661  16.6279960   2.8571969   3.2896996  16.4271271
  53.5950136  52.4966526  58.1748438  54.2015696  53.0347729  57.6661730
  54.0126610  51.6362333  58.2133341  73.3329964  36.7713308  43.2932711
  73.5340977  37.7026343  43.2012653  74.0201616  36.3276577  42.7960873
  12.8772426  37.6236749  53.0747175  12.1442032  37.7977967  52.4843216
  13.5798633  38.1913924  52.7580881  64.0216112   4.5137110  25.9510636
  64.9667406   4.4134706  26.0647178  63.7122869   4.8417041  26.7954397
  32.8268576  11.0029864  23.4899259  32.1726704  11.0264897  22.7915573
  33.6016917  10.6190789  23.0794692  71.8586445  34.1699696  37.6018000
  71.1543655  34.2708182  36.9614458  72.2731733  33.3381009  37.3729062
  63.7795782  22.2062349  41.8538189  64.6787119  22.4932289  42.0132542
  63.5524559  22.5895882  41.0066557  60.6212330  65.7521772   2.8563291
  60.7690668  65.1028776   2.1687320  59.7408152  66.0863876   2.6848683
  29.5504570  72.8165579  38.3148956  28.7956262  72.9583931  37.7436280
  29.1711664  72.6752758  39.1823101  73.8762951  12.9341197   2.1810658
  74.5278597  13.5231364   1.8005958  74.2103338  12.0562589   1.9966391
  34.3740273  41.3489628   1.1653476  33.6530685  41.2340450   1.7844167
  35.0693226  41.7579222   1.6806614   4.8626870   6.6304743  10.1798236
   5.4593652   6.6024554  10.9277689   4.0145871   6.3714290  10.5401766
  63.3040285  12.2637653  27.6460409  63.4372330  13.2116115  27.6547885
  62.9757977  12.0761311  26.7666721  11.5368962  57.6813412  40.0883818
  11.2454116  57.8304148  39.1889119  12.2032142  56.9981575  40.0141096
  72.6062727  13.5839915  28.4075332  72.2236919  13.7481916  29.2694521
  73.2748318  12.9173768  28.5652924  55.8959150  33.7853813  52.5324106
  56.8102074  34.0686727  52.5254774  55.9216261  32.9021215  52.9004097
  65.4997969  24.9942780  51.7034674  64.8456383  25.5072904  51.2289953
  65.6813240  24.2491364  51.1307192  69.7857332  24.0560174  23.6276960
  69.2098045  23.9060736  24.3773985  70.6380320  24.2533708  24.0161109
  62.1005630   3.5010418  40.3072882  61.8087769   3.4674859  39.3962646
  62.3979759   2.6111037  40.4964638  71.7802572  13.7633216  19.5913899
  70.8960819  13.9296520  19.9181879  71.6579962  13.1372499  18.8777232
  51.3579607  20.9285593  18.2487094  50.6378984  20.7126331  18.8412583
  51.7144537  21.7473149  18.5933650   5.9584105  44.5584011  54.2517376
   6.1867726  45.3690147  54.7066927   6.2846678  43.8630629  54.8229599
  41.1785793  12.7314985  58.9436913  41.0586929  13.5136271  58.4050465
  40.4580116  12.7613723  59.5730686  57.4225521  23.6956835   3.9489013
  57.3144674  23.7740898   4.8967415  58.2667637  23.2579947   3.8394997
  32.8284097  67.8551912  24.2505407  32.6462555  68.1702137  23.3652091
  32.0144749  68.0068159  24.7309113  13.8559222  63.2528210   9.4603592
  13.2987857  63.3426237   8.6872053  14.2423952  64.1204405   9.5791638
  15.0469315  62.1611977  15.6159329  14.1107941  62.1986961  15.8120799
  15.1509988  62.7102757  14.8388147  54.4214487  22.0145750  20.7871222
  55.2350569  22.3441887  21.1687350  54.0537071  21.4447212  21.4625955
  69.6215820   2.6586244  31.1348319  70.4557085   2.7272260  31.5993333
  69.8672724   2.5502646  30.2160692  26.7496252  26.1848927  57.5381088
  27.1259594  26.1205435  56.6603470  26.6237569  27.1236348  57.6765108
   9.6283549  70.2256966   9.5737618   9.6198475  69.2911339   9.7805107
   9.0982664  70.3002882   8.7802422  10.5043459  73.1493092  28.8426256
  10.5674648  73.1656456  29.7976041  11.3544595  72.8190231  28.5520196
  30.0641489  54.3132734   9.9862230  30.2780294  53.9683771   9.1193134
  29.4811678  53.6570311  10.3679371  19.9547279  69.3057060  55.2860832
  20.4679656  68.7752628  55.8955479  19.1455245  69.4988775  55.7594776
  50.5972528  55.5230236   1.1329145  50.8395243  55.4735422   0.2082052
  50.4229164  56.4517641   1.2854712  25.0434613  62.1901417   2.5105253
  25.0388479  63.0307913   2.0527986  24.1268373  62.0373821   2.7400777
  60.9119463  37.5068188   5.1359850  61.8643999  37.4757338   5.2259600
  60.6395674  38.2172847   5.7167417  61.0370159   3.7406260   2.0457931
  60.5257654   4.4933027   1.7485897  60.3824902   3.0750230   2.2574508
  57.2128057   9.8069096  54.4423103  57.9223967   9.5736390  53.8437271
  56.9104481   8.9692879  54.7933102  54.7127247  12.9176545  27.7046657
  53.9678288  12.8636110  28.3033633  54.3682241  12.6120532  26.8655229
  44.6769571   4.2874536  63.6068010  45.5450869   3.9123785  63.4588099
  44.3997288   3.9250237  64.4482422   0.0911657   3.7619969  21.9841433
   0.7761225   3.3424708  22.5047803   0.1994845   4.6975476  22.1551514
  57.0508337  27.9337382  18.2356346  57.1382856  27.0352292  17.9174113
  57.6419115  27.9802799  18.9870965  -0.0141840   8.3218092  17.4564099
   0.9299549   8.2539862  17.3141634  -0.1916921   9.2622888  17.4415231
  14.1174459  29.1297746  14.5742559  14.1799808  29.6927357  15.3458750
  14.1670299  29.7332001  13.8328719   2.1304637  28.4506226   7.3692209
   1.6101058  28.8878369   8.0432403   2.1063639  29.0488815   6.6224039
  51.4941645  37.4603677   6.1956471  52.3168087  37.9217315   6.0324621
  51.6551495  36.9591618   6.9950891  66.5725803  31.1773252  61.9537687
  66.3593292  32.1101379  61.9288874  66.7593908  30.9988427  62.8754377
  20.5252194  49.1503859  14.5291436  20.4655123  50.0997734  14.6355617
  20.1194286  48.7947607  15.3197730  78.8700390  64.6076488  20.9746504
  78.3056974  65.2362061  21.4248300  78.2661772  64.0601635  20.4728055
  72.6261044  25.4859352  37.2592807  72.0626593  25.9757614  36.6602564
  73.2000875  24.9774814  36.6863489  74.8149443  28.7591362  12.4569988
  74.2704868  28.4736037  11.7233312  74.2429209  29.3274188  12.9728222
  47.5860310  44.4946909  45.5886841  48.2890654  43.8552094  45.4744911
  47.1916389  44.5747042  44.7201920  27.6754475  19.2637157  55.2840185
  28.1932735  20.0676274  55.3265953  27.6726890  18.9327431  56.1821747
  63.6246157  13.0355740  38.0177045  63.2674503  12.1813548  37.7748561
  63.7862015  12.9688478  38.9588046  60.7936478  24.1989827   3.4511554
  60.2595425  24.6239638   2.7800679  60.6525087  23.2625175   3.3120725
   2.4171525  38.1905603  19.6692455   2.9033464  38.5379601  18.9214754
   3.0131379  38.2934904  20.4111624  51.8083906  31.6616869  37.0422482
  51.7698050  32.6071167  36.8976617  51.2698269  31.2903476  36.3434720
  77.3146152  12.2079885  19.4606197  77.3239183  11.3171506  19.8106956
  77.9372644  12.1862769  18.7339354  64.8698282  33.9848757  11.0005796
  64.0098143  34.0084219  10.5809844  65.4895306  33.9255238  10.2734792
  57.5175381  45.2302742  16.4509535  58.2848501  45.7714272  16.6370082
  57.1641922  45.0112009  17.3131514  28.2516861  11.1673546  32.6863718
  28.6311793  12.0213902  32.8933501  27.7643418  10.9246600  33.4736633
  48.9427328  52.6177406  16.6116416  49.6362400  52.9457664  16.0392082
  48.1323957  52.8054476  16.1379790   0.5836012  39.3103051  10.8020413
  -0.2559705  39.3529129  11.2597919   1.1726268  39.8478365  11.3315141
  72.8416061  32.5538468  40.3733873  73.0380249  32.2024155  41.2418079
  72.5849199  31.7891765  39.8580027   6.1662751  23.8299847  29.3970799
   6.6529739  24.1956663  30.1357484   6.8047500  23.7917542  28.6849546
  21.5320055  72.9387837  64.2791573  21.6132776  72.2735673  64.9626131
  22.0032970  73.6966186  64.6252850  44.8653412   4.0259117  60.6831217
  44.6430016   4.0305969  61.6141272  44.5332909   3.1876281  60.3617907
  32.8247046  74.4267035  36.0078859  32.9478216  75.3711367  35.9123802
  33.0887246  74.2406559  36.9089460  72.2042179  30.3266478  14.1893029
  71.7342615  30.7026601  13.4450030  71.5311241  30.1988578  14.8577666
  32.1914721  36.7069292  16.1960912  31.3949227  37.2361255  16.1549234
  32.0212936  35.9717417  15.6072211  45.9416580   2.7584907  48.8287544
  45.8686972   1.8511489  48.5327148  46.0089111   3.2690203  48.0218649
  45.3065109  51.4647913  54.4593287  44.6028328  51.9942284  54.8345089
  44.8630190  50.8728886  53.8517141  71.3113403  30.2474833  21.8171144
  70.5893230  30.8484316  21.6333199  71.0185719  29.4067049  21.4655328
  67.6600552  35.7714224  22.6898289  67.2331047  35.8713078  21.8389654
  67.1989870  36.3842940  23.2625747  11.4520311  40.9869671  20.6220961
  10.9861088  41.1331654  19.7988248  11.0195625  41.5674353  21.2484026
   4.7979152  17.5310957  33.8957667   4.7350508  16.6351390  34.2267394
   5.0472993  17.4301386  32.9771543  68.9382601  39.1300893  44.4799137
  69.7032070  38.8425636  44.9783278  68.6049795  38.3315015  44.0707493
  17.6426888  22.3099303  33.1981397  16.8382609  21.8985200  33.5141587
  17.6537812  23.1692624  33.6196327   6.2993807  45.9323406  27.1367908
   5.8339453  46.7637587  27.2281599   5.6060350  45.2768087  27.0607758
  27.6562905  60.8540916   9.1823530  27.1420455  61.6614151   9.1855466
  28.5661435  61.1497927   9.1513121  59.7262239  27.9444456  39.7151041
  59.5562315  27.6995254  38.8055158  60.0145149  28.8559747  39.6678305
  22.1170592  53.4090376  32.4593425  21.5396357  53.3793020  33.2221842
  22.8408885  53.9744806  32.7287388  57.8459223  30.8125038   0.2785607
  57.1653386  30.4665012  -0.2987794  58.6085858  30.2598495   0.1078149
  60.7105112   8.5348070  10.4925156  59.8742056   8.2662350  10.8728945
  61.1664677   7.7127934  10.3118742  63.8609266  14.0614927  15.5776680
  64.7453880  13.7129426  15.4659951  63.3215046  13.5412145  14.9822140
  19.5076621  67.6714039  27.6765060  19.2919374  67.7609205  26.7482376
  18.6838460  67.8455544  28.1317282  30.6414866   2.9833159  27.6751876
  29.8085356   3.4346789  27.5384521  30.4126382   2.2086427  28.1887460
  62.9666805  32.2905278  43.7546158  63.7903786  31.8273830  43.9071035
  62.4410295  31.6803551  43.2373047  62.2351503  14.5114744  17.5604475
  62.7224493  14.1686535  16.8112826  62.8621244  14.4914436  18.2834518
  52.7284670  38.0324602  48.5306692  53.5340214  37.5275016  48.6417198
  52.0264196  37.3933005  48.6524677  77.6820707  43.9210415  43.8435316
  77.5659800  43.1157923  43.3392286  76.8080473  44.3097305  43.8786983
   5.5133283  48.2833290  36.1936307   5.2560228  48.7711573  36.9759703
   6.3799542  47.9348946  36.4028788  72.3878002  24.3405199  11.8303514
  72.7239418  24.5110893  10.9504962  72.4478722  23.3903837  11.9296765
  66.3682938  27.5536299  58.7100172  66.9177294  28.0455971  59.3201971
  65.5266190  27.4714684  59.1584253  18.6207485  68.4568691  12.1592069
  19.1459250  68.4025049  11.3607931  18.7360251  69.3579674  12.4608195
   8.3932400  40.2712917  62.5616074   8.8549936  39.4348407  62.6196480
   9.0728939  40.9303665  62.7027416  76.4536142  48.0811548   4.6950376
  76.1338425  47.4530363   5.3426820  76.2868881  48.9373827   5.0891393
  63.0275059  22.8331065  39.3241596  62.5726175  23.4973550  38.8063955
  63.9380074  23.1277061  39.3449616  70.4552841  15.8929586  30.1297855
  70.5628824  15.9538209  29.1806030  69.6779346  15.3471196  30.2482009
  40.7130575  71.7495489  56.8075275  41.2210655  72.5414944  56.6315126
  40.5627584  71.7665482  57.7527046  37.7064967  17.6205397  58.5306740
  37.7997494  18.5345960  58.7990713  38.4891605  17.4430633  58.0089760
  29.7099948   7.3562866  42.7779865  29.7036195   8.0589902  42.1280622
  28.7848616   7.1751404  42.9439545  72.8865004   0.1288829  22.1099591
  73.2647848   0.9555222  22.4096227  72.7859497  -0.3914116  22.9070878
  14.7019923   8.8073593  14.4781768  15.3678763   9.1562098  15.0707412
  14.7916162   9.3312860  13.6821234   9.0972298  49.9302340  31.6891575
   9.2640835  50.1083374  32.6147223   9.7750145  50.4213428  31.2247729
  66.3158941  33.7091208  31.4759612  65.7610321  33.0132985  31.1235595
  66.7775297  34.0569115  30.7129622  52.3629999   1.6586283   6.9476700
  52.6238918   2.5795630   6.9408208  52.2818232   1.4258023   6.0227728
  60.7124805  66.8204069  44.5335770  61.6681385  66.8439770  44.5825052
  60.4727221  67.6541805  44.1291475  55.1555300   7.2000939   9.8125070
  55.6767654   7.9529095   9.5335537  55.5309248   6.9482887  10.6562519
  47.7825451   6.2913638   0.8497410  47.4280596   7.0046508   1.3805833
  47.7379608   6.6168815  -0.0493043  50.3488398  39.2231727  28.4396553
  50.5265713  40.1612473  28.3714271  49.6587610  39.1575313  29.0997386
   1.8655860  33.7415576  28.4517002   2.8024161  33.9345694  28.4152746
   1.8010405  32.8198552  28.2016349   5.1409507  58.9601421  44.9045849
   5.4864937  58.8928699  45.7947016   5.5745745  59.7302055  44.5368862
  12.7954388  49.6445322   6.5612328  13.0622101  49.9759293   5.7037699
  13.2126331  50.2364635   7.1871716  58.8084841  71.9540071  23.0452585
  59.0440750  71.0429335  23.2204080  59.3691874  72.2098351  22.3128676
  19.7627676  17.8527689  39.9593019  20.3265405  18.6094165  39.7984385
  19.0052319  18.2123458  40.4209089  57.8809166  30.4974270  27.1399260
  57.4684668  29.9616003  27.8174257  57.6224947  30.0831962  26.3166022
   3.1366679  40.9208584  50.2127123   2.6127005  41.0026979  49.4158459
   3.4450835  41.8097162  50.3889084  74.5366200  19.7788400  -0.2351217
  75.0663074  19.3096847   0.4095145  74.2626985  20.5775995   0.2156325
   4.3432733  42.5066853  63.0109644   3.5390496  42.5247097  62.4921846
   4.6562231  41.6051674  62.9364204  64.3604517  25.4432130  11.9553912
  64.5217609  25.6018734  12.8854644  63.7819242  26.1571717  11.6874385
  51.5979195  38.6948180  20.1394939  52.3909712  39.0760875  19.7627521
  51.8947697  37.8836870  20.5520225   8.2603502  36.3204789  40.7092333
   7.9534459  37.0597315  40.1843071   7.5308746  36.1251569  41.2974072
  65.7038403  41.2322378  28.1091642  66.1350441  40.5413151  28.6120772
  66.3998413  41.8621063  27.9218745   5.9015101  55.7912111  25.6064510
   6.0180748  55.0523520  26.2037182   5.0823116  56.1991167  25.8870888
  66.1208487  29.0213108  39.5688009  66.5724945  28.7262964  38.7780952
  65.6183290  28.2589817  39.8561358  66.1197996  25.5663204  19.1127133
  67.0343971  25.7553625  19.3224967  65.6187725  26.0438657  19.7738886
   0.2552800  24.3409467  47.4628592   0.5486995  23.7483215  48.1549072
  -0.6691945  24.1257620  47.3392725  56.3259983  31.0799360  33.6312747
  55.7914734  30.7501173  34.3535829  55.8769894  31.8752527  33.3447552
  59.2360544  11.2344968  28.4516644  58.6647081  10.4790449  28.3135009
  59.2930174  11.6520739  27.5922370  53.8320684  42.8575945   5.1657051
  53.8590765  42.8493357   4.2089218  54.7289038  43.0641651   5.4288542
  67.0206165  28.9763284  15.6366694  67.7527523  29.1479254  15.0444150
  66.2564182  29.3300366  15.1815629  76.9115305  40.1419020  34.5809507
  77.1264076  40.9887743  34.1899586  77.3690081  40.1433039  35.4217505
  69.5948076  73.9999294  36.8009806  70.0272036  73.8242245  37.6366782
  68.7401772  74.3561745  37.0437384   6.9482011  64.2585707  58.1125927
   7.5404781  64.9796104  58.3259964   7.3948973  63.7804651  57.4139452
  69.8238039  29.2257357   4.9016571  69.8071241  28.5923123   5.6191021
  69.5634604  28.7214637   4.1308379   4.7718379  57.1495342  32.0185351
   4.5901060  57.6839256  31.2454677   5.6828177  57.3461866  32.2368813
  62.4388266  42.9878902  32.8821349  61.6651583  43.4937477  32.6335859
  62.3505068  42.8639269  33.8271546  61.0888433  20.4675150  23.5367179
  60.5508852  19.7441316  23.8584995  61.1651945  20.3091216  22.5958061
  68.0888033  20.9184885  25.5163527  68.9052725  21.3068676  25.2020812
  68.0029106  20.1056552  25.0181961  70.1324081   3.9979920  23.8239503
  69.4250488   3.4281200  24.1258144  70.8820820   3.7583187  24.3687201
  11.8549192  34.1493583  22.5220871  11.1970067  33.5533071  22.8800035
  12.6866913  33.6937547  22.6517558  58.7376785  36.7681932  62.0806503
  58.4757328  36.7919064  61.1602974  58.5776186  37.6568866  62.3982048
  17.2625589  42.1118212  31.8846464  16.4900243  42.6726770  31.8149114
  17.2485650  41.5844679  31.0859370  74.0706539  69.7998619  11.9641495
  73.8290358  69.6260452  11.0544026  73.9096212  68.9721155  12.4170709
  67.8332329  27.7606225  17.9185033  67.5992250  28.2606959  17.1365833
  68.2827759  26.9856405  17.5815332   9.3792903  48.0407715  29.3466306
   9.3508852  48.4433365  30.2145982  10.3012526  48.0834627  29.0928698
  22.5596356  57.1703959  62.0479679  22.1246219  56.8875504  62.8523254
  23.4713054  57.3089027  62.3046970  79.2428541  13.7614560  26.9927526
  79.5303106  14.3797207  27.6645780  78.4577227  14.1616988  26.6191077
  21.7330098  49.9481058  21.2496185  22.0719409  50.7828426  21.5729904
  20.7933903  50.0962973  21.1429334   0.9402792  57.3192930  33.3009362
   1.8094280  57.3914957  33.6953974   0.4646715  58.0829144  33.6279082
   1.1280130  47.5196123  35.9618115   1.0724016  47.7632856  35.0378180
   1.9425543  47.0214510  36.0295320  44.3149996  35.7415819  63.4105158
  44.8971081  36.4205384  63.7516928  44.3032646  35.8891892  62.4648380
   8.2536846  70.2450466  15.5245221   8.2230675  71.1954784  15.6339490
   8.7047374  70.1143932  14.6904290  69.1039848  36.0543680  31.9505095
  68.5235262  35.6003499  31.3396335  68.5224009  36.3760448  32.6393580
  61.2862968  31.2764001   6.1150175  60.7840729  32.0793056   5.9759259
  60.7847500  30.5986428   5.6618816  71.0604572  51.4137459  59.7323847
  70.9782457  50.5611181  60.1595831  70.9696579  51.2235641  58.7986755
  30.3773022  47.1717930  61.6734600  29.5736003  46.7004871  61.8929338
  31.0246921  46.8452597  62.2983503  20.2718329  57.3362446  43.1070042
  21.1224008  57.2344065  43.5340834  20.0784683  58.2710028  43.1782007
  14.9695325  45.0948811  56.7094946  14.4049847  45.3970909  55.9980297
  15.2127111  45.8934069  57.1779585  64.5649004  47.8511381  14.7247171
  64.5955181  48.8074636  14.7518539  64.1551685  47.6483917  13.8837397
  73.1840658  41.4402866  27.3414993  72.4307585  41.0836029  26.8708253
  73.9332867  40.9530640  26.9986987  56.3033867  21.0557079  14.7949386
  56.8023825  21.2198520  13.9947569  56.9690943  20.8929586  15.4632032
  59.3438625  67.0023823  27.0996451  59.1821623  67.9045677  26.8236923
  59.1561174  66.4767599  26.3220191  77.8655338  33.3366919  56.3376045
  77.2134161  32.6396179  56.4087486  78.4237862  33.2218218  57.1066236
  66.0712004  26.6045570  33.0703187  65.5643940  27.2585678  33.5516191
  65.7023573  26.6181397  32.1871400   6.0414749  34.3400788   2.4433737
   6.5776700  33.6288667   2.7939475   5.2120900  33.9225650   2.2109230
  73.7336397  54.1139698   2.1280019  73.3989429  55.0082731   2.0614433
  72.9491663  53.5665655   2.1622486   5.6782454   7.8033477   7.9292905
   4.8106959   7.7655476   7.5265986   5.6016278   7.2613758   8.7145478
  11.4475334  19.1275954  24.7784448  11.7721272  19.9944425  25.0222635
  12.1390903  18.7587094  24.2289877  58.9298105  31.7285299  33.2573032
  58.1040192  31.2873983  33.4565592  58.8550568  32.5814748  33.6852407
  56.3652277  29.4063354  29.1783142  56.0391092  28.8924861  28.4395051
  57.0910931  28.8893890  29.5277619   1.4854570  59.9804354  56.1856222
   1.6919048  60.5093431  55.4149914   2.2270773  59.3812561  56.2705564
  53.4455490  61.4653826  22.9776740  52.8972483  62.1281767  22.5577903
  52.8421974  60.7518673  23.1852698  46.3677454  20.3829288  11.7620218
  46.8751621  21.1116815  11.4046991  46.4527798  19.6887064  11.1085272
  74.0494299  31.2856531   9.3611914  74.8078871  31.0928893   9.9123842
  73.9896011  32.2409797   9.3616748  64.1424704  16.7696095  50.2508974
  63.4514332  16.2699461  49.8161077  64.1344786  16.4533758  51.1543131
  73.2170153  38.1427479   4.2046693  73.3156967  37.2905779   3.7800512
  74.0857458  38.5406423   4.1479456  62.5786400  56.7376995   0.9154151
  63.0109787  55.9228897   1.1711448  61.7407942  56.7196655   1.3779297
  54.3606901  42.8532457   2.4463239  53.8959122  42.1537685   1.9870378
  54.2870045  43.6109543   1.8660858  73.1044436   4.1085419  12.2335041
  72.5539398   4.0804642  11.4509523  73.1721020   3.1951466  12.5116467
  43.3889910  74.5582690  25.8446336  43.1052252  74.8677614  24.9844456
  44.3320509  74.4233528  25.7515073  66.6133785  33.2900333  13.8896143
  66.6157675  32.6850533  13.1478417  65.7020903  33.5730696  13.9649093
  72.1846199   5.2055991  49.1860533  72.9551458   5.7297760  49.4045877
  71.6106272   5.8088112  48.7139273  64.9262142  52.3690796  23.5563517
  64.6214914  52.4146461  22.6500964  64.1304064  52.2307920  24.0699601
  67.1307230  65.9635925  55.8506298  67.1437883  66.1706161  56.7850828
  66.2081242  66.0281086  55.6038952   0.7452656  26.2516332  20.0371671
   0.2223415  26.9432497  20.4426885   1.2767066  26.7054772  19.3830836
  41.8344498  64.6464396   8.2521600  42.0846033  63.9557743   8.8658667
  42.0180845  64.2772961   7.3883063  55.0690079   0.5422619   5.6800163
  54.8252678   0.5690966   6.6052735  55.6258869  -0.2322968   5.6013978
  67.3009491  69.6085310  58.2776880  66.3488436  69.6840906  58.2142735
  67.6151466  70.5123425  58.2524872  49.6386194  17.7230537   5.7629168
  49.1684723  18.5450292   5.6230998  49.1613579  17.0816290   5.2365851
   0.9036862  13.6193538  61.1987686   1.7506939  13.2604396  61.4633274
   0.2609522  13.0148983  61.5699244  46.4867401  41.7132521   6.2309259
  45.7069445  41.1683416   6.1250049  46.1863184  42.6013899   6.0380757
  57.1241617   0.2961258  23.3267689  57.0554066   1.1487451  23.7563562
  58.0545616   0.0769084  23.3770919  64.6383142  35.4598880   7.9398221
  65.3917456  35.0549364   8.3694589  64.5406723  34.9749446   7.1203548
  61.0366011  22.4830246  42.7459574  61.9839239  22.3546243  42.6977062
  60.7568932  21.9305873  43.4758949  55.0576925  12.9936016  36.0142064
  55.2586651  13.2578123  36.9120002  54.9717379  13.8180149  35.5354714
  26.9065404  17.1594822  33.3038259  26.3609076  17.5970280  33.9573312
  26.7396092  16.2265837  33.4382415  23.1171322  69.3796301  23.5540867
  23.0296159  68.5015583  23.9249778  23.9522958  69.7010088  23.8938689
  78.1098890  42.2709322  33.0314302  78.4293795  41.6717863  32.3567581
  78.8755322  42.7937508  33.2695150  69.7999144  58.2100487  58.6151791
  68.8840342  58.4631157  58.4996319  70.2880573  58.8165045  58.0582619
  55.5782700  28.6846375  48.8675976  56.1555815  29.1138577  49.4990349
  54.9585056  29.3662810  48.6078119  76.3412905  22.1374488  14.8618770
  75.5938673  22.5697017  14.4486594  77.0736790  22.7369976  14.7191262
  71.4410734  48.3366776  57.6884842  72.0212173  48.2784319  58.4476089
  71.4831781  49.2558861  57.4248314  57.4809456   1.9517140  20.8066130
  56.5782690   2.1222095  20.5376482  57.5476456   0.9971280  20.8300400
  44.9546528  37.1638393  15.2339160  45.6378984  36.9467425  14.5996642
  44.9549723  36.4289665  15.8472621  28.8394141   0.7769767   7.6841468
  29.2608190   1.2647846   8.3917445  28.6150694  -0.0671725   8.0756986
  51.9878340  50.2641010  26.3915586  51.9757843  51.1871243  26.1383486
  51.7949057  50.2703953  27.3290944  35.0668144  39.9255729  63.6433887
  35.7971740  39.3077564  63.6767149  34.5702100  39.7527313  64.4432306
   2.8265807  20.9655762  22.4631953   2.1313810  21.6021824  22.6295137
   3.6375096  21.4608550  22.5786352  61.2769604  28.3267069  36.2837315
  60.6774044  28.9006615  36.7605305  61.4650536  28.7979913  35.4721022
  23.8097334  74.3454409  63.6879063  23.2752061  74.1623354  62.9152632
  24.7090125  74.3553686  63.3601427  43.7359571   0.1455887  42.0955563
  43.2470226  -0.6058444  41.7601061  43.0618000   0.7565805  42.3929405
  66.6666555  34.3376565   9.0276617  67.2625208  33.6614323   9.3499917
  67.2391701  34.9849343   8.6159736  47.2777176  51.9454002  56.4740753
  46.6589975  51.7994976  55.7584429  47.4472952  51.0715342  56.8259811
  19.4731057  31.4680719  17.0782840  18.5997224  31.4558339  16.6867697
  19.3219757  31.7037272  17.9936302   4.6382695  64.9367476  23.2427883
   3.7199348  64.9321938  22.9728389   4.8570639  64.0127182  23.3633399
  72.0052481  67.0368576   9.4793725  71.4855480  67.6393032   8.9472020
  72.8908062  67.1049595   9.1224635  52.1464109  39.1733694   2.7533674
  51.9534874  39.9602985   2.2437029  53.0942678  39.1991711   2.8842396
  16.3290727  60.6843662  22.5363278  16.7044568  61.1578751  23.2786942
  15.4256785  60.9966040  22.4851561  37.8921866  11.2591469  28.1528807
  37.0363593  10.8912802  28.3730221  37.7625203  11.6735387  27.2998261
  75.4042864  38.0174017  17.1622789  75.3634691  38.5324550  17.9680610
  74.6552610  37.4241281  17.2190344  26.9928169  13.8619125   4.3223396
  26.8921685  13.0567336   4.8300672  27.7286553  14.3145657   4.7345051
  45.4178190  27.4359298   2.2302854  45.1120186  27.7787852   1.3905419
  45.1470995  28.0939627   2.8705478  54.9952030   3.6981463  30.1921988
  55.4700851   4.4947833  29.9553728  55.0147438   3.1628743  29.3988943
  59.1431189  58.2909536  21.5384603  59.7242069  58.9161634  21.1052394
  58.8649368  57.6987076  20.8398247   7.9396737  31.8511295  15.9342337
   7.7431893  32.7641129  15.7242680   8.8955927  31.8030381  15.9224761
   8.4415388  67.5311470   8.5424602   8.6147964  66.6296053   8.2714736
   8.1430686  67.4556589   9.4487989  36.6461658   5.9622198  33.6932278
  37.0574784   6.1631179  34.5338798  36.5867281   6.8072915  33.2476354
  58.1517267  42.1453667  46.3043976  57.6691914  42.3265171  45.4978132
  59.0111160  41.8462992  46.0073423   3.0094758  48.4835052  22.9574013
   3.0071244  49.4394302  23.0067754   3.7922144  48.2718754  22.4487114
   9.4224709  59.2942905   1.4038147   9.0109366  59.9662733   1.9472368
   8.7463933  59.0502882   0.7716645  47.6795053  23.4728980   8.3307827
  48.0112505  22.5854754   8.1941825  48.4638596  24.0211272   8.3523881
  76.6995621  25.9296322  48.5796738  75.9308958  25.4603481  48.9039564
  77.4242353  25.5972052  49.1093636  25.8928037  72.0104361  22.8121495
  24.9421406  71.9072008  22.8547239  26.1074948  71.8736506  21.8894196
  77.2456598  34.3681169  51.8001795  77.4370480  34.9050069  52.5691748
  78.1018353  34.0571570  51.5060711  54.8217726  46.7373800  63.9865160
  54.6952581  46.5392160  63.0586338  54.5049095  45.9581184  64.4432211
  17.0880961  63.0196190  41.0442924  17.5689828  62.2648001  40.7048368
  17.0346916  63.6227322  40.3029203  75.3584528   8.7612718  61.3565254
  75.0996733   8.8974118  62.2679710  75.9774590   8.0319107  61.3896799
  78.0168056  34.1274047  16.5938687  78.0720758  35.0434780  16.3218641
  78.3481121  34.1237950  17.4918973  25.8739138   2.6233315  11.5276504
  25.1773977   2.2158210  12.0424616  25.5498266   3.5045230  11.3413703
   4.4890615  62.9346704  31.7058396   5.3189653  62.7365971  31.2719512
   3.9606565  62.1459532  31.5835857  63.1474352  36.9936895  16.5162528
  63.0338430  37.8999448  16.2298441  62.3746920  36.8129992  17.0514643
  68.7394476  46.5912724  20.4719782  68.2766247  46.1722803  21.1975622
  69.1274548  47.3769474  20.8571982  21.5497661  47.9059410   3.5533908
  21.5773416  48.5583353   4.2532870  21.4680266  47.0684719   4.0096760
  43.6578894   9.2051965  47.0087290  43.0300903   8.8511384  46.3788557
  43.8347626   8.4778214  47.6052809  69.0879107  60.2764034  26.9043922
  69.2010355  59.3676710  26.6257453  68.2536221  60.2809525  27.3736215
   2.9707840  49.9249172  16.6437161   3.6449516  50.5376005  16.3498688
   3.2636124  49.0731335  16.3197505  18.3921230  49.2829704  26.8897915
  18.9987659  49.8693943  26.4377689  18.8405061  48.4373713  26.9017124
  58.6656666  55.9966564  28.7206817  57.7378798  55.9106779  28.9398909
  58.6822414  56.6090012  27.9851580  71.5062809  48.3955002  34.1663909
  71.1223412  49.2185450  33.8640356  70.7687473  47.7864695  34.2033410
  14.6950531  47.8582478  17.4712133  14.2623425  48.7015247  17.3374987
  15.5316210  47.9431248  17.0138478  56.8711758  30.6882954  50.4838943
  57.4067163  31.4814758  50.5010462  56.1324930  30.8855462  51.0598087
  20.8646631  65.6075430  28.5602617  20.2968550  65.2014780  29.2151976
  20.3112388  66.2642765  28.1375909  72.9471302  52.5440454  30.3583598
  72.1667862  53.0288649  30.6271482  73.5079527  52.5437880  31.1340594
  30.1898837  60.3026056  26.0001349  30.2118230  60.8188200  25.1943612
  31.1107063  60.1779270  26.2298536  72.5000811  42.4649620   5.7523561
  72.2135019  43.0197096   6.4778614  72.8367424  41.6742849   6.1739206
  71.2347698  57.7405119  25.0909162  71.7625141  57.0096874  25.4128075
  70.4514313  57.7308035  25.6409335   0.9656367  46.6919851  50.8199883
   1.8419033  46.3603544  50.6240082   0.5631118  46.8267202  49.9620533
  64.1012907  74.1307116  26.9114447  63.4249830  74.8060369  26.8587804
  63.8774204  73.5127640  26.2155581   3.2912073  65.6638908  34.8798275
   2.9351798  66.0019636  35.7015228   2.7496374  66.0660458  34.2007065
  34.2491031  67.9708242   1.9581255  34.9584842  67.5947857   2.4792850
  34.2546940  68.9014387   2.1820866   7.5432777  21.4625382  24.0870118
   7.4858356  21.4254475  25.0417662   7.1969861  20.6198883  23.7933159
  20.3424525  50.1056147   0.4515831  21.0349274  49.7945642  -0.1314777
  20.8086061  50.5276346   1.1732714  44.8883629  63.5400677  29.9587941
  44.2461300  63.1981373  30.5807638  45.2179527  62.7647972  29.5043111
  73.6399508  19.8591447  34.6196747  74.5582628  20.1290894  34.6277475
  73.1514597  20.6749225  34.5096183  22.7091551  51.1371899  57.9537916
  22.8839087  51.7560387  57.2447634  22.6410818  51.6832685  58.7369871
  21.2283993   7.2996700  52.4424553  20.7480502   6.7250961  53.0385780
  20.6104183   7.4805009  51.7341995   7.4407107  50.5133677  51.9757509
   6.6968739  50.8581591  52.4697733   7.4120992  49.5687628  52.1278620
  11.1606348  47.9933071   4.1322789  11.7794061  48.6895657   3.9118806
  10.3272760  48.2885122   3.7654027  52.4325613  41.4997832   1.0447140
  51.9660501  42.3331852   1.1082860  52.7791432  41.4867501   0.1525613
  71.8602324  11.2523532   7.7327162  71.4246416  12.0293164   7.3822540
  71.6001892  11.2268579   8.6535639  73.0492687  45.3829908  53.3699322
  72.2815418  44.8180199  53.4573269  72.7915907  46.2038374  53.7895060
  76.6764164  18.1118989  16.4519382  75.8404064  17.7424634  16.7362523
  76.4437294  18.7171519  15.7478356   2.3210698  65.0056028  21.4100742
   2.6773405  65.8543587  21.6725993   1.4579409  65.2092218  21.0498238
  16.0809982  23.8438225  64.6450329  16.9691038  23.8631487  64.2884827
  15.8359778  24.7654343  64.7276783  14.3540120   7.9319519  18.4431446
  14.9854195   7.5497812  17.8336358  14.8615801   8.5694087  18.9453948
  71.5001583  51.3766050  17.1076536  72.2839069  51.7326403  17.5262296
  71.4574718  50.4698086  17.4111748  73.2106495  36.2042356  16.6240084
  72.9199028  36.3330150  15.7211709  73.9897156  35.6532598  16.5484631
  53.3365917  33.0086803  53.5687494  53.7221289  33.8662267  53.3892822
  52.8055811  33.1443048  54.3535185  79.0784788  42.8477335   1.4045468
  78.3427143  43.2244825   0.9219098  79.4488716  42.1976900   0.8074856
  56.9547558  39.7101402  15.3134263  57.5084019  40.1042986  14.6393704
  57.1814966  40.1812124  16.1152446  75.2029562  49.9617815  14.5446324
  75.0457954  49.4929075  15.3641987  74.3571472  49.9511242  14.0966094
   2.0293078  10.5277526  32.8700328   1.5021133   9.8916203  33.3533883
   2.8402060  10.0615847  32.6666546  19.9591482   3.2966748  10.1319230
  19.7474718   3.8531005   9.3823802  20.5709195   3.8178226  10.6518972
  13.7672234  58.4850979  30.9049582  14.1188776  57.6201773  30.6940460
  13.2259846  58.3408308  31.6811538  67.5128508  29.0880013  26.2295032
  67.2683001  29.9609184  25.9221935  68.4674072  29.0686893  26.1610508
   3.9708829  65.0451612  29.4557667   4.2419437  64.6009541  30.2591586
   4.4316450  65.8838558  29.4786692  53.2018852  36.4232755  25.8401299
  52.3350811  36.8053746  25.9775424  53.3195114  35.8248043  26.5778494
  63.3501720  34.2473459  36.6960573  64.1086388  33.7324309  36.9714141
  62.6145601  33.6371469  36.7486286  70.1874971  34.6080208  39.8785686
  70.9164333  34.6596432  39.2603278  70.2996683  35.3711605  40.4453707
  10.5885744  10.2797914  59.8850489  10.1820576  10.8620286  60.5269003
  11.5237427  10.3178108  60.0856590  37.8322434  23.2787490  62.5521326
  37.3474836  22.5887179  63.0050087  37.5041318  23.2516074  61.6533375
  61.6913557  50.2009249  47.7813530  62.4663162  49.6616507  47.6237345
  61.5896273  50.7141495  46.9798040  12.6246703  58.8366699  50.8801079
  12.9537654  59.4944382  51.4926958  13.3476746  58.6956406  50.2688742
  34.6594119  71.6074085  64.0247583  34.0041232  72.1466684  64.4675064
  34.1482711  71.0033798  63.4861374  78.8112307  29.8693585  58.6916828
  79.0916824  29.2061353  59.3223286  78.3618879  30.5282974  59.2209530
   7.1012467  11.7293966  47.6945972   6.6372943  11.0139656  47.2596931
   7.1582359  11.4562857  48.6102343  57.8983879  37.6533365  21.1464453
  58.4299660  36.8573356  21.1406302  57.6086807  37.7412510  22.0545053
  19.2824221   2.9533559  20.7495022  18.4756672   3.3565101  20.4288077
  19.1553128   2.0156509  20.6053376   1.7064494  16.5527713  37.8057289
   2.5113100  16.0412955  37.7231193   1.3717087  16.3338029  38.6753464
  44.5437527   0.7019087  35.7530808  44.8532629   1.0396594  36.5935349
  44.7086525   1.4129427  35.1338315   6.7003274  58.2166958   8.6492944
   6.0662985  57.5353622   8.8729537   7.5292379  57.7487421   8.5485101
  75.9335423  32.3378992  44.3992376  76.7343807  32.2813725  44.9204874
  75.9119654  31.5191913  43.9037752  62.8780174  34.5999122   4.3131936
  62.2569466  34.3176532   3.6417529  63.1891203  35.4523373   4.0085316
  65.9248972  32.6617503  55.1500893  66.3366842  31.8675756  54.8095703
  65.7178211  32.4525261  56.0609007  55.3788185  51.8910170   9.6004945
  54.5805931  51.8266392   9.0761667  55.8846235  51.1138058   9.3631428
  30.5194974   1.0816915  10.4576480  30.4073000   0.2287370  10.8773053
  29.9927759   1.6803131  10.9872222  62.9706526  55.6436253  54.8729515
  62.2396564  55.2557564  54.3918800  63.1138945  56.4900064  54.4494581
  64.8919868  41.1628819   0.5366797  64.5836544  40.5694437  -0.1481505
  65.7802105  41.3976955   0.2680616   9.2201173  52.3994923  51.0595179
  10.0724506  52.2292042  51.4604712   8.5951531  51.9419718  51.6219473
  79.2171097  43.8337994  13.1947970  78.3226490  43.9393950  12.8707290
  79.1117096  43.6002254  14.1170573   2.8744915   8.1492305  53.8659811
   3.8307595   8.1898439  53.8543987   2.6760858   7.2417682  54.0970230
  17.3977840  36.4519858  26.2619066  17.4660206  35.5171800  26.4561081
  16.4714026  36.5883517  26.0632777  75.2995872  65.5324697  17.8263485
  75.9199381  65.2974701  17.1362960  74.7327280  66.1909580  17.4247313
  72.1828413  62.6606560  11.8980360  71.6728783  61.8724537  11.7112064
  72.0446301  63.2218075  11.1349905   3.8849828  24.6647358  24.3425202
   3.5097796  25.4763341  24.0008140   4.7640312  24.9101448  24.6311045
   6.8777007  33.5232306  40.7399750   7.0921844  33.3080173  41.6476679
   7.6434475  33.9998126  40.4194546  12.0463943  23.0008888  42.6386499
  12.8277802  22.5341392  42.9349852  12.3702466  23.8575935  42.3604250
  59.8638916  37.2449541  35.8245492  60.8007097  37.1149993  35.6771874
  59.4433641  36.8342543  35.0690937  46.1835623  62.8790951  14.8891032
  46.1247778  63.6950064  14.3920434  45.5116034  62.9619122  15.5657470
  34.5619226  70.5820036  16.7753613  35.2136660  70.0506020  17.2326052
  34.3872523  70.1024389  15.9655845  45.5239820   5.9011340  24.5270014
  45.3182697   6.2363458  25.3996658  45.6141233   6.6846389  23.9845729
  54.9993420  12.1348190  32.2105622  55.2939558  11.8493509  31.3457274
  54.1580009  11.6953659  32.3340988  36.9533515   6.0607123  22.3762345
  36.4233994   5.2753377  22.2399616  37.4024916   6.1943793  21.5415859
  30.3154254  52.5608397  35.7278705  29.6576810  52.1217823  36.2671590
  29.9501228  52.5437307  34.8432827  42.0810032  10.9651864  53.9004803
  42.7323580  11.1261153  54.5831728  42.5178909  11.2199116  53.0877829
  17.2712970  43.5424137  12.8568506  16.5184391  43.5252810  13.4477341
  16.9839501  43.0492592  12.0884371  11.3038540  31.8990016  24.7857451
  10.3916800  31.7769194  24.5225596  11.5630770  31.0529900  25.1508451
  71.2533379  31.7060924  26.6077781  71.2555504  31.2617946  27.4556136
  71.5037823  31.0273480  25.9810281  72.9366922  60.9772253  33.5825562
  72.9532433  60.0542259  33.3295131  73.4139490  61.0068369  34.4117641
  55.5132151  11.5495825  24.5529199  54.8245859  10.9766102  24.8901439
  56.2118387  10.9525096  24.2852163  74.2081261  46.0158730  50.5741215
  73.8899136  46.8384361  50.2021503  74.1668272  46.1493969  51.5210629
  55.9754753  48.3458042  58.4558487  56.7259359  48.1877565  59.0286160
  55.2385712  47.9345894  58.9076328  47.2028589  27.1851873  59.2542982
  46.3927841  27.3772740  59.7266436  46.9123983  26.8021679  58.4265518
  63.0237913  17.5166249  18.1198657  63.7516069  17.1004403  18.5817170
  62.2548771  17.3142755  18.6528349  26.5076900  54.6777582  37.2712159
  25.6005955  54.9609661  37.1563172  26.9153786  54.8280144  36.4183116
  22.4983931  19.0211546   1.1264600  22.9823303  19.7601938   0.7578738
  22.9595470  18.8143921   1.9393669   2.2851129  30.0383687  45.7237911
   2.8725880  30.7379508  45.4379749   1.8881114  29.7138214  44.9155283
  53.2708502   6.2558579  15.9438848  53.0410147   6.1575794  16.8678689
  53.5560369   5.3829408  15.6738555   8.4967136   7.1310925  40.4523420
   8.0690950   7.8860193  40.0480366   8.2697839   7.1956766  41.3800049
  55.7219505  44.4717836  21.5296793  55.9367990  45.3233719  21.9102955
  56.4507723  43.9053965  21.7831707  13.5094476  46.9774532  26.9351625
  14.1831243  46.5132046  26.4383101  13.6957550  47.9040098  26.7834425
  31.7164898   1.0872293  52.8227949  32.1733880   1.7802511  53.2994509
  31.3554645   0.5237324  53.5071659  60.3912973  43.5444784  20.7288265
  60.9486771  42.8862906  21.1439776  60.9593487  43.9678574  20.0851679
  74.2076635  42.9654074  40.6952286  74.3507099  42.0617247  40.9765148
  73.2765818  43.0036259  40.4764557  18.5450423   0.5977988  22.5915718
  18.5344648  -0.0975114  21.9338012  17.6620889   0.5913353  22.9611444
  78.7774324  27.4835777  51.3051128  79.4002151  26.7599869  51.2358999
  78.1300974  27.1822834  51.9426155   5.5399466  56.4389658  43.2272816
   6.2632376  56.0061216  43.6808491   5.5086094  57.3162174  43.6089659
  13.5791469  49.8492861  26.3696766  13.4550142  49.6204424  25.4485631
  12.7207363  50.1604843  26.6569400  19.1748786  59.9224329  22.3086596
  19.6875405  60.2643394  21.5761924  18.2641351  60.0637245  22.0501757
  15.9512222  14.6121967  19.6632397  16.5485084  13.8657975  19.7119093
  16.1385465  15.0139332  18.8148594  62.0945835  11.0334992  18.8396382
  61.8128061  11.2328899  19.7324300  61.2796879  10.9471178  18.3449507
   6.9001198  33.7036157  49.7039700   5.9726894  33.9237714  49.7913504
   7.0054859  32.9024649  50.2170849  42.0130110  18.5933232  53.1964350
  41.4985609  18.7927079  52.4142504  42.2188902  19.4492245  53.5723066
  57.0514345  19.9022734  63.4530163  56.3225460  19.3239617  63.2282639
  57.8345013  19.3923938  63.2455063  44.9396467   9.2593956   9.2306364
  44.8403311  10.0270462   9.7937351  45.5285740   8.6812413   9.7155398
  19.8465395  28.2164741  20.6324744  19.7871494  27.6860380  19.8379040
  20.5105186  27.7776957  21.1642981   3.3622184  67.7515888  49.4111109
   2.9660147  68.3638000  50.0311565   3.9218125  67.1929312  49.9505472
  57.2932863  32.0010614  23.5175467  57.0138502  31.0878539  23.5823393
  56.5029716  32.4756646  23.2598901  74.2989731  53.3976364  35.9809470
  73.5253048  52.8845692  36.2142539  74.0728760  53.8052464  35.1449037
  68.9480019  39.4134665  22.3435521  69.1135502  38.7208438  21.7039418
  68.5831213  40.1329851  21.8283963  11.6908681  55.3347588  20.7091260
  12.2796583  54.6600580  20.3709912  11.9277263  55.4183531  21.6327810
  76.8897724  40.3201294  14.4752038  77.5772953  40.3155994  15.1411760
  76.0730124  40.3025103  14.9740291  77.3784304  74.3063641  36.1322689
  78.0034971  73.6095190  35.9324241  77.8612566  74.9050426  36.7020869
  58.4085655  39.9011397  49.1812849  59.1468716  39.4877911  49.6288109
  57.6345587  39.5497823  49.6213961  53.4411097  47.7636003  19.9443114
  53.8227034  48.0958414  20.7568598  54.1520119  47.8188324  19.3057191
   0.5981566  18.5316348  29.7881103   1.2683395  17.9360771  30.1233673
   0.0422916  18.7171292  30.5449700  68.2568407  12.9193866  39.7638822
  68.7875891  13.2000184  40.5093908  68.4861422  11.9983757  39.6398115
  59.1534662  54.7564936  20.7817292  59.8241615  55.1240873  20.2061629
  59.6094465  54.5937490  21.6074586  52.1260881  52.6293135  25.3815746
  52.8001308  52.4548435  24.7247219  51.5285969  53.2431412  24.9544334
  23.4973621   9.8404968  16.2485492  22.7440834  10.4257929  16.3275051
  23.3657980   9.3921721  15.4131281  57.8924274  47.2961760   8.9971966
  58.1363773  46.4403200   8.6447257  58.3221817  47.3346567   9.8516345
  26.9835559   0.2818331  25.7350111  27.1688143   1.1873468  25.9839129
  27.6903626  -0.2256171  26.1339545  64.4495201  59.0401506  30.6943846
  64.7451305  59.3086147  29.8244572  65.1529360  58.4811306  31.0244346
  60.1815605  63.5509348  16.1947918  60.1848316  63.9580870  15.3285086
  61.0039902  63.8330173  16.5951252  60.4354191  34.9405575   3.1832218
  60.2419376  35.5754948   3.8728949  59.8759079  35.2029657   2.4522516
   9.8001724  62.6976252  16.1203921   9.5710909  61.7684746  16.1413705
  10.3496194  62.8263569  16.8935466  75.2614260   3.4011811  27.3319483
  76.0143518   3.9236218  27.6083374  74.8082304   3.1844404  28.1467295
  48.4820747   4.7879958  13.8085139  47.8830528   5.3178173  14.3345273
  47.9477692   4.0552154  13.5022819  75.0325012  65.8294439   4.1885337
  75.4200602  66.3452101   4.8956522  75.5762434  66.0232115   3.4249687
  13.9511943  36.7254257  13.9678645  14.1836047  36.8504429  14.8879671
  14.6303391  37.1947551  13.4833813  59.7683525  35.0755024  10.4793847
  60.4797125  34.9993253   9.8434579  59.7162104  34.2101669  10.8852267
  79.0542364  72.3897648  58.1374264  78.9661646  71.8860435  58.9465857
  78.6064100  71.8616152  57.4765635   6.1168534  39.1173410   4.3621165
   5.5034310  39.7721553   4.6955261   5.6610155  38.7172508   3.6215952
  33.1548023   5.9082687  60.6764317  32.4177670   6.5162832  60.7341480
  32.7686954   5.0476938  60.8394194  20.5019855  70.0237036  52.6199532
  19.7632432  70.5265713  52.2770023  20.3744388  70.0273991  53.5686064
  17.1676064  65.9658861  52.2905397  17.3255789  65.0238132  52.3519707
  17.0438731  66.1275053  51.3552332   8.3299375  45.2482176  64.2034960
   8.9836866  44.9331808  63.5793209   7.4895233  45.0276804  63.8018751
  29.5191050  15.0346625   6.7429554  29.7060299  15.5898178   7.4999845
  29.6698213  15.6019771   5.9868670  67.1922970  26.1797452  55.8472872
  67.4560213  27.0047283  55.4397535  67.5377846  26.2316346  56.7384529
  36.7408371  46.7130327  63.2996941  36.0135841  46.4942837  63.8823414
  37.2152734  47.4062204  63.7586451  61.9127512  70.5432272   0.7068647
  62.0071030  69.7695017   0.1512790  62.8105307  70.7877445   0.9314559
  73.6169767  27.1382380  29.5266366  74.5093393  26.8372226  29.6978545
  73.0612946  26.5290785  30.0128174  79.3833876  21.3418531  57.3319674
  78.4721994  21.4837813  57.5885153  79.8767948  21.9932771  57.8303909
  69.5789862  17.9729533  62.8315496  70.0453234  18.8076770  62.7868795
  68.6674070  18.1975889  62.6449966  72.7152634  58.3798313  31.9695473
  71.8126726  58.2139635  32.2416615  73.0381298  57.5271320  31.6781902
  61.0353947  28.3833265  15.7889533  60.2010393  28.8445044  15.8749545
  61.6172123  28.8232255  16.4087999  24.7837090  64.6594095  20.2722692
  25.0873137  65.4659891  19.8557627  24.1995382  64.2616844  19.6266770
  79.4993830  60.0048685  33.4471488  79.0167856  60.5496120  32.8253865
  78.9386988  59.9719763  34.2222500  62.7497101  38.8704467   1.6052677
  62.7847528  39.2551637   0.7294846  63.3169889  38.1013083   1.5518735
  26.0582995   1.7774636  45.1138401  25.3703642   2.3704021  44.8115206
  26.2419939   1.2188450  44.3585730  69.3498230  32.0471144  28.9490199
  69.4993067  32.4902105  28.1138253  69.8122501  32.5850558  29.5916796
  55.4604673  28.2936907  26.4926338  55.4306841  28.6316299  25.5975676
  56.0547209  27.5447321  26.4462209  68.1256533   0.5176408  10.2673590
  67.5760365  -0.2638806  10.3254938  68.8389206   0.3552984  10.8847094
  43.1137991   8.7715596  58.5582829  42.5426531   9.4527805  58.2033730
  42.5974369   8.3645064  59.2539215  59.0278816  14.5640635  10.8833563
  58.1084108  14.6191502  11.1436868  59.1746950  15.3487480  10.3552008
  50.1055241  27.7802348  25.3745914  50.8779049  27.3327303  25.0290561
  50.3747463  28.0893230  26.2395859  37.0529795  52.5644112   5.6595933
  36.7270374  51.6653824   5.7013810  36.2664104  53.1071329   5.7143021
  33.3788037   6.1740249  14.3054163  32.5655198   5.7350212  14.5545685
  33.1973219   7.1051061  14.4334126   8.8749713  64.6742868   7.8951216
   9.1740966  63.9836931   8.4865910   7.9458612  64.4880056   7.7598917
  63.5355949  40.6881618  39.3814707  64.1184616  39.9289441  39.3904757
  62.7158880  40.3564787  39.0150046  61.9068336  15.4145706   8.7505120
  61.1746311  15.6724012   9.3105447  62.1857786  16.2285244   8.3311075
  73.2124424  35.8643675  64.2060852  72.6294661  36.5533781  64.5248938
  73.6012268  35.4939461  64.9984646  47.6229286  67.5627565  34.2322659
  46.8880701  67.3377800  34.8028851  47.2868490  68.2640553  33.6741829
  64.0224075  40.2980328  47.1192217  64.1828966  40.0446892  48.0282307
  63.5844374  39.5396066  46.7329597   0.4543113  11.4731884  57.2436333
   1.2331822  11.3156021  57.7772617  -0.2696715  11.1356652  57.7710438
  30.7134008  64.9895525  33.0774832  30.6391406  64.8024893  34.0132856
  30.8497977  65.9359121  33.0324936  35.4913354  71.9480371  51.4594173
  36.1509991  71.6223907  52.0718145  35.7708120  71.6147184  50.6067610
  32.4370523  74.2367632  13.9018893  33.3462473  74.2838949  14.1974819
  32.3199745  75.0183086  13.3617854  27.0758104  72.7123308  20.3025961
  26.7910218  73.5906458  20.0502372  27.5784779  72.8452110  21.1062765
  15.6706774  47.8455973  33.1917620  16.4089310  47.3243141  32.8763580
  14.8985219  47.3232508  32.9745913  68.4804249  20.1697707  31.0294771
  68.5690022  21.0303545  31.4390898  68.4098864  20.3562379  30.0932693
  58.6558867  10.4386830  15.0053430  57.7039623  10.3628528  15.0710917
  58.8282824  10.4823720  14.0648103  17.7722311  70.9460354  15.2867532
  18.3180416  70.6884813  14.5437932  18.2490766  71.6685581  15.6951725
   0.7395236  40.6467628  23.2155967   0.3696284  41.2655973  23.8452411
   1.2188633  40.0160933  23.7529254  17.7671254  58.5156202  56.6101742
  17.8554320  57.7780247  56.0065269  17.8695929  59.2906904  56.0579014
  20.8599448  48.6559439  38.7224412  21.6166925  49.2389107  38.7834239
  20.1233554  49.1872120  39.0247989  40.4922152  13.3187056  55.0287914
  40.9579182  14.1249084  54.8065519  41.1517048  12.6301026  54.9443436
  50.4605818   7.6538163   6.7363763  50.6122971   7.5080055   5.8025914
  51.3365793   7.6685548   7.1219188  76.3111591  22.0325089  57.4750614
  75.8392334  21.2886000  57.1007395  75.6520128  22.7229095  57.5464869
  27.7662253  30.6539893  54.4881535  28.5416222  31.0817885  54.8514462
  27.0590949  31.2847424  54.6236134  74.4308138  55.4548979  62.2495890
  73.8988018  56.2466383  62.3292112  74.6639919  55.2314043  63.1506491
  13.6613858  38.8520432  59.9391794  12.7746558  38.8686013  60.2992725
  13.5421407  39.0049791  59.0018320  62.4924850  13.5472524  34.0750647
  63.0853271  13.9669693  33.4516788  61.6676521  13.4572315  33.5978031
  74.2251635  13.1999016  10.2408862  73.8776302  14.0645707  10.4595113
  74.5109224  13.2797134   9.3308282  22.8359580  46.8311739  54.0873146
  23.5520864  46.9006014  53.4559870  22.0676517  47.1505022  53.6140633
  58.4841251  20.7114649   1.3335305  58.9293051  20.8062553   0.4914714
  57.5606918  20.8667541   1.1350745  24.3639612  48.8115740  34.2364192
  23.4668565  48.4936619  34.1346049  24.7436929  48.7416744  33.3605480
  56.3002157  31.9020867  14.1988409  56.3575029  31.4965439  13.3336902
  56.4158344  32.8376794  14.0329313  15.2449322  50.9664345  40.1048183
  14.8267007  50.9431267  39.2441368  15.3125405  50.0472546  40.3632259
  52.5929642  18.9348519  31.9133615  52.8904867  19.6054161  31.2984991
  53.3314371  18.3299375  31.9838500  61.4718866  27.9244637  21.6833472
  62.1538973  28.5446048  21.9412518  60.8774042  27.8967738  22.4330568
   4.6338230  20.0331807  46.3961983   4.1759944  20.2013111  45.5725765
   5.5324191  19.8329306  46.1341715  49.0783930  34.6095204   5.3307092
  48.9831257  35.5615926   5.3574055  49.7893333  34.4226670   5.9438044
   3.4266451  70.4502678  61.7707920   2.6463345  69.9015522  61.6917038
   3.0863065  71.3424110  61.8377542  21.2715697  58.8573647  45.3429317
  22.1520233  58.6919117  45.0058031  20.9049630  59.5092916  44.7455883
  58.6823511   5.0240344   1.0983566  58.4758615   5.6185585   0.3771527
  58.1860113   4.2291981   0.9031293  61.3601208  31.0035610   9.4669455
  60.6420135  31.4104176   9.9517357  62.0036745  30.7762647  10.1380718
  47.3035765  56.8589830  16.0366583  47.8400517  57.6515532  16.0526896
  47.4929237  56.4587212  15.1880300  67.9416370  10.7521176  27.2201061
  68.3268929   9.9916989  26.7847061  68.5739851  10.9846783  27.9000187
   5.6607348  66.5417576  40.7170582   4.7148159  66.4100027  40.6529474
   5.7780105  67.4868250  40.6205225  25.0406480  67.3558426  12.1322787
  25.2852321  67.2882032  13.0552280  25.3775907  66.5524530  11.7357087
   3.1066707  54.6395540  56.2773275   2.3842932  55.1553011  55.9189844
   3.3247155  55.0735331  57.1021605  19.5915639  62.3309326  28.4339952
  20.4719162  62.6939869  28.5309744  19.0180123  62.9824781  28.8374352
  37.7610159  17.0576227  53.1604528  38.0809522  16.3823402  52.5622320
  37.5925875  16.5917540  53.9794922  58.0579472  24.0391731   6.7559469
  58.7342262  24.5350647   7.2174340  58.3599997  23.1315875   6.7917687
  66.2354279  28.8001728  12.4690259  65.7925940  28.1572390  11.9151616
  67.0610571  28.3802342  12.7103066  36.4822054  13.9407349  17.3253667
  35.8907461  13.2165825  17.5303364  36.4189768  14.5232177  18.0822992
  54.1238546   4.4298267  21.7761135  55.0265932   4.3393752  21.4709759
  54.1988897   4.5039216  22.7274847   1.4891799  11.3236296  44.9770927
   2.4163926  11.1851227  44.7838974   1.0447878  11.1658072  44.1441250
  77.1854210  43.0021429  55.9055805  76.7908478  43.1259346  55.0423193
  76.8435669  43.7254477  56.4311266  69.1167243  26.4346713   0.0741883
  68.4092482  25.9901733  -0.3928546  69.6495386  25.7251472   0.4332324
  76.9721317  57.3554945   2.7789715  76.9456816  58.1809521   3.2628611
  76.7564154  56.6886663   3.4309214  57.9109669  64.0920877  10.4077470
  57.9652500  63.8729334  11.3379383  58.8224840  64.1758251  10.1278186
   6.8652874  68.4560251  58.9223051   6.3114417  68.4772301  59.7027159
   7.4069834  69.2421532  58.9916134  31.9991827  71.0517311  25.7945776
  32.4573398  71.4881563  25.0763464  31.1497450  70.8103228  25.4252386
  30.0106478  67.9451942  24.7075939  29.5350099  67.8728437  25.5350995
  29.3843889  67.6534796  24.0450740  26.2255883   4.5063707   3.7557679
  25.4348969   4.0713084   4.0747708  26.8668795   3.8015303   3.6653358
  73.7148476  49.4375181  63.1151438  73.4377909  49.8965263  63.9081049
  74.4837284  48.9354467  63.3852959  22.2388172  46.0933447  34.1866541
  22.9179239  45.4324102  34.0517116  22.4057484  46.4321661  35.0661778
  76.2983322  54.3719435  64.6301508  76.5236235  55.2417946  64.3002510
  77.0737362  54.0920496  65.1166105  74.8449898  59.3206358  60.5644369
  74.9716997  58.6719561  59.8720551  75.6369066  59.8576307  60.5373764
  60.0717545   6.7611688  49.0012074  59.7620344   6.8801844  48.1033516
  59.6512461   5.9528291  49.2944574  74.2788982  22.1647668   1.4574473
  73.4042931  22.4910498   1.6691928  74.6510267  21.9114137   2.3021756
  54.6378279   8.0108327  23.8286209  54.1453362   8.2416421  24.6162820
  54.7457218   7.0613033  23.8832593  13.8777204  75.0424919  41.3915014
  13.5127541  74.9496765  40.5114937  13.9693542  74.1440648  41.7087793
  52.8164053  25.6791258  19.7522867  53.4614277  26.2377238  20.1860476
  52.6647663  26.1006594  18.9063871  56.4737415  31.4360619  30.8427453
  56.7413664  31.1531758  31.7171526  56.2283134  30.6270123  30.3939319
  52.3779726  34.8052335  47.3693371  51.6458702  34.5754647  46.7970991
  52.4613571  34.0589690  47.9629421   1.9902810  45.6845093  61.0905218
   2.5472403  46.0592937  60.4082012   1.2500033  45.3073978  60.6151199
  14.6424174   5.2954268  60.2704763  14.7109234   5.8088845  59.4655561
  14.6580827   5.9465110  60.9719563  54.9654341   4.2606118  58.6069441
  54.2320251   4.7318128  59.0023088  54.5547581   3.5599872  58.1002855
   5.0396091   1.7396091  26.1838317   5.1498324   0.8178932  26.4173317
   4.8834905   2.1811548  27.0186329  77.4403858  64.4759417  43.2802200
  78.3863068  64.5154333  43.4213161  77.2829247  65.0685215  42.5451803
  60.3496218  38.9119434  14.6153247  60.2489567  38.7526655  15.5537963
  59.7721434  39.6537161  14.4349813   3.5664719  26.3990593  16.2937534
   3.4814408  27.3481154  16.3848054   2.8245795  26.0440421  16.7834377
  52.0003796  71.8227959  35.8545160  52.1966171  72.4529552  36.5477824
  51.2317133  71.3489580  36.1721063  60.6066895  28.8915753  12.4204266
  60.7464266  28.2190084  13.0870283  60.3340101  29.6650267  12.9140365
  31.6944051  13.4253681  21.4809227  31.2005901  12.6064062  21.5218878
  31.1500788  14.0069771  20.9501958   6.9196725  24.7029090  16.9653320
   6.5131152  25.1413918  17.7127779   7.1619177  25.4146123  16.3728559
   1.1188791  15.7454407  28.6045647   1.1346815  15.8429563  29.5566535
   1.9339851  16.1507928  28.3087206  63.5176468  58.6528921  33.6089969
  64.4345236  58.4045267  33.4911561  63.1441259  58.6148262  32.7285051
  38.1445694  14.4149387  64.3224621  37.9701304  13.4763217  64.2531776
  37.3554969  14.8314250  63.9758587  15.9511375  21.6630912  38.6455560
  16.7873704  21.2016487  38.5821915  15.8224416  22.0458770  37.7777171
  14.0868044  27.6411343  54.8575258  13.9447212  27.5398231  55.7986832
  14.2797923  28.5716844  54.7432375  79.0450910  51.4031172  38.5049868
  79.9062933  51.1445189  38.8331437  78.4270186  51.0253096  39.1306686
  20.4217938  21.1988229   0.2879687  20.2465419  22.0691699  -0.0698308
  19.5700387  20.7620973   0.2835770   6.4719725  47.1330595  39.6580863
   7.1358013  46.8047237  40.2645159   6.3607037  46.4281321  39.0201759
  51.7737055  37.9514241  16.9562840  52.6863718  37.6982117  16.8178618
  51.7089272  38.1083798  17.8983033  66.5609074  14.3395233  34.2214060
  67.4133968  14.7748101  34.2169905  66.2765741  14.3789542  35.1345515
   7.6914966  67.3374653  62.1583366   7.3212224  66.5615749  61.7374706
   7.0284051  68.0165815  62.0344687  57.9660177  42.9475403  21.9415951
  58.3001328  42.1191263  22.2855854  58.7083435  43.3290911  21.4729786
   5.8477318  26.2306857  26.2852287   4.9900895  26.0109472  26.6490912
   5.8885384  27.1860456  26.3282847  50.3754663  54.3991232  19.7993577
  49.6291351  53.8490534  20.0373459  50.0379658  54.9781513  19.1159427
  64.5894194  31.5281820  16.9040751  64.5971155  31.1228228  16.0369778
  64.2623234  32.4146676  16.7511487  21.9111466   3.8816702  51.6666365
  21.5229416   4.2994279  52.4354029  22.7694678   4.2957383  51.5768337
  25.2845001  73.9175224  54.9305916  26.1717010  73.6113644  54.7425032
  25.0635123  74.4813633  54.1893244  77.9385662  71.5157032  53.9630175
  77.0374680  71.6671181  53.6778402  77.9253483  70.6368637  54.3420839
  75.3033066  38.1989717  45.9404898  74.5461845  38.6159015  46.3517857
  75.2796841  37.2954106  46.2555265   9.4256812  53.6448860   9.6660328
   9.3629217  53.0136490  10.3828561   8.6039293  53.5442019   9.1855967
  31.1548734   8.4275120  49.2222834  30.2077246   8.5654241  49.2112017
  31.5254331   9.2987174  49.0811539  13.3490324  50.8462906  49.8646307
  13.2951617  50.1837873  50.5534077  13.8720560  50.4346275  49.1767263
  29.5749903  18.1804669  25.3704906  28.6572385  18.4459722  25.4294276
  29.7211623  18.0295408  24.4366360  24.2038727  10.7009125  50.0065374
  24.7553492   9.9193889  49.9701309  24.1914368  10.9423447  50.9327030
  29.3060732  70.5628920  60.3367233  29.7274709  71.1207294  60.9905386
  28.3711219  70.7429886  60.4350090  15.3276908  30.2242351   4.4587949
  15.2243471  29.6914601   5.2472758  14.8341179  31.0233450   4.6432981
  58.5122204  32.6574564  43.2176161  58.7522745  33.1781101  42.4511099
  57.9111624  33.2174778  43.7088776  51.5461826  63.4667397  22.5866151
  51.9552612  64.2642832  22.2507477  50.8396149  63.2812166  21.9680882
   8.5920244  15.7121003  27.0308638   9.1614377  15.0171947  26.7005539
   9.1145402  16.1511528  27.7020144  59.8656321  14.6917403   4.8015770
  59.6260738  14.7468436   3.8764793  60.3795815  13.8869870   4.8683745
  71.7503643  27.7580452   7.9146522  70.8079147  27.5912976   7.8999990
  72.1153307  27.1244454   7.2969270  72.7269363  48.4215164   8.1202060
  72.2332144  49.1185236   8.5522342  73.6432838  48.6790752   8.2212102
  70.1534605  66.3153315  22.0326543  69.3243551  66.5590906  21.6210771
  70.7394838  66.1293650  21.2990165  64.8090649   7.6994699   2.7968156
  65.2933693   8.1143928   3.5106239  65.1881170   8.0731374   2.0012513
  37.0072269  74.2696619  34.1577244  36.1259198  74.1077852  33.8210869
  37.1114683  73.6381960  34.8694968  54.4202662  64.1015196  27.4118638
  54.8364305  63.7795019  26.6122746  54.8700428  63.6389780  28.1189632
  44.5504570   1.9389188  25.2100730  44.3849277   1.1031196  24.7738719
  44.6414232   2.5684941  24.4948173  31.1368251  72.1828175  44.1466093
  30.3394270  71.8217564  43.7592793  30.8271027  72.8743124  44.7315359
  33.8456869  71.1803579  60.6145334  34.3335199  70.9283686  59.8304749
  33.7277246  70.3618622  61.0965967  74.0596819  23.4273744  13.8753378
  73.7140036  24.0909910  13.2783890  73.5882378  23.5739875  14.6953845
  60.8759022  69.5893860  62.9978991  60.8254480  68.6474371  63.1604338
  61.8139553  69.7756243  62.9578733   0.8592212  10.8429265  19.7928572
   0.6548975  10.9462261  18.8634419   1.4309365  11.5832353  19.9961233
  24.7811174  55.3329849  63.5383558  24.8615861  55.1461840  62.6030159
  24.7356486  56.2877703  63.5888672  65.7469452  74.2163155   2.6156345
  66.6977942  74.1793062   2.5119591  65.6089986  74.2134143   3.5628381
  63.1416464  40.3381395  43.3511543  62.8349352  41.2446737  43.3700800
  62.4809170  39.8514080  43.8438606  72.8407192   8.3227515  12.1957600
  73.7342167   8.6172616  12.0192432  72.8467560   8.0810922  13.1219327
  69.3874502  61.2953663  14.9440050  68.4622383  61.2631083  14.7007418
  69.7542477  60.4811764  14.5993543  51.3555431  14.3072784  18.8348854
  50.6436491  14.9137211  19.0390110  51.3613510  14.2578053  17.8789830
  24.9574852  17.1115863  30.7734060  24.7124910  16.2222230  31.0288310
  25.7737899  17.2797012  31.2441683   2.9133663  64.6048355  46.2694073
   3.4933817  64.7181606  47.0223856   2.1171400  65.0801611  46.5067291
  71.9235516  36.3615704  30.1552582  71.5490055  37.0346689  29.5870328
  71.7583704  36.6786337  31.0431886   9.7010493  55.7850313  23.3602023
  10.0568330  54.9640608  23.0201101   8.7549698  55.6423998  23.3888865
   4.7847065  34.5616603   9.5676208   5.2755916  35.3834033   9.5679522
   4.0633979  34.7133088  10.1783156  68.9086056   8.1363398   1.9977196
  69.4646788   8.5836339   2.6356405  69.1913652   7.2225219   2.0325993
  26.9064379  70.4773092   2.6844954  26.2051964  70.9678555   3.1132787
  27.6882792  70.6778574   3.1990191  55.1391840   3.7877414  35.0307846
  55.6750345   3.4702867  34.3039322  54.4904137   4.3582964  34.6187234
  36.3875294  64.9130630  15.5801916  37.3315430  64.8816442  15.4250038
  36.2444448  64.3096066  16.3092995  37.1215081  57.7537584  22.3431349
  36.4535856  57.2417736  22.7991843  37.7140665  57.0992088  21.9734454
   6.8733728  46.0758495  48.7640238   6.5951735  46.4792919  47.9417896
   6.6068995  46.6998529  49.4391870  40.4505730  22.8668761  58.5537815
  40.4831553  23.8235044  58.5484838  40.6322718  22.6260638  59.4622040
   8.8823777  44.2571068  38.0717516   9.1084033  44.0221739  37.1717787
   9.2551184  45.1304960  38.1921124  33.0902338  60.8451271  59.4066381
  32.2114301  60.7114887  59.7617149  33.2661104  61.7755842  59.5464468
  63.0028296   7.3959363  26.7489409  63.9404249   7.5862801  26.7790842
  62.9236650   6.6815150  26.1168289  61.3509703  74.3088102   6.3974690
  61.2949800  73.7713194   7.1875340  61.9286728  75.0323153   6.6404349
  72.3032570  71.3226366  39.1468477  72.9131651  71.3255739  39.8845720
  72.6584721  71.9719267  38.5398245  23.3337641   7.2901881  50.3242588
  22.7300596   7.7124023  49.7131062  22.8951979   7.3487419  51.1730623
  68.1803560  43.8046217  30.7702374  67.2763920  44.0964651  30.6523275
  68.6730003  44.6095896  30.9301329   2.0685437  42.5702572  31.6042900
   3.0245543  42.5619411  31.5573192   1.8642645  42.0975113  32.4111438
  62.5577259  15.2138615  27.8097677  62.5368214  15.3291655  28.7597680
  61.6489506  15.0318539  27.5705338  70.7387972  25.8771491  13.6746013
  70.0917006  25.2284789  13.9515936  71.2652922  25.4241157  13.0159724
  13.0406106  56.0001850  61.0491705  13.8752103  56.3136196  60.7006931
  12.4308991  56.7220163  60.8960485  23.0348897  74.2130804  49.2728186
  22.7601910  75.1022387  49.4967985  23.9599514  74.1796494  49.5164871
  13.8783801  14.5961499  41.2325382  13.5224426  13.8136828  40.8114862
  13.5930789  15.3193855  40.6741810  16.9026732  25.7007694  62.1828651
  17.2929728  26.5191460  61.8760157  17.6452100  25.1833916  62.4946213
  78.3336977  70.7606183  -0.0321607  78.0193667  69.9068056   0.2652188
  77.5426582  71.2944208  -0.1066045  22.0351386  46.0036039  20.0201488
  21.4995337  46.7135906  19.6661973  21.5534949  45.7011843  20.7900786
  53.3475113  23.2907009  16.2288475  53.5580158  23.2121038  17.1592999
  52.9894447  22.4353957  15.9912086  52.4364519  36.7931366   8.8743180
  52.3583603  37.6796746   9.2267108  52.8711081  36.2970781   9.5680267
  23.4861398  66.5983152  24.4128394  23.3498192  66.9950056  25.2732372
  24.3150091  66.9671774  24.1076398  57.4098110  54.4287252  11.5029097
  56.5093517  54.1368246  11.6450453  57.6625967  54.0290880  10.6706703
  76.2618017  12.3150945  41.8423939  76.4191294  11.4964688  42.3128510
  75.3875780  12.5874305  42.1213102  11.8073273  19.7444439  63.4907484
  12.4235439  19.7208464  62.7586603  10.9790957  20.0199819  63.0978823
  55.1952362  47.4158430   4.8452249  54.5198584  47.1903896   5.4849613
  55.9549427  47.6586866   5.3744745  78.2127523  18.7103415   4.1895688
  78.8741922  19.3604457   4.4264132  78.7157297  17.9678023   3.8550818
  50.7403564  17.1412098  15.3988636  51.4724731  16.7366230  15.8642054
  51.1529350  17.6614630  14.7094095  48.5239697  41.5726376   1.8213820
  47.9228783  42.3116159   1.7274335  48.9601660  41.5091801   0.9717124
  64.5258284  37.3679590  47.3477268  64.0286922  37.1883321  48.1457376
  64.0190458  36.9510555  46.6508818  78.5085440  12.6591814  51.8423605
  78.1791115  11.9818521  51.2516594  79.4203806  12.7837110  51.5791512
  64.0678644   7.6653391  12.0254254  64.5078707   8.2709718  11.4289093
  64.7153711   6.9803202  12.1918952  18.5693586  63.3996391  19.0820539
  18.6383510  63.1134272  19.9928534  19.4283450  63.7716961  18.8821900
   8.6281866  60.4188251  64.7247362   8.8224989  61.0570192  64.0383101
   8.8187456  59.5706463  64.3240881  70.9391546   6.4168698  12.4048257
  71.2582111   5.7056093  11.8493581  71.4456606   7.1811283  12.1298802
  32.6342295  42.7365164  -0.2374725  33.2760147  42.1299861   0.1319381
  32.0516894  42.9432343   0.4933806  59.4099855  31.9178891  11.1138248
  59.5079613  31.5664387  11.9987631  58.4934759  31.7544055  10.8912981
  26.7135358   2.7438569  16.1997700  26.5869498   2.1392122  16.9309425
  27.1755600   3.4895259  16.5828395  11.6991735  27.1475935  23.7697291
  12.1400118  26.7814112  23.0030465  12.1721351  27.9593515  23.9529991
  48.8180447  35.9055638  57.8048897  49.0122414  36.1702299  56.9057369
  48.6170769  36.7246675  58.2575607   7.8238213  19.1727185  35.1842523
   6.9950581  19.6452582  35.1062179   7.5875980  18.3411109  35.5951762
  38.3789778  63.4142685  32.0479560  38.1975913  63.7422657  32.9287243
  37.6905274  62.7692413  31.8860865  79.0312004  23.7051439  39.2772317
  78.2578707  24.0740490  39.7039676  78.7241364  23.4444332  38.4089136
  66.7885542  36.8553472  42.9648495  67.7016306  36.6704249  43.1846714
  66.3036108  36.1024976  43.3029032   5.9156495  28.8936663  31.8565273
   5.0266904  29.2404914  31.7810559   6.0040855  28.6604071  32.7806497
  73.8700008  43.9625883  45.5865622  73.8399124  44.6919632  46.2057066
  74.3497467  44.3073606  44.8334312  48.4554625  31.5846825  17.6848924
  49.3508673  31.3116169  17.4850929  48.5224867  32.5257444  17.8465760
  65.9827995  35.7269263  20.3229022  65.8779430  34.8656225  20.7271194
  66.2508774  35.5383968  19.4235563  16.8728375  54.8117065  13.7234199
  17.7178240  55.0109959  14.1265523  16.2607014  55.4204750  14.1368449
  77.6305056  45.0124741  26.3420653  77.3261833  45.7234621  26.9060850
  76.9722891  44.9579000  25.6492400  27.3819208  66.7063522  17.1429217
  26.5912509  66.8718624  17.6564193  28.0699873  66.5807819  17.7963960
  57.8346443  27.6167202  50.6079340  57.8445959  28.4398413  50.1194620
  58.2483244  26.9844532  50.0202751  11.9161797  47.1581507  35.0825596
  12.1406698  46.6045618  35.8304739  10.9935880  46.9681978  34.9123454
  44.6946478  11.5624499  10.6706250  43.9564800  11.4741266  11.2735665
  45.3279781  12.1013176  11.1446965   5.9571755  66.8869162  56.4518118
   6.0434932  66.6929865  57.3851776   5.3349560  67.6133442  56.4146566
  12.0522638  74.3591597   4.3283415  12.5831219  75.1483359   4.2205337
  12.6338550  73.7371480   4.7654739  33.3934760  53.4250069  28.7264347
  33.6841059  53.5664177  27.8254509  34.1984940  53.4460402  29.2438674
  45.9462929   1.6808997   6.5874714  46.2901783   0.9565590   7.1102566
  45.0311947   1.7578447   6.8574923  53.7129021  60.2167797  14.3410480
  53.5595989  60.4778051  13.4329760  54.3305492  60.8667755  14.6760857
  53.5332966   2.6209077   1.9046170  53.3325195   3.5208863   1.6477926
  54.1972971   2.3352388   1.2771395  18.4116983  63.3231068  44.8854446
  19.1739488  62.8483248  44.5541048  18.7813759  64.0588903  45.3735018
  36.5636420  40.9164238   2.5974622  37.2465968  40.2457905   2.6048759
  36.9643545  41.6614008   2.1495058  57.7329445  23.3093262  17.8437769
  58.4399891  23.0180192  17.2680533  57.1797562  22.5359678  17.9539311
  53.4022903   9.2995489   5.3680271  53.4014034   8.3623320   5.5625916
  52.7415085   9.6666950   5.9552294   2.6736262  62.2405434   3.4245288
   2.6278895  61.7595577   4.2508417   3.5999331  62.4610329   3.3266941
  19.9485433  46.0593700  52.5018454  20.2121067  46.6651058  51.8091345
  18.9920402  46.0958624  52.5007868  11.1584640  38.4959078  50.9711266
  10.7963336  38.1683779  50.1478291  10.7879722  39.3736672  51.0633564
  63.8838768  13.7642014  52.1464443  63.1576347  13.2700574  52.5267315
  64.1824293  14.3345439  52.8548288  26.0810038  74.1975653  50.2857161
  25.8558174  73.3800853  50.7298470  27.0338293  74.2544256  50.3572845
  45.7307271  74.2904459   0.2351828  44.8922125  74.4656645   0.6622906
  46.3440470  74.1559587   0.9576674  64.6043587  25.8962107  23.0793262
  64.2884874  25.5384994  22.2495675  64.5298481  25.1691437  23.6974287
  47.3613548  74.5800686   8.4024626  47.5606585  73.7878656   7.9035378
  48.2115221  74.8818159   8.7224579  67.8192186  26.5666699   4.6250340
  68.1942129  26.8504286   3.7913117  67.4857664  27.3705125   5.0236279
  12.1010065  18.6301494  49.2908335  12.6583815  17.8522182  49.2711258
  11.9920528  18.8232028  50.2220106  23.0118299  24.9622583   5.8157486
  23.6255431  24.8863721   6.5463847  22.7933311  24.0577006   5.5915469
  20.0391555  71.9840813  21.0048819  19.5817089  71.9903231  21.8456769
  19.9406230  71.0872173  20.6852579   5.0235194  64.5760345  26.1207080
   5.3758222  65.1965332  26.7587519   4.8706704  65.1011372  25.3351259
  56.1924648  15.0875616  28.0317020  55.4451323  14.4906747  28.0698347
  56.9540691  14.5130777  27.9532099  63.6166430  48.2925367  63.1896353
  63.1250477  47.4812031  63.3173466  63.8176203  48.5928583  64.0760040
  10.2937031  16.1224520   4.4583315   9.9140686  15.4792583   3.8596570
   9.8462373  15.9685397   5.2903873  52.2914791  35.6803679  12.9920447
  52.0448542  34.8278427  12.6334238  52.7048445  36.1377311  12.2598004
  54.4423866  63.7910223  51.9873810  53.5138559  63.6124420  51.8384695
  54.6438932  64.5181847  51.3984299  29.2850995  61.4002609  44.5610476
  29.5956683  61.2323427  45.4507589  29.8443913  62.1084309  44.2417955
  70.7741213  38.6985826  35.5523968  70.1355886  38.5755873  36.2548041
  70.9827280  37.8112435  35.2602625  19.3939686  50.2674437  49.9586344
  18.4924495  50.5221796  50.1551151  19.4468117  50.2913904  49.0031958
   5.0400478  51.6223764  15.2980185   4.4085002  51.5981245  14.5791364
   5.8527434  51.9249058  14.8927605  65.7850027  33.4530067  37.5123930
  66.1865664  34.1675282  38.0067968  66.5151787  32.8750968  37.2908187
  48.8603020  11.9094443   3.5470024  49.4376326  12.0789516   4.2914397
  48.8554907  10.9562361   3.4598121  15.8619964  63.3562660  54.1211939
  15.4067588  63.9164925  53.4925938  16.3615739  62.7452755  53.5795832
  63.6039829  58.2805920  63.3168459  62.8682089  57.6686144  63.3355999
  64.2991114  57.8055143  62.8615141  46.5111589   5.7376325  19.7463739
  46.6212749   5.1197439  20.4690909  45.6452513   6.1201727  19.8881400
  48.1264067  63.6186504  10.0548947  47.7144194  64.3654108  10.4894531
  49.0239382  63.9051771   9.8858595  35.3519297  55.4180002  31.1949897
  34.9414659  56.1660147  30.7611346  35.8311749  54.9701452  30.4978657
  29.7306871  49.7621346   1.8842320  30.6096125  50.1343536   1.8122783
  29.2211318  50.4363251   2.3337391  22.6570392  17.4075103  29.2520380
  23.3792472  17.1738875  29.8351908  21.9635153  16.7841387  29.4680619
  50.5374765  60.3983831  18.9306343  49.8899317  59.9096632  18.4226263
  50.2418375  60.3166914  19.8373628  72.5817823  68.4693527  48.7861204
  71.9191074  68.7677240  49.4090748  73.1698561  69.2178297  48.6851835
   1.9456762  31.8315530  32.9517889   2.5412065  32.5237703  32.6647186
   1.2939125  31.7714286  32.2533464  22.1094704  72.2611332  44.4037437
  22.2766352  72.0598841  45.3244972  21.6064596  73.0752563  44.4240141
   8.9640677  73.0326319  45.6683969   9.5393860  72.7683544  44.9504852
   9.4010562  72.7101994  46.4566326  71.2803459  40.0591755  41.5310383
  70.9179783  40.9266806  41.3511467  71.5992355  40.1148987  42.4318361
  72.1568727  14.2137682  50.8342314  72.1848679  13.2591736  50.7694340
  72.3690224  14.5200098  49.9525070   7.6542169  32.3554897  24.7497678
   7.8937799  33.2516360  24.9859095   7.0345092  32.4557328  24.0271711
  49.1220474   6.1020958   8.5729200  48.6091852   5.4443228   8.1033075
  49.7947645   6.3723511   7.9479003  32.1680880  57.1697712  51.3918781
  31.4301682  57.2405195  50.7863235  32.8624153  56.7593384  50.8764315
  63.5565329  30.3107023  10.8317637  64.2374468  30.2100778  10.1665843
  63.4665442  29.4387317  11.2162101   2.7393395  55.9561062  48.1855106
   3.6013484  55.7359362  47.8323841   2.2150600  55.1673794  48.0466986
  78.8306236  57.3105240  48.1432629  79.7755480  57.2645473  48.2889986
  78.7380028  57.3820639  47.1932411  49.7235394  74.4228315  37.2926807
  48.8318920  74.7633410  37.2202349  50.1245403  74.9470901  37.9859233
  73.7588501   8.5813135  27.2248220  74.2417955   7.9005963  26.7561913
  73.8848591   9.3703467  26.6977739  69.6847677  32.8946042  48.0510092
  70.1381159  33.1002378  48.8685799  70.3762007  32.8868818  47.3891258
  13.8201356  62.6527071  47.0656204  14.2594981  63.2740498  46.4849997
  13.8926709  61.8113375  46.6149902  53.5442209   4.0092459   6.8697977
  53.4022474   4.1336593   7.8081989  54.4777536   3.8121998   6.7928493
  51.9658562  75.0481279  15.7966614  52.3526951  74.4395693  15.1671815
  52.0971676  74.6287393  16.6470158  36.3064694  71.6559076   8.2429475
  36.1914110  71.9065380   7.3263359  36.5169358  72.4753284   8.6907029
  46.9501209  58.3041000  12.4999070  47.2888708  57.4331903  12.7072680
  46.8031216  58.7132120  13.3526969  12.8053558  44.8510027  41.6804266
  12.8415823  45.0162601  42.6225615  12.7896905  45.7224846  41.2848234
  66.2885332  51.8230343  39.5529222  66.1811876  52.2690725  38.7128258
  65.5918264  51.1667967  39.5664215  21.0871243   5.7611930  62.5039911
  21.2757277   6.6585666  62.7785492  21.4424944   5.7023591  61.6171503
   0.0300739  52.8119516  47.3999834   0.3184226  51.9648743  47.0600605
  -0.2453982  53.3001804  46.6241074  15.8876705  62.3307276  56.5415287
  15.5536413  61.5387821  56.1202526  15.9583640  62.9683161  55.8310938
  72.0350647  11.5385628  50.2769423  72.6401901  11.5646160  49.5357418
  72.1749067  10.6771290  50.6701422  41.0208988  54.9581671  62.2682381
  40.4110622  54.2535162  62.0496178  41.2679720  54.7877026  63.1771517
  12.2035456  44.9319553  55.3647089  12.2821057  44.1537142  55.9164333
  11.9972539  44.5892239  54.4951057  50.9401751  44.1039181   1.2429013
  51.1217976  44.7067261   0.5218808  49.9866295  44.0207672   1.2511608
  77.4637413  46.2001371  46.4329672  76.6452503  46.6182756  46.1656332
  77.2383404  45.2753830  46.5342426  38.7513137  11.0561824  49.7495031
  39.0731454  11.3404512  50.6049871  39.4062638  10.4287195  49.4436216
  55.9026337   8.6134386  17.5376856  55.6714869   7.8025728  17.9907870
  56.0863256   9.2366123  18.2406390  10.5288994  59.9317789   5.4366016
  10.7679880  59.3982077   4.6787298   9.5784068  59.8405504   5.5034786
   2.1383178  21.2729192  55.3303909   1.4774889  21.2898135  56.0226727
   1.7493661  21.7769814  54.6156406  70.8770180  62.8506041  39.2444992
  70.2512598  62.8078175  39.9675703  70.3545570  63.1271935  38.4916592
  45.1965475  20.1978064   6.0984641  45.0114822  19.6848452   5.3117913
  45.4411316  21.0624313   5.7685667  62.0786476   6.1499333   9.2754132
  62.4578857   5.5795902   9.9440825  62.1649408   5.6544554   8.4609890
  63.4775496  53.2823658  61.8345308  63.6416960  53.2875490  62.7775383
  63.7313128  52.4036980  61.5520716  65.0486088  52.8382730  49.5524836
  64.8216820  51.9084072  49.5616817  64.5384741  53.2021618  48.8288975
  11.8640172  51.7217016  57.3429203  12.0804024  52.0162821  58.2275867
  10.9150076  51.5975714  57.3572254   1.5868004  48.7289572  48.0843544
   2.3752102  48.5142899  47.5857973   0.9098386  48.1593943  47.7189112
  16.4714193  67.5480223  29.4525862  16.3883710  66.6631269  29.0972042
  16.3067746  67.4460840  30.3899932  29.9090528  59.2794037  47.5667286
  29.2868209  59.8136091  48.0603695  29.3709731  58.6018896  47.1572447
  41.5292263  71.1763191  25.6245971  41.2776327  71.2141848  26.5473652
  40.6980610  71.1659956  25.1499534   4.9065804  10.3593218   2.2399412
   5.0314319   9.4373673   2.4649835   4.3327144  10.3433180   1.4740083
  19.5662999  53.3272743  44.2380524  19.0206921  52.5408697  44.2276096
  19.0507269  53.9827490  43.7681913   3.6030379  31.0905004  29.5643044
   3.8788593  30.3076243  30.0410175   3.7817192  31.8128943  30.1663423
  41.7878294   1.1082207   8.4750092  42.1268177   1.2595379   7.5927275
  40.8967924   0.7867561   8.3373708   2.5995702  27.6963425  27.3343253
   1.9078282  27.0541120  27.4932742   3.3702755  27.3306561  27.7685118
  16.8613493  67.5838661  19.5875609  17.3377800  66.9522572  20.1263666
  16.0773122  67.7897072  20.0966263   0.9728557  53.9407015  58.4002352
   1.9143379  54.1082239  58.3580446   0.8618646  53.0893517  57.9770136
  76.0771465  66.0556555  45.4055309  76.1213636  65.4427624  44.6716070
  76.6999722  66.7462254  45.1787424  13.9942122  40.9306097  36.2691069
  14.0120625  41.7838669  36.7025375  13.7086689  40.3218412  36.9503546
  18.3827126  54.0355253  39.0084004  18.5300088  54.7420263  38.3795977
  17.4353707  54.0304041  39.1453338   6.3985270  71.4839888  34.0636349
   6.9935870  71.3297701  33.3299112   5.5323982  71.2657022  33.7195373
  68.9810896  44.2425537  16.3121021  69.2724228  45.1005888  16.6205275
  68.0902004  44.3916893  15.9953964  40.9747410  50.6102514  18.2987952
  41.4539957  50.0152636  17.7221406  40.6026936  51.2667084  17.7098286
  39.1553402   3.8619095  58.4173584  39.9629331   3.3935365  58.2060480
  39.0677190   3.7721899  59.3663073  15.3670061  58.4639120  34.5937204
  15.9966278  59.1483545  34.3671155  14.5394659  58.7663651  34.2196441
  20.3044629  20.1924896  63.6323404  19.5390642  20.0683141  64.1935682
  20.0164175  19.9024093  62.7668285  13.9212596   7.1253049  62.3084164
  13.9002395   6.6268504  63.1253242  13.0645537   7.5500315  62.2648859
  31.0009575  68.5288763  60.0552940  30.2784657  69.1195965  60.2681017
  31.5808010  69.0500307  59.4999409  11.2563550  14.4831419  -0.3466991
  10.9276557  13.8121593   0.2516076  11.1215484  15.3075635   0.1206211
   0.6617448  55.4113626  54.3849468   1.3809627  56.0212708  54.5491600
   0.6440793  55.3126001  53.4330177  60.2467299  19.8925543  64.0953350
  59.7714233  19.1208100  63.7875652  60.3818178  20.4203057  63.3082771
  50.4875135   8.8719910  60.7912683  51.3125706   8.6699587  61.2325048
  49.8113203   8.6082840  61.4153290  55.5244350  16.4155662  18.2587564
  55.1293421  17.2086561  17.8966224  54.8995638  16.1168957  18.9194846
   6.5845096  39.1290736  54.9148798   5.7578838  39.4445872  54.5496750
   7.2586036  39.5683193  54.3963289  30.3177333  12.1847248  63.0880737
  29.7680473  12.3435080  63.8554478  31.1436081  12.6245320  63.2898998
   0.6483794   3.0154616  43.0213976   1.6017073   3.0514336  43.0995226
   0.3280626   3.2265878  43.8983583  66.1041737  28.8869286   5.4349941
  66.4454603  29.5545912   6.0299563  65.3653049  28.5015631   5.9059501
  43.3384180   0.5188142   5.6551039  43.0037546   0.2453953   4.8010129
  43.5953951  -0.2973610   6.0841179  20.9714413  53.7438393  49.9573231
  20.9801674  54.6871758  49.7952509  20.7288408  53.3584070  49.1154099
  75.5868530  16.9328165  52.4326372  76.3060427  16.4964771  51.9759035
  74.9382067  17.1038425  51.7498159  50.9246683  30.8017802  17.7309155
  51.3240623  30.8929491  18.5960197  51.5571785  31.1987019  17.1320665
  46.6274357  74.2791080  35.3590393  47.5504971  74.4667482  35.1887989
  46.1947060  74.4223976  34.5173502  17.7332056  47.8875971   4.3865156
  17.8353310  46.9410944   4.2868218  17.0076156  48.1128550   3.8042694
  76.8730402  52.7627420  16.0234320  76.6709995  53.4815454  15.4244912
  77.3038483  52.1075058  15.4745221  58.1232691  69.9714422  56.2699413
  57.3968935  70.5672169  56.0864639  58.8230705  70.5392170  56.5926504
   2.0378844   1.9128864  39.4766188   2.6519006   1.3436361  39.0127563
   2.0460324   1.5901323  40.3777266   7.0470905  43.2335520  42.4952126
   6.6705501  42.3536730  42.4792433   7.0251024  43.4867764  43.4180450
   0.4987609  30.2049828  10.7674611   1.4119448  30.3750348  10.5363560
   0.5460164  29.5518780  11.4656377  32.8576493  62.7673817  36.8136978
  33.3978677  62.1323919  37.2839975  32.3278236  63.1819820  37.4945974
   0.7368787  73.1198931  19.1658485  -0.1661146  72.8111410  19.2400622
   0.8512320  73.3038759  18.2334828   1.8471944  16.9602740  41.3066864
   1.8187636  17.3264861  42.1906042   2.7037644  17.2198176  40.9673357
  26.0587645  70.0548553  44.4261312  26.7336416  69.7295141  43.8303757
  26.1046481  69.4698763  45.1823902  28.9626384   9.1720724  53.7732792
  29.1414762   9.6675658  52.9740715  29.3783426   8.3224529  53.6264133
  54.9897480  29.6592760  18.0013227  55.7321882  29.0552449  17.9885650
  55.1282120  30.1924825  18.7841070  67.3878002  52.1604538  59.7812366
  67.1737385  52.9991674  59.3726158  67.7323294  52.3948717  60.6429672
  67.7111053  43.0476809  49.8111916  66.9709873  43.5404634  50.1656294
  67.3096895  42.3766756  49.2590618  10.9021521  14.0185881  63.3223248
  10.6139779  14.8652041  63.6635447  11.5803182  13.7320733  63.9340687
  58.6070919  69.8566389  52.7607632  59.1459942  69.3537378  52.1500969
  58.8946342  69.5686245  53.6271334  49.3551540   3.1465453  28.5776138
  48.8165092   2.6815677  27.9373884  49.0842247   4.0612587  28.4993172
  67.0524549  63.0454016  61.5656710  67.6399565  62.5135040  62.1024752
  67.6117516  63.3931923  60.8710814  40.9574366  49.2241669  50.2544117
  40.5890369  48.3462620  50.3533554  40.7784271  49.6546507  51.0903978
  31.9597173  60.1502228  40.6253433  31.9220924  61.1042738  40.5575228
  31.8076301  59.8404551  39.7325158  43.7184858  12.3263919  51.8726063
  43.2500076  12.1588111  51.0548782  44.3378305  11.6003621  51.9469357
  21.3099027  69.3302393  37.4897885  20.7193613  68.7837934  38.0083323
  20.8546543  69.4510174  36.6564870  23.4329224  67.7436876  46.3911104
  24.3630004  67.7707863  46.1665010  23.4178853  67.7318192  47.3481178
  79.2022657  30.0104165   5.3544474  78.4687567  29.8791432   5.9552532
  79.3186283  29.1607571   4.9292785  52.8472757  14.4806921  54.2735672
  53.0540323  13.5710287  54.4880390  52.6357174  14.4645727  53.3401775
  64.3211603  65.4723835  51.6979837  65.0562239  65.3630018  51.0947037
  64.5204687  64.8853350  52.4272919  43.4841251  64.9664545  23.3987522
  43.3336687  64.4388103  24.1830921  43.4876680  65.8699226  23.7149191
  31.8474293  66.4390182  42.7169132  31.1929297  66.3364220  43.4078074
  31.5752602  65.8238888  42.0359039  66.1590815  16.4820254  30.5221534
  65.2018929  16.4798689  30.5259275  66.3950968  17.3125184  30.1088595
  58.2275295  20.9384394  25.9393716  57.5412703  21.3051605  26.4968610
  59.0348244  21.0669684  26.4373517  33.8901925  64.7500086  49.4289684
  34.7297883  65.2094650  49.4142914  34.1157269  63.8337517  49.2682171
  22.1061707  56.5935516  31.6696000  22.1785951  57.4901772  31.3424206
  22.0391917  56.0554409  30.8808136  71.8637323  26.7915678   1.8281762
  71.9154358  27.4508071   1.1361046  72.3202753  27.1873617   2.5705683
  72.6745892  20.7203531  16.0442960  73.2874060  20.3037930  15.4383564
  73.2219124  21.2906647  16.5841222   1.9383052  12.0032275   8.0284560
   1.4142251  11.2472641   8.2932043   2.6738667  12.0110559   8.6409259
  35.0485134  52.0940733  61.0727549  35.4809284  51.2410736  61.1132622
  34.6141076  52.1829128  61.9210625  26.7927933  69.2967606  51.6324568
  27.3777390  69.6623993  50.9688520  27.3230147  69.2668486  52.4288273
   5.5949897  67.2720480  29.3579769   5.8344293  68.0295181  28.8239932
   4.7876590  67.5357914  29.7994375  60.8629560  51.0716200   4.3249929
  61.3122225  51.7537498   3.8259023  60.3842878  51.5474176   5.0037616
  26.7976952  33.0040312  62.1157074  26.6145539  32.7837634  61.2023783
  26.5206051  32.2316623  62.6085615  65.7606316   5.0142598   2.8306162
  65.5503273   5.9369498   2.6869202  65.2700806   4.5485103   2.1533656
  56.8590593  34.8021913  63.0012894  57.3852491  35.5741453  62.7928638
  57.4981451  34.1420150  63.2695580  66.0535431  29.6858501  31.1494660
  66.8199778  29.7951889  30.5865669  65.5957651  30.5248117  31.0964108
  77.3735285  58.3180761   8.0195737  78.1655979  58.0978680   7.5293040
  77.6917934  58.7883234   8.7901634  57.6983500  37.2612524   5.3579241
  57.1093750  37.2545981   6.1124420  58.4940147  37.6856565   5.6789088
  15.1096427  28.2859015  25.7429862  15.6897140  28.8702536  25.2548456
  14.9382508  28.7487912  26.5631008   8.7286836  39.6821046   3.9192808
   8.4799773  40.3800821   3.3133084   7.9108149  39.2185235   4.0993196
  38.7559104  37.6773620  59.6877718  38.1042194  38.3651924  59.8234987
  38.8671184  37.2790742  60.5510426  14.1422915  16.8590486  49.9779654
  13.6987698  16.6724658  50.8054352  15.0100124  17.1699476  50.2361012
  11.2748289  31.9998622   3.9676049  11.3680863  32.2712851   3.0544436
  10.8799899  31.1292148   3.9195567  38.7218308  67.7817059  42.8951454
  39.4366717  67.6547003  42.2713661  38.3632517  68.6418819  42.6766253
  46.5018606  12.0442796  56.1614752  46.1966276  11.1990881  56.4911985
  47.3366690  11.8481445  55.7362032  45.2464437  19.1356087  60.0035477
  45.2475214  18.3199322  60.5044508  44.7640753  18.9250624  59.2040348
  14.6487343  47.7728462   7.6189631  14.5404792  48.6924028   7.3762238
  14.2074585  47.2875547   6.9218254  55.8212423  29.3691778  39.4828010
  56.2868261  28.7776327  40.0740194  55.6022739  30.1267099  40.0254154
  39.8087406  53.8178062  50.5580664  40.1263094  53.4415913  51.3789463
  39.2747831  53.1256580  50.1681328  10.9817660  61.7320061  32.2909927
  10.1707435  61.7146540  31.7828870  10.6933916  61.7064762  33.2033634
  66.5400696  28.5104394   1.0023165  65.9693813  29.0021539   0.4117548
  66.1330175  27.6463318   1.0644069   7.1526855  60.4848766  24.4061184
   8.0071765  60.1992989  24.7294140   6.7388946  59.6843052  24.0834808
  73.9776039  30.0816464  32.2948813  73.3067656  29.6963358  32.8585672
  74.7930717  29.9726105  32.7841210  74.8720837   8.1137937  34.1689968
  75.0795555   8.5721874  33.3547091  74.0569973   8.5159290  34.4692492
  21.0701752  40.2741957   5.5717045  21.9074607  39.8293185   5.4403031
  20.5074477  39.6119356   5.9729290  70.0393105   1.8436442  12.1616042
  70.4844522   0.9997713  12.2387993  70.4870701   2.2855175  11.4401543
  25.4942441  21.1503243  54.8583317  26.0914326  20.4033732  54.8991251
  26.0399389  21.9055176  55.0777197  16.4870501  67.4046659  60.5996943
  17.1279895  67.8784227  60.0696135  17.0008039  67.0207071  61.3102293
   2.8933442  62.2819853  60.8110046   3.3234864  63.0677700  60.4737377
   2.1778180  62.1182156  60.1966476   6.8651497  31.0710335  29.9678302
   7.2758645  30.3919125  29.4327211   6.5621454  30.6093359  30.7496572
  72.5113678  42.0526361  50.8687639  72.1600723  41.1812019  50.6859493
  71.7372990  42.6065540  50.9698963  34.3875813   7.9445350  56.8698740
  34.3310046   7.0182085  57.1042919  33.5261011   8.1532151  56.5085745
   2.0265120  14.3582547  25.3979373   1.1830888  14.0483284  25.7278085
   1.8367121  15.2202201  25.0274992  39.1670132  55.5219364  34.0833473
  39.6247220  55.9645891  34.7980452  39.6051025  54.6743011  34.0069890
  13.4418678  45.3023624  60.5769873  14.2703331  45.2607203  60.0993443
  13.5204256  46.0831070  61.1251640  49.9522066  64.1279316  13.7145805
  49.8979092  63.5444593  14.4714451  50.8881712  64.1840696  13.5220921
  11.8987703  58.6020231  61.0286999  11.7001832  59.5369244  60.9762526
  11.6173434  58.3463001  61.9071293  72.0805120  13.8764155   0.3896354
  72.2022200  13.3984458   1.2099791  72.6687145  13.4436822  -0.2292296
  25.6888103   8.8815004   8.1528145  25.0005293   8.5145062   7.5980043
  25.3015542   9.6755785   8.5211945   7.2200245  25.7366729   9.2230362
   6.3330352  25.8563542   8.8836867   7.1000403  25.5939364  10.1618981
  24.0270782  72.3520374  13.0970657  24.6653795  72.8382635  12.5751615
  23.7201858  71.6576481  12.5140798  20.5234671  27.6871896  -0.3248570
  20.6697631  27.2116637   0.4928862  19.7676480  28.2462764  -0.1448817
  42.2625160   9.2456740  24.2896128  42.7451611   9.0638733  23.4832382
  42.7550220   9.9507773  24.7097349  58.7436152  15.9318268  42.4334574
  59.4433022  15.2990878  42.2712469  58.6542368  16.4070892  41.6073990
  64.1906261   5.7679993  53.9847612  63.5934067   6.5141344  53.9314747
  64.9470282   6.0286450  53.4592628   9.1405398  21.8526030  63.5566998
   8.5890639  21.3299346  64.1388702   9.4592714  22.5679612  64.1070652
   8.7022883  25.8150768   3.2657933   8.2721317  25.2042270   2.6674128
   9.5807153  25.9276175   2.9025689  34.6215367  10.7106936   2.1292645
  34.5755196   9.8578399   2.5614166  35.5409360  10.9668553   2.2021897
  15.1481712  50.5879116  12.7539718  14.5396721  51.0055780  12.1444499
  15.6596279  49.9894762  12.2094369  66.3326120   1.8823428  47.4605989
  66.6110897   2.6166895  48.0077887  66.4051342   1.1173525  48.0313540
  17.4384201  45.5996561  15.4754472  17.2309339  45.9479380  14.6083379
  17.4694932  46.3705254  16.0420382  69.1688538   5.6916046  45.0074244
  68.2307148   5.5105668  44.9495316  69.2702913   6.5581977  44.6137762
  67.3377609  67.0107365   6.4491308  66.4332867  67.1932077   6.7038172
  67.3897886  66.0554552   6.4181405   8.9031965  46.2031031  44.4462776
   9.6047151  45.5530453  44.4853878   9.3449312  47.0181465  44.2079353
  24.3236208  54.9241304  21.4589262  24.1239977  55.3600836  20.6304789
  24.0054774  54.0290403  21.3413000  76.7714643   5.5777740  59.6523046
  75.9638834   5.7319862  59.1621399  77.3401308   6.3097399  59.4133949
  41.0214992  74.7876015  27.4135447  41.8378826  74.7463562  26.9155025
  41.2816711  74.6016187  28.3157372   9.2600399   9.7283334  63.5832262
   9.3323994  10.4916358  63.0101919   8.8355380  10.0616813  64.3737364
  31.4180255  63.3351421  30.9931874  31.2220740  63.9042854  31.7374372
  32.1539092  62.7991199  31.2888026  67.5465584  21.4920259  21.8004847
  68.4380627  21.3409281  22.1145320  67.4800253  20.9636331  21.0051203
  69.9817991  68.6226606  53.0396366  70.5076981  69.2561340  53.5278749
  69.6398926  68.0292130  53.7083292  73.5860634  71.1734295  15.9907091
  72.7441454  70.7933569  16.2416077  73.7392426  71.8634272  16.6362059
  72.8546190   2.9416195  56.5595913  73.0806828   3.2180431  57.4476862
  73.6966896   2.8650156  56.1109400   5.6751007  61.1757183  62.0813131
   6.5060759  61.6492319  62.1199751   5.0102019  61.8452549  62.2421312
  12.4474287  12.3899221  51.8324471  13.2757449  12.8518414  51.9618845
  11.8297565  12.8396368  52.4090481  33.7029743  47.4802351   0.7123784
  33.9557433  46.8110132   1.3483688  33.2294989  48.1334877   1.2274634
  74.2705059  11.6894031  48.7073183  74.3516970  12.2079158  47.9068279
  74.3959475  10.7848370  48.4205151  59.9460459   0.7995223  22.3377895
  60.1941967   1.1596346  23.1892419  60.2679300   1.4402820  21.7037177
  34.0867257  63.3629942  55.0032473  34.9804330  63.0744886  55.1883984
  33.5329390  62.6595545  55.3419495  74.2590523  66.4204168  40.7920074
  73.4411955  65.9448671  40.9375668  74.1282988  67.2614384  41.2299776
   5.7623094  56.1096001  59.9830055   6.4614147  55.6590748  60.4568291
   6.0584658  57.0180416  59.9259615   1.2370368  51.9348717  61.3030386
   0.5089255  52.5306845  61.1267233   0.9048720  51.3442135  61.9790745
  60.3042650  23.3309698  57.2546339  60.0391865  24.2088795  57.5289345
  61.2540674  23.3889866  57.1510029  14.3079615  55.4760075   2.0906872
  15.1507425  55.7067490   1.6999064  14.5364261  54.9933481   2.8850907
  22.0890903  54.3699169   9.8498338  21.3372207  54.9093819  10.0945747
  21.8686104  53.4939575  10.1665676  75.6692839  20.9227180  48.0082417
  75.7664299  20.7664037  48.9475822  76.5627956  21.0638404  47.6952553
  79.0765114  53.2907677  50.2539825  79.5515394  52.4725771  50.3993988
  78.9080050  53.3056927  49.3118477  18.3359706  34.2171216  54.9995279
  18.2215858  33.3282208  55.3356886  18.7550342  34.6924257  55.7169580
  68.5445118  36.2883592  12.1141481  68.8747311  35.4232955  11.8715537
  69.2795277  36.8795705  11.9514930   8.8390058   4.5205173  40.5262280
   9.3961120   4.5195144  41.3045979   8.7124878   5.4473943  40.3234339
   0.9735589   8.0605042  33.5739303   0.2336640   7.7750582  34.1099405
   1.6718438   7.4387521  33.7790012  58.3513832  32.2375512  60.7195568
  57.6064014  32.8193498  60.5687523  59.0894175  32.8278852  60.8713722
  22.2349930  64.8513937  36.8593621  22.4751973  65.0667477  35.9581661
  23.0326009  64.4816828  37.2380042  75.9510851  68.0485630  28.0382109
  76.8858814  68.0904675  27.8366351  75.8332300  67.1930981  28.4511542
  39.8862815  51.9679976  62.6391220  39.1599941  51.8190575  63.2445574
  40.5004311  51.2570095  62.8222895   6.3227654  16.1018074  57.5366545
   5.3663671  16.1299419  57.5094223   6.5475357  15.2443016  57.1755552
  31.3721275  61.7309570  14.5630789  30.6807613  61.5753937  15.2065444
  31.8791389  60.9190989  14.5552719  21.2680221  35.5729151  59.9571991
  20.9718490  35.3865004  60.8481312  20.5783415  36.1229682  59.5856953
  61.7372131  28.9375353  24.8501229  62.6764441  28.8165545  24.9895453
  61.3623190  28.0656624  24.9747324   3.4432834  68.0873442  17.6811993
   2.5489837  68.1748533  18.0110526   3.3790678  68.3110237  16.7527199
  60.2233124  12.5795114   9.4039464  59.5734978  13.2491410   9.6174133
  60.8192110  13.0106807   8.7913859  78.9085770  32.0498133  43.2947016
  78.3116436  32.3706079  42.6186895  79.7824049  32.2184706  42.9422665
  42.0166826  72.4790478  44.0386343  41.6692305  72.6564550  43.1645441
  41.2614536  72.1686125  44.5381212  67.1074343  35.5855989  17.5647771
  67.8651714  35.0080609  17.4725235  66.9603443  35.9302735  16.6839838
  70.5729151  55.6896734  49.0317631  69.9249172  55.7982683  48.3356762
  70.8118200  54.7635269  48.9942360  25.1789474  28.1099582  64.2363882
  24.3012476  27.8194880  64.4843817  25.7512474  27.3853636  64.4887161
  24.4494271  13.8512051   2.5139198  24.9490809  13.2541108   1.9570936
  25.1119399  14.2986929   3.0402878  78.8320732  24.3155694  43.3027220
  78.3366537  24.0423155  44.0748119  79.7337866  24.3972993  43.6133003
  71.9507885  38.3740973  52.5867224  71.2970304  38.2945108  51.8921041
  72.7734280  38.1137013  52.1723652  57.8795338  18.7925684  59.6577883
  56.9372940  18.7555170  59.4933271  58.0667162  19.7246301  59.7693872
  40.9635687  69.9739170  60.1315975  40.0684738  69.9821711  59.7925282
  41.1932945  69.0458870  60.1787186  43.4963036  68.5428619   1.1692956
  43.3577251  69.3089342   1.7262137  42.6152229  68.2710218   0.9123287
  28.3821797  25.3479266  51.2986565  27.7959967  25.2541685  52.0495415
  28.4529781  24.4640064  50.9382343  47.9536009  39.5799899  10.4187393
  48.2191372  38.8434076   9.8681337  47.3300838  39.2026162  11.0392594
  33.9855003  22.9299855  10.6209397  34.4464779  23.0691671  11.4482009
  33.3245230  23.6218691  10.5957198  61.7630863  32.0939231  29.4551301
  61.0138750  32.6852918  29.3830442  61.3741255  31.2223649  29.5281196
   3.5141322  39.4097924  16.7653751   4.4424564  39.4403791  16.9966984
   3.0944169  40.0128174  17.3789155  30.9117436  18.5951495  46.4360905
  30.8968663  18.2878494  45.5296850  29.9981260  18.8006532  46.6343498
  72.9682875  39.8618984  58.9932442  73.2874012  39.0260291  59.3334198
  73.2173967  39.8551583  58.0690527  71.7230892  36.3788056   7.9300165
  72.6071215  36.3062811   7.5702107  71.7038393  37.2405839   8.3461881
  65.8459187  22.2263479  49.8206615  65.2121592  21.9613385  49.1540670
  65.7431984  21.5800238  50.5191946   3.5532188  40.0185871  36.6471767
   3.6185747  40.8680344  37.0835185   2.6750055  40.0118160  36.2664843
   2.2970098  44.0713692  58.0805731   2.2371036  44.5075226  57.2306252
   1.4733669  44.2859983  58.5184956  58.1893206  42.3234987  54.3104315
  58.1191874  42.8617859  55.0988245  59.1275072  42.2946167  54.1228104
  60.9283733  42.9782486   7.2829551  60.6950188  42.7647686   6.3795149
  61.8823671  42.9040289   7.3078454   0.6528007  31.9420052  57.3643017
   1.3172978  31.6330814  56.7484760   0.1345998  31.1634135  57.5680017
  72.4895525  57.5117683  49.5759439  71.6221142  57.1437597  49.4075632
  73.0475616  56.7493057  49.7292614  68.8801813  45.1076221  48.8131475
  68.7723207  45.5603504  49.6495914  68.6349726  44.2010403  48.9981318
  22.6692581  39.4960141  33.0653429  22.0802426  40.0315094  33.5968876
  23.5340834  39.8824716  33.2030344   9.0473473  27.3336458  28.9482212
   9.2540294  28.0328465  29.5684123   8.0947691  27.3656774  28.8599014
  67.9514313  28.2208323  54.2505360  67.9172182  29.1738534  54.3330860
  67.7490807  28.0527234  53.3301973   4.1400725  16.8076396  49.7256279
   3.5474849  16.1289525  50.0488234   4.2027408  16.6427052  48.7848282
   8.4436738  45.7074547  31.8570399   8.3340031  45.6790113  30.9065700
   7.6852053  45.2348089  32.1999097  59.8140097  65.6845808  33.4059095
  59.8016119  66.4497375  33.9808989  60.7419634  65.5376291  33.2227516
  56.4490318  43.8557768  52.7939606  55.8132410  43.3413458  52.2966051
  57.0184755  43.2033682  53.2017899  71.4252090  30.3491879  54.2893410
  72.3559999  30.3387713  54.5123911  71.0586119  31.0532999  54.8241949
  21.7460847  15.7720900  40.5682230  21.2324786  16.5226126  40.2696323
  22.2465086  15.5026555  39.7980213  15.5963969  52.6022291  53.6428404
  14.7110665  52.3128319  53.8634539  16.1699760  52.0155287  54.1358089
  22.8986239  51.1618233  53.9919376  22.6674247  51.9451571  53.4927702
  22.0593786  50.7425880  54.1820478  53.2292604  63.4107780   5.6450200
  53.4288073  63.6210155   6.5572774  53.5188818  62.5046062   5.5391908
  67.1012735  58.7390471  58.4943390  66.9930220  58.1377697  57.7574682
  66.8355370  59.5913363  58.1490517  18.5241926  72.7865410  11.6408062
  18.5588181  73.6956692  11.9383359  17.6099682  72.5297785  11.7612147
  54.1997242  72.4221087   6.3033682  55.0023603  71.9005966   6.3089448
  54.2221308  72.8872585   5.4670870  14.2586040  55.5819750  18.6863136
  13.9158583  54.8917580  18.1185508  13.6753106  56.3261890  18.5375023
  75.7685089  59.7519970  31.0788870  75.6509686  59.2974091  31.9130111
  74.8789930  59.9542475  30.7889104   1.6967842  23.9956856  64.1459942
   1.1334285  23.8927865  63.3790064   2.1212405  23.1437588  64.2474365
  17.5659478  60.6925106  52.3564100  18.1406498  60.4367971  53.0779123
  16.6911638  60.4291487  52.6421165  49.5852327   3.0465293   8.8022065
  49.5383930   2.3201776   9.4238585  49.9458027   3.7734580   9.3099403
   5.7852268   2.4243332  21.4955139   5.0498974   1.9403440  21.8713832
   5.9401703   2.0052177  20.6490135  21.9907188  36.5530443  54.3610191
  21.5783691  37.3873925  54.5847654  22.6838160  36.7864180  53.7434578
  15.1050448  20.9747648  12.4807656  15.9471476  20.8045983  12.9028296
  15.1240659  21.9097424  12.2765851   2.6617548  29.0454340  34.8964143
   2.8522334  29.4188976  35.7569242   2.8748354  28.1165600  34.9859595
   7.5387895  19.0526044  54.4762325   6.8077970  18.5209167  54.1612911
   7.3897028  19.1306043  55.4185295  36.5671253  67.0389271  59.3491602
  36.6731691  67.5819016  60.1302910  37.3447013  66.4808178  59.3380499
  34.1169810   0.5120702  60.9904766  34.4484639   0.2082461  61.8354893
  33.3007908   0.0279333  60.8652687  78.8001776  15.2762783  40.5662060
  79.4349241  15.9523177  40.8034849  77.9481792  15.6748509  40.7436037
  42.6315880  73.6789799  55.6896305  42.4856186  73.9741135  56.5884209
  42.9108763  74.4658232  55.2215385  11.6169763   8.5749108  56.8541431
  11.4286661   7.9342759  57.5399685  11.7328119   8.0504942  56.0618019
  63.9783239  15.6943846  60.2130747  63.7506819  15.7918870  59.2884636
  64.9124670  15.8994067  60.2526665  76.7719555  37.2418618  39.5691681
  75.9131241  37.6172018  39.7634983  76.8829155  36.5482736  40.2194405
  74.1846275  43.8962746  55.5645514  74.0162706  44.8376656  55.5236673
  74.4570971  43.6629343  54.6771145   9.6906281  12.0581985  61.9614935
  10.2241862  12.4990451  62.6227093   9.0700555  12.7262104  61.6701508
   2.4006838  29.0990949  57.6024914   3.1809247  29.0459967  58.1544256
   2.4780431  29.9438381  57.1590281   8.8313478  56.3688755  57.6564980
   8.7561572  56.8672514  58.4702539   9.6897972  55.9489965  57.7112341
  56.8246222  31.4917207  16.8428898  56.0678864  31.1529946  17.3212719
  56.4644337  31.7975855  16.0104561  61.5719557   4.0857321   4.7964770
  61.8023396   4.5854998   4.0132868  61.9009781   4.6144772   5.5233920
  17.1818197  72.2058678  55.3829193  16.4333606  72.5672770  55.8577061
  17.0066381  72.4142742  54.4652557  64.9796009  49.0556812  22.5969052
  64.3534851  48.3316612  22.5958443  64.6047878  49.6973467  21.9935679
  75.5477619   4.8786816   2.9986411  76.0337019   4.0815890   2.7871260
  75.0806713   4.6670684   3.8068968  37.3289776  67.4340534  19.9630904
  37.4726129  68.0465841  19.2416990  38.2091308  67.1774340  20.2382469
  59.0419865   7.2256714  12.4567389  59.9389219   7.2444558  12.7904880
  58.4950018   7.1937388  13.2416070  16.3217342  65.1571989  49.0377283
  15.6493866  64.5702314  48.6918211  16.1072195  66.0126972  48.6657906
  34.4903374  69.7107267   9.2283475  34.6418905  70.1050282  10.0872958
  34.9697757  70.2721691   8.6191201  28.0969596   5.0843972  26.8960238
  29.0134788   5.3512478  26.9668579  27.6605821   5.8323187  26.4880753
  67.4221992  38.3321047  40.5951643  67.1580458  37.6796031  41.2437773
  67.7051640  39.0849066  41.1142540  12.7821386  19.1927469  12.2799802
  13.3754325  18.4453559  12.3550797  13.3318388  19.9024796  11.9478059
  74.2844868  61.3370943  36.1632013  74.9321651  60.8183384  36.6403174
  73.6618471  61.6182804  36.8336368   2.2253500  65.7288742  61.1073542
   2.6826024  65.7331753  61.9482708   1.2975734  65.7713938  61.3389921
  72.9026270  28.4171128  36.7544484  73.5790539  27.7542686  36.6154528
  72.0875454  27.9845762  36.4999318  48.0883408  30.2851605  45.4223490
  47.8850079  31.2178373  45.4930496  48.7172079  30.2310014  44.7027445
  40.0365019  21.6170359  14.3539894  40.0783682  21.9308162  13.4506512
  40.8931780  21.8328452  14.7224486  28.5125995   1.7700921  29.0323234
  28.0863881   1.6949566  29.8860979  27.8051543   2.0032024  28.4311461
  13.1981421  38.9991665  57.3342466  12.5439966  38.9672995  56.6361713
  14.0367126  38.9130688  56.8807936   2.0831653  23.8527751  34.0477777
   2.7443272  23.1606960  34.0367222   1.6510083  23.7847877  33.1963968
  20.0245595   9.0482628  42.7877665  19.7903907   9.9383211  43.0508089
  20.1024270   8.5676163  43.6118698  21.9961929  62.8301334  38.7136006
  21.4836979  63.2688475  39.3926525  21.6956282  63.2240677  37.8946328
  27.1958566   6.1677188  40.5955935  27.2983384   7.1024460  40.4166698
  26.3086367   5.9631848  40.3002310  53.7812948   1.5882170  53.6243391
  53.8600302   0.6455019  53.4783220  54.5740080   1.8228829  54.1068077
  20.3076172  47.4087191   1.1228332  20.5306482  47.7512121   1.9883907
  19.9629915  48.1647778   0.6476023   7.7471614  10.1581109  54.2633009
   8.4070170  10.5268216  54.8505592   8.2533801   9.7191781  53.5796976
  20.6629825  47.7236843  50.3888559  20.5077267  48.6679840  50.3683662
  21.5831494  47.6268673  50.1435995  62.4143600  21.5068793   4.7418875
  61.8224907  22.1417975   4.3383947  61.9326258  20.6801486   4.7158080
  19.4922793  56.9854641  22.2782326  19.4460344  57.9123926  22.5125456
  20.0587177  56.5977526  22.9453588  59.1743422   7.4023110  44.7738361
  59.1939068   6.5381640  45.1850557  58.9122581   7.2312212  43.8692522
  59.9514437  60.2273321  20.0008035  59.2973185  60.8237076  19.6365392
  60.6221867  60.1633406  19.3209243  20.7100415  55.9420395  34.0750122
  21.2663794  55.9961987  33.2979751  20.5939341  56.8514156  34.3503118
   0.9951890  60.8839178  17.1709955   1.0566406  61.2511778  18.0527973
   1.2110196  59.9579525  17.2816205  68.6968422  22.6722264  32.0697618
  68.9005423  22.9938364  31.1915231  69.3986940  23.0189800  32.6205802
  24.8481441  53.6738110   1.7445432  25.6398964  54.2013979   1.8494712
  24.1434693  54.3150616   1.6525626  58.4614754  60.9775448   5.0780606
  59.0068674  61.7637110   5.0512481  59.0212679  60.3111744   5.4765767
   3.0628920   1.2106771  17.0926630   3.3799738   0.3681952  16.7672169
   2.1639842   1.0366572  17.3717940  16.5473795  19.4893289  52.1212006
  16.7295599  20.1079226  52.8285789  15.7166004  19.7871590  51.7506170
  40.3680086  48.6583138  58.0027103  40.5035639  47.9713249  58.6553240
  40.1083803  49.4254684  58.5129070  63.0976582   2.7645385  44.0263414
  62.4535847   3.2937664  44.4967842  63.9303160   3.2127404  44.1747808
  21.9734669  30.3581071  18.7560523  21.3195372  30.7759643  18.1956935
  22.8131604  30.5977654  18.3639884  71.6020966   8.0538774  63.9754105
  72.4797726   7.6718915  63.9738941  71.7516804   8.9979565  63.9247084
  27.4367547  56.7768145  40.0586796  26.7195511  56.6431904  40.6783533
  27.0645881  56.5446377  39.2079043  72.2137213  20.6804395  27.5114632
  72.1753168  20.3164172  26.6270161  72.7840519  21.4449787  27.4312425
  12.3119140  27.6160240  52.2229099  13.0953634  27.9303741  52.6741552
  11.6843343  27.4433541  52.9247379  54.5742989  52.2485590  63.7668324
  55.2684355  51.8013573  63.2826614  55.0269938  52.6780224  64.4926834
  67.6259518  43.3306599  26.3124418  67.9250145  42.4698210  26.6052723
  67.5909472  43.2603073  25.3584719  26.2509060  67.3687696   1.8531068
  25.6507444  66.9882059   1.2118528  26.6251993  68.1295252   1.4088285
  63.7450548  41.9484427  64.2195330  63.4069511  42.8285109  64.3850556
  63.8569709  41.5671524  65.0903513  28.0897999  52.5059414   8.5512060
  28.8915372  52.5692177   8.0321276  27.6242542  53.3231926   8.3734512
  12.6508164   8.1334704  40.1744080  12.1699476   8.6753953  40.7999611
  12.4608517   8.5256374  39.3221474   8.2076144  36.1236739  44.8381376
   8.1707817  35.2663159  45.2621794   7.4684846  36.1220169  44.2299318
   4.4115081  27.3668218  44.4452286   4.3600494  26.6281915  45.0518656
   3.5540277  27.3880053  44.0203667  10.9819293  55.6943130   6.4032060
  11.0846972  54.7947788   6.7138684  10.0362897  55.8425713   6.4073366
  36.5317798  74.0737295   9.4500339  37.0501781  74.2859602  10.2262104
  35.9915972  74.8501682   9.3031377  28.4004378  63.5947323  18.5578656
  28.8450551  64.4000340  18.2932198  27.5455618  63.6413574  18.1297970
  77.7572298  50.0021553  40.5736876  76.8052578  49.9069929  40.6040239
  78.0916834  49.1792631  40.9303713  14.5796847  55.7509375  33.2464385
  15.4081309  56.2278509  33.2960415  14.7269654  54.9603796  33.7656283
  21.4548111  38.7460256  62.1633530  21.8760061  39.0565753  61.3618660
  20.5212855  38.7295413  61.9524240  46.3022280  26.7194009  48.4720659
  45.6883574  25.9988570  48.3299112  45.9304428  27.4514103  47.9799557
  76.2591839  64.0145397  39.0098715  75.4835272  63.8656473  38.4691167
  76.0714054  64.8272514  39.4794154  22.3928499  60.1008177   1.3687907
  21.7457747  60.6138897   0.8847614  22.7210498  60.7002163   2.0390463
  27.1272707  69.6268415  39.7377729  27.4282241  70.5131388  39.9380970
  26.2656975  69.5674276  40.1505661   0.8274781  42.0872450  20.5265212
   0.7231497  42.9392099  20.9502006   1.0213937  41.4847851  21.2446237
  67.7442217  36.8138528  36.3268065  66.8965912  37.2489452  36.4187312
  67.8030729  36.5982223  35.3960705  17.2771668  36.3351464  58.8649797
  16.9655490  37.2382855  58.8060999  18.1747341  36.3694263  58.5341740
  13.4532118  15.8466434  45.9863043  13.9547253  15.2846730  46.5769863
  12.6481128  16.0406506  46.4663124  18.3455431  32.4959946  63.6987877
  17.6724470  31.8594432  63.9395666  18.9927864  31.9870925  63.2105970
  23.4148693  43.3431768  34.1824675  24.1726494  42.8323555  34.4671798
  22.7065992  43.0649424  34.7631311  16.8260694  21.3173747  54.2388010
  17.4258351  21.3519454  54.9839973  16.0878181  21.8679237  54.4997835
  24.7038674  58.1093073  57.7010107  25.3913641  58.4934092  58.2451105
  24.9884558  58.2759523  56.8024158  71.1222982  15.8527732   2.3398446
  71.2116480  15.1133382   1.7386079  70.1883841  15.8808899   2.5477925
   1.8853855  44.4879580  52.7333069   1.8311647  45.3547812  52.3309278
   1.4684977  43.9034986  52.1001816  13.8170922  56.4143658  36.4202833
  12.9480004  56.7939711  36.2906218  14.3658686  56.8423510  35.7630873
  68.1299019  42.2652769  44.5005417  68.3459377  41.4687538  44.9854183
  68.4265804  42.9780293  45.0663996  16.5727794  31.7883229  47.8387737
  15.9411800  31.4084363  47.2280359  16.1272454  32.5558019  48.1975269
  11.0404348  15.2582681   8.4607279  11.7549419  14.9255800   7.9175615
  10.3109419  14.6631801   8.2876897  17.9694057  55.3220606  46.5114975
  17.7272606  54.4306564  46.7624903  18.1014955  55.7774878  47.3429871
   1.9958189  12.9141104  17.8636682   1.5821174  13.2418942  18.6621928
   1.9739614  13.6569023  17.2603321  76.4294147   6.0341978   6.5399933
  76.1754942   6.6804641   5.8811343  76.4139462   6.5162784   7.3667884
  31.0749340  27.6476026  55.2470160  30.7379460  27.2148585  56.0314941
  31.4067650  28.4886527  55.5612707  42.4324989  55.3834009  23.4585094
  42.5447369  54.8635530  22.6626492  42.1853495  56.2529278  23.1437588
  12.7999973  61.3697815  20.1218343  13.4803963  61.8627501  19.6632791
  13.2239866  61.0661697  20.9245062   6.1543661  36.3830829  42.8176069
   5.7534355  37.0834327  42.3028278   5.7286829  36.4407778  43.6730003
  43.2700300  67.8938389  23.9417458  43.7479591  68.6050558  23.5151386
  43.1285715  68.2032204  24.8364544  20.1603389  67.7544498   1.0843067
  20.4538918  67.6028252   0.1859373  20.9326625  68.0972576   1.5340103
  15.8760941  31.5742087  24.6581054  16.1755872  32.1747017  23.9755034
  16.5273333  30.8727121  24.6625829  75.2094221  69.8935461  47.3032093
  75.3951216  69.9504471  46.3659191  74.7318220  70.6988907  47.5020790
  45.7497263  49.1233730   0.5206224  45.9507465  50.0045872   0.8357205
  45.5460596  49.2414284  -0.4071780  74.2523432  37.6826787  60.0262594
  73.7681341  36.8586206  59.9742889  75.1026011  37.4860835  59.6330070
  66.8815660  23.3525467   1.9808875  66.6333914  24.0919733   2.5357664
  66.6693401  22.5791454   2.5034210  31.0700130  59.8415184  62.6330662
  31.9293761  59.4368172  62.7511358  31.0727930  60.1494980  61.7267704
  49.2407131  42.6962376  13.3019066  49.0695667  42.9496956  12.3948789
  50.0450182  42.1791029  13.2583952  24.0705704  72.8135405   0.5232402
  23.7746548  72.8654228  -0.3855876  24.0623688  71.8778287   0.7247563
  75.2588463  63.2191181  29.1145372  74.5485306  63.2759953  28.4754372
  74.8162127  63.0958700  29.9542499  43.1184721  51.2590075  47.3248339
  43.3176136  52.1630526  47.5682974  42.7848721  51.3199568  46.4297152
   8.9337629  22.5120187  29.2423701   8.3936012  22.6070261  30.0268650
   9.1584522  23.4093094  28.9961720  53.9941597  64.6342707  16.4075673
  53.0526257  64.4990349  16.5146017  54.1835403  65.4185963  16.9225407
  77.2201109  42.2795200  50.8061838  76.4742041  42.4991989  50.2479696
  77.5001240  43.1182289  51.1727858  29.4656229  20.2724147  60.4913807
  30.3460336  20.0789547  60.8133793  29.1674566  21.0028100  61.0334587
  38.8054991  64.8908424   7.7293730  38.5161328  65.1057339   6.8426263
  39.7609925  64.9265623   7.6847708  58.8650846  55.6331491  13.4849703
  58.7523270  56.5607405  13.2773829  58.3719158  55.1739120  12.8051794
  73.8093090  54.2154217  44.5137358  74.3857670  54.0282679  43.7728548
  73.9219332  55.1523399  44.6741343  42.8519154   3.1711346  19.7045898
  43.1167126   2.3265645  20.0690246  41.9398785   3.2739028  19.9763584
  33.9496636  54.8732901  54.0806103  33.4305358  55.3221369  54.7479010
  33.3339834  54.7139835  53.3652163   8.5287029  45.8877134  41.5819597
   8.2052791  44.9902010  41.6600466   8.4128231  46.2609339  42.4557495
  44.4115448  49.3488503   8.9933532  45.1255083  48.9818811   8.4719872
  43.9284420  49.9036932   8.3809876  46.1038208  34.8046923  59.0212917
  46.0947132  35.1049471  58.1124496  45.4214525  35.3205562  59.4508171
  19.7819936  34.7052503  57.5910473  20.5913234  35.2160931  57.6070166
  19.9816144  33.9240766  58.1069469  76.8555117  27.1634412  62.6807737
  75.9065533  27.2188807  62.5683546  77.0855999  26.2952805  62.3497295
  46.9789076  63.6354303  47.7258682  46.1042404  63.2678795  47.8527164
  47.3104525  63.1993103  46.9409418  54.9776220  42.8007984  56.3899040
  54.6979523  42.7656412  55.4751444  54.6537113  41.9846296  56.7709303
  55.1253557  41.6874361  20.2838826  55.6830978  41.0305834  20.7006574
  55.4882956  42.5258541  20.5694723  28.4848714  50.5871534  55.2923870
  28.0791330  51.0294485  56.0380316  28.8639593  51.2949896  54.7713327
   3.5232481  61.0298920  47.4225855   2.9336417  61.7610645  47.6069403
   4.0717563  60.9616089  48.2040644  69.5801115  38.6754608  61.9107103
  68.8994694  38.2735610  62.4505568  69.9029160  39.4066596  62.4373817
  73.8357830  54.6865749  50.0798798  73.7720490  54.7389269  51.0335207
  73.2605743  53.9597511  49.8409367  51.6468763  59.3284655   7.1760154
  52.3987103  58.7570906   7.0194757  51.9262695  60.1855326   6.8541336
  19.5644510  59.8706770  43.1026316  20.1215577  60.6311274  43.2687044
  18.9688826  60.1567602  42.4100399   0.0052928  43.6189604  16.1009789
  -0.5428449  44.3747187  15.8897853   0.8704615  43.9909601  16.2722456
  37.7970505  63.7306786  47.9992247  37.4173641  64.4854641  48.4490776
  38.4445620  64.1076803  47.4035501  57.6691532  68.0857611  33.1515884
  57.3468733  67.4312305  33.7712288  58.0386972  68.7757206  33.7026119
  10.4273212  71.8700361  43.4545660   9.9141842  72.2912979  42.7650261
  11.2595379  71.6523409  43.0347395  62.0128918  47.5448132  40.9793758
  62.9446220  47.5195026  41.1972618  61.9102812  46.8889475  40.2897835
  63.7247515  15.0652742   6.1592096  64.1025782  15.4852045   6.9319546
  63.4504318  14.2011499   6.4662415  26.6113877  48.5083389  48.8743353
  25.9530234  48.9664888  48.3519506  27.0463133  47.9244184  48.2529593
  74.8524809   0.9755898   1.0288592  75.4553223   1.7041829   1.1770743
  74.8659992   0.8425540   0.0810457  65.2298689   9.7453004   9.9942863
  65.1259613  10.4710734  10.6096625  65.3723335  10.1679313   9.1473389
  24.0906858  62.2551680  21.8462610  24.1307187  63.1354189  21.4723778
  24.1357446  62.3944569  22.7922010  45.3707743  44.0321779   2.0631458
  44.4765759  44.3614721   1.9725344  45.2648544  43.1367111   2.3843162
  34.4229794  57.7618074  59.5265818  33.5976124  57.7380514  59.0423918
  34.7709036  56.8733215  59.4505882  79.0259409  26.4455581   1.2549514
  79.0045977  26.2942052   0.3100339  79.2178154  27.3791194   1.3437092
  28.2472372  10.2653050   9.1169894  28.4109855  10.3588641   8.1785518
  27.3303771   9.9964297   9.1745001  21.8892980  18.5138142  60.6278658
  22.2768927  18.6539030  61.4917946  20.9457159  18.4995914  60.7881308
  29.3118712  72.0646792  64.2865170  29.0744080  72.9896932  64.3512444
  28.4739261  71.6059476  64.2261430   9.9418479  35.2801013  52.4525976
   9.6385425  35.8791375  51.7703962   9.1743076  34.7482157  52.6628590
  69.1152620  73.4632492  12.6639056  68.7868404  73.0289459  13.4511471
  69.1723490  72.7652311  12.0114172   4.8627934  52.8080988  58.5052109
   4.3875468  53.6299419  58.6274719   5.7414651  52.9874611  58.8398695
   7.7468634  54.2659521  42.2106647   8.6012489  54.0105963  41.8627405
   7.9397315  54.9779510  42.8206539  49.0229893   2.2611719  49.6147203
  49.1433477   2.5241911  48.7022686  49.8088837   2.5769660  50.0606728
  27.0594001  45.7664061  35.3753185  26.8871522  46.5611458  35.8802485
  26.6509914  45.0660849  35.8842230  10.2634883  60.9483624  62.3687649
  10.3728187  60.0595760  62.7068996  10.9804046  61.0567570  61.7438555
   5.8425325  39.3424392  35.3388977   5.0710881  39.6331525  35.8253026
   6.4038634  40.1165390  35.2951765  25.6162119  20.7176232   5.2232957
  26.2555146  21.2068057   4.7053918  26.1284995  20.3317332   5.9338468
  56.2725830  13.0398238  19.3222237  56.5455675  13.7502253  19.9027729
  56.0418558  12.3229361  19.9130464  30.4034162  60.5017662  59.8244047
  29.6516061  60.0334406  60.1872873  30.1369238  61.4211178  59.8270035
  68.3621693  62.3175478  40.3390741  67.4427176  62.5761223  40.4021883
  68.3957005  61.7354393  39.5799565  29.1038656  35.9169269  55.4602575
  28.8207436  35.2182746  54.8703766  29.4610381  35.4582691  56.2207127
   0.9073516   1.5513144  60.8174467   0.9784289   1.0154080  60.0275183
  -0.0345353   1.6575676  60.9508419  12.6723945  23.1507421  62.3214912
  12.7553773  22.2816348  61.9290686  12.6808286  22.9893422  63.2649517
  18.4924865  64.9652587   0.3264733  18.2012963  65.6591235   0.9180756
  19.4466185  64.9701200   0.4028722   0.7212515  68.2573080   9.8594165
   1.2017794  69.0722704   9.7139531  -0.1810150  68.5359526  10.0159883
  41.8707705  12.6659524  29.0896320  41.8574619  12.4308121  30.0174046
  42.7821255  12.9009569  28.9151573  16.8644011   3.2344857  31.3619208
  17.4060321   2.9952338  30.6098413  16.8232346   2.4376032  31.8906140
  42.5717545  65.6050253  37.1734786  43.0271196  66.3519955  36.7850089
  43.1131506  64.8493624  36.9452381   0.3624877  74.5431376  33.5424566
   0.3311704  73.7802458  34.1197348   1.2404915  74.5196772  33.1619430
  40.9423637  49.4905138  63.4054899  41.5704536  49.2799377  64.0964317
  41.1908245  48.9238691  62.6751375  55.0601387   6.9219679  34.9001145
  55.4273653   6.2648368  35.4913473  55.7380486   7.5950050  34.8393416
  48.4028530  33.6669087  55.4169559  48.2885265  33.3711648  56.3201189
  47.5401831  33.9930606  55.1607132  77.5512695  40.2647829  30.9916258
  78.4702158  40.1159191  31.2143683  77.4810076  39.9991345  30.0747156
  26.3739991  58.9565372  59.5002794  25.9247994  59.6801805  59.9370766
  26.9466901  58.5889101  60.1734114  71.7149305  62.0983267  50.9480000
  72.0300007  61.6704750  50.1518202  72.4496126  62.6404572  51.2353516
   0.4712939  25.7397199  16.7454648  -0.4716241  25.6427312  16.8786228
   0.8024574  24.8421478  16.7150164  23.3354306  50.5112696  51.3396502
  22.9693508  50.3704786  52.2128010  23.4612322  49.6300459  50.9877300
   0.3971009   5.7966340  48.3006763   0.1663061   5.0120538  48.7980652
  -0.2652389   6.4413607  48.5493994  45.9683414  74.7362609  64.3397617
  46.4706512  73.9246724  64.2673969  46.6051908  75.3864773  64.6361923
  10.5741084  36.8489385  57.9269409  10.8306909  36.4145350  57.1134996
  11.1430562  36.4642453  58.5936832  78.4620476  17.8557336  50.3443909
  79.1212368  17.9251957  51.0349560  78.2726717  16.9191873  50.2873802
  45.7755852  43.6512852  50.1853132  46.4125729  43.9400864  49.5317984
  44.9997663  44.1858101  50.0161409  60.8911610  19.3298578   4.9977687
  61.1482573  18.7543583   5.7181400  60.6064081  18.7338543   4.3049997
   5.1344877  35.0499439  12.8669202   5.1493901  35.9666085  12.5917125
   4.4018960  34.6668911  12.3844171  74.6901608  16.7520308  35.4159188
  75.6264830  16.9351315  35.4934406  74.4875669  16.2123942  36.1801052
  41.2022638   4.1009045  64.1635466  41.8418550   3.7542111  64.7856045
  41.7312765   4.4600356  63.4512234   2.9906181   8.1608111  17.3128116
   3.2862163   8.4189939  18.1858492   3.3547151   7.2846884  17.1860278
   5.1549917  29.3609905  46.5364933   4.7569120  28.6924958  45.9789276
   5.6206703  29.9343824  45.9277248  14.4893217  73.6328650  59.1440296
  13.9103138  72.8711414  59.1164017  15.0868428  73.4533167  59.8699522
  59.4275093  72.2200584   3.8619265  58.6784792  72.7842188   4.0540314
  59.8269653  72.6089859   3.0838522  12.2765625  70.6296682  30.3059888
  12.5011349  70.8404875  29.3997025  13.1086349  70.6788874  30.7765889
  43.4031773  71.1899662   1.0487033  44.0053606  70.9781170   0.3354539
  42.7187490  71.7166090   0.6358606  12.2255695  10.9138310  43.9699602
  13.0083168  10.8157814  44.5121098  12.0851314  10.0453568  43.5927820
  26.5990591  69.8502636  60.8957195  26.1688304  70.4751825  60.3120995
  25.8802772  69.3528843  61.2858391   7.0220560  40.6216908  43.0906630
   6.6109377  39.7592139  43.1485271   7.6877046  40.6163597  43.7784958
  46.3817644  55.7723951   1.4627494  46.9252443  55.3099632   2.1007296
  46.2210274  56.6280603   1.8605359  54.0585184  10.3626370   8.6878663
  53.5335350  10.4798436   7.8961074  54.9246740  10.6950927   8.4523231
  29.3463087  34.9666166  60.1266336  30.2261400  35.3211117  59.9983311
  29.3135619  34.1960001  59.5597935  12.2260118   6.9504714   6.0754222
  12.2878146   7.7225679   6.6378093  11.5041816   7.1464056   5.4780930
   8.4427136  15.3688133  11.7578089   7.5233603  15.3819907  12.0239806
   8.5419971  14.5452583  11.2801766   2.1716511  42.2595501  61.4073563
   1.8151765  41.3879013  61.5787697   1.4067696  42.8350401  61.4056158
  57.4582195  23.1157494  34.7181511  58.1132793  23.3690453  34.0677905
  56.6504526  23.0095434  34.2156935   0.6150823  68.7692070  62.2324562
   0.4829188  68.9511538  63.1628656   0.4883795  67.8237677  62.1529388
  27.5768781  64.4225407  32.1980906  28.4159088  64.7557306  32.5162768
  27.7981281  63.9351130  31.4045572  58.9395189  32.9594374  19.8469353
  59.1847324  32.6317644  18.9816427  58.9053869  32.1776962  20.3982496
  70.6610632  44.3945646  13.4841824  70.3479481  44.5887232  12.6007271
  69.8649931  44.3312216  14.0119088  59.0287447  24.3868613  32.5685048
  58.4391642  25.1203513  32.3935175  59.8968315  24.7166967  32.3364162
  20.0663137   5.1714760  39.5308900  19.2490077   4.8260960  39.1717863
  19.8520339   6.0656101  39.7970486  22.1121049   8.6910862  21.1478686
  21.6768575   8.2637775  20.4101706  22.9047346   8.1737971  21.2906265
  61.9372320  23.8458323  17.2160494  62.3476887  24.1289568  16.3989830
  61.1491728  24.3844533  17.2873962  26.9983649  50.8386946  61.7367744
  26.8698096  50.1227856  61.1145401  27.0802188  51.6198063  61.1896038
   2.8778198  42.7931213  55.0406885   2.7803040  43.2836056  54.2245102
   3.4002098  43.3651543  55.6029320  35.8755302  73.4829044  13.0716097
  36.6800141  73.9267063  12.8031409  35.6124973  73.9298201  13.8761675
  39.1583157  66.1925650  51.9784069  39.1646266  67.0998096  52.2835255
  38.9524722  65.6786776  52.7592945  11.3716614  18.6946785  36.9741035
  11.5953457  18.8098323  37.8976488  10.8629417  19.4744480  36.7518497
   5.2322632  34.6640253  63.6294842   5.5025268  35.0103951  64.4799042
   4.9590456  35.4352069  63.1326294  69.6616173   7.6829547  61.8878031
  68.7837410   7.3841637  62.1250391  70.1551962   7.6507497  62.7073002
   8.0010766  69.8449039  51.8562841   8.1505460  68.9736509  52.2234535
   8.6582345  70.3985214  52.2780418  25.6119180  37.9718781  56.8205595
  25.4935718  37.0408368  56.6324329  25.9637737  38.3374023  56.0088778
  21.8254566  47.4783087  36.3972211  21.6519380  48.0949211  35.6859469
  21.6146207  47.9657698  37.1935630  18.7654507  25.1082253  53.7154579
  18.6753464  25.4887724  54.5891285  18.7656331  25.8615565  53.1249332
   2.0277166  10.6877458  16.3353026   1.8549642  11.4985919  16.8137562
   2.3741744  10.0886309  16.9965589  24.7482610   5.4332346  34.9623418
  24.3622184   5.4829252  34.0878510  24.5592809   6.2848783  35.3563237
  20.4946876  51.6989613   9.6546358  20.3942466  50.8137703  10.0047493
  20.3871107  51.5961695   8.7090707  70.6942225  33.6574483   7.9028696
  70.2174234  33.5393715   7.0813131  71.4867401  34.1328835   7.6536512
  27.1229482  52.0786190  57.2905779  26.4555264  51.4781380  56.9586134
  27.0863938  52.8289700  56.6973925  41.5678930  12.1348619  44.2240572
  42.4218130  12.5059068  44.0018511  41.4391136  12.3644900  45.1443386
  14.4598198  18.7344742  44.0613937  13.6140752  18.4687376  43.7003803
  14.5275366  18.2577837  44.8886871   9.5785940  60.0147867  25.5792379
  10.1438940  59.2472315  25.6660247  10.1837468  60.7437134  25.4425573
  77.7949810  27.7315092  22.7811384  77.9014635  28.2546234  21.9866276
  78.5314703  27.9869866  23.3366060  11.5257537  44.1592216  48.7492990
  11.6634226  44.4277000  49.6577024  12.0148098  43.3407497  48.6647034
   5.6271005  40.4200554  39.4498038   5.8278185  41.1180878  38.8263464
   4.9930346  40.8109045  40.0509930  75.5671358  60.0143099  57.2697830
  76.4633083  60.2251339  57.0077562  75.5928278  59.0812635  57.4819040
  16.6965997  35.9037328  61.5418148  16.7854369  35.9763074  60.5915165
  17.2858024  36.5733147  61.8892813  78.5092020  58.0229855  59.3973255
  78.3611298  58.1461096  58.4596968  78.4758043  58.9068794  59.7631788
  20.7977986  66.5110970  17.4954808  19.8594403  66.5850401  17.6693964
  21.1241484  67.4088860  17.5563633  63.3895969  42.2190285  16.6319168
  63.0972528  41.3117456  16.5447330  63.2124043  42.4409771  17.5460148
  68.1137514  20.1573157  55.5490732  67.2012472  20.0782657  55.8271313
  68.3679485  21.0423803  55.8103752   0.3296381  30.6779599  25.0897598
   0.9776805  30.9597349  25.7354188   0.6229403  29.8076129  24.8201275
  42.7342796  44.2856932   1.1992584  42.9203081  43.6825705   0.4796249
  42.2768497  45.0179100   0.7859236  75.5234098  35.7152247  23.6286378
  76.3627672  35.2551031  23.6288953  75.2000713  35.6241560  24.5249605
  56.0598087  10.2885330   1.0444557  55.8974743  11.1744940   0.7204936
  55.8538055  10.3334308   1.9781464  46.8709040   5.3608757  38.5203934
  47.7789211   5.2713305  38.8097310  46.8887234   5.1140767  37.5957298
  13.1974077  59.3263674  28.4485245  12.2497654  59.4119453  28.5528421
  13.4935415  58.9285898  29.2672491  29.3710542  70.3911495   3.9154705
  29.9897027  70.9087420   3.4001023  29.8179483  69.5569229   4.0589404
  29.1203856  62.7056742  53.9343166  28.2072759  62.4615049  54.0854692
  29.5699954  61.8732405  53.7889433  54.2096376  38.4616780   6.5367699
  54.7923374  39.1064763   6.1356091  54.7803593  37.9432821   7.1040219
  27.2732806   4.7044531  34.4530296  27.1868968   3.7868088  34.7112894
  26.3866949   4.9685562  34.2071724  66.2341356  42.8381205  60.5308008
  66.9190836  43.2368612  61.0675383  66.6858673  42.5594091  59.7342539
  22.7381158  44.3244553  41.4750957  21.9342971  44.7576761  41.1879969
  23.3963966  45.0193548  41.4791632  61.6912127   1.5285023   5.4620141
  61.5881729   2.4751949   5.3651279  61.3374186   1.1647587   4.6503800
  51.1719990   1.9998994  60.0170231  51.9005919   2.4129373  60.4804659
  51.2739182   2.2842008  59.1087198  77.6153088  11.3502777  10.6500614
  77.4952841  11.8139601   9.8213118  77.2726059  11.9505835  11.3121951
  44.0882015  54.4781446  57.4220181  43.4716749  55.0746822  57.8465986
  44.8866796  54.5465088  57.9454565  28.9393210  58.8322020  39.5481420
  28.9452815  59.4143867  40.3079128  28.4047771  58.0867958  39.8217607
  77.1197081  41.3836622  42.9556656  76.5422201  40.9535503  42.3249960
  76.6502333  41.3267469  43.7878847  70.3382397  58.4219313  53.6377668
  70.4894543  59.2460537  53.1749630  70.7979822  58.5271502  54.4707108
  67.3633289  -0.1499377   4.9707615  66.8455982   0.4882221   4.4799060
  67.6523304   0.3247328   5.7501191  73.4425640  65.1765823  13.8478005
  73.0852842  65.0133848  14.7206974  74.0847540  64.4788265  13.7175560
  68.9919376   2.0055446  43.0554390  68.1476212   1.8173838  43.4652615
  69.5813704   1.3362610  43.4030867  48.9776611   7.5271827  36.0565352
  49.2580175   7.7073276  35.1592183  48.9073372   6.5734971  36.0985994
  26.7970634   7.9777324   3.3461455  25.9058881   8.2174397   3.0920163
  26.8629074   8.2396668   4.2644516  37.5767827  65.3589058  40.1116753
  37.8112936  65.3327274  41.0393381  37.6691914  66.2797260  39.8671627
  24.2918587  63.0262232  24.4289422  24.5905924  62.1710443  24.7382331
  23.8044381  63.3911562  25.1675034   0.4506322   2.1112284  14.1334927
  -0.0866778   1.5857644  14.7262967   0.3214720   3.0125797  14.4286442
   5.3954601  18.0584681  11.9217181   4.9386522  18.3292937  11.1253440
   6.1302495  18.6674941  11.9952309  39.9691916  60.5092239  57.9197836
  39.2931247  61.1754513  58.0435085  40.2935219  60.3303194  58.8024139
  70.0097084  59.5108509  17.3976994  69.1657829  59.7959375  17.7480483
  70.5991507  60.2463055  17.5647283  40.6647396  61.4213037  38.2449579
  40.4273081  60.9679413  37.4360585  40.3581905  62.3187780  38.1153560
  69.0616655   4.3235627  39.0959263  69.4459200   4.4898432  39.9567008
  68.1786823   4.6886423  39.1532302   1.5298578  13.4139216  40.2908087
   1.2657951  13.2148874  39.3925381   1.0460590  14.2097092  40.5119276
  57.6619577   9.5282435  42.4605513  58.4762955   9.0512395  42.3006868
  57.8079891   9.9795246  43.2919693  66.1048412  24.6114826  47.8267956
  65.5440807  24.2070365  47.1648264  65.9253693  24.1176367  48.6268806
  51.0293007  72.4450636  42.4223661  51.5573692  71.6916513  42.6864624
  50.3848743  72.0842457  41.8134689  65.2223396  15.1811767   2.8311396
  65.4091644  16.0026908   2.3767801  64.3493795  14.9325526   2.5272435
  74.3503618  48.4977818  16.6279840  73.8785410  47.8361368  16.1221719
  74.2272806  48.2347775  17.5400758  25.9964085  67.3911381  45.5537224
  26.9489980  67.3066187  45.5945253  25.6812763  66.4950085  45.4359150
  72.9072618  17.8171873   1.9337080  72.7967834  18.0463326   1.0109305
  72.2176886  17.1759284   2.1054752  10.3235543  22.7611470   2.0136158
  10.0712752  22.3628855   2.8466672  11.2722766  22.8706908   2.0780876
  60.9854984  36.4107537  63.7596178  60.1940393  36.3705611  63.2227659
  60.7195520  36.0506868  64.6056986  16.7253125   3.2356542  27.6761746
  17.2848535   2.8224218  28.3337355  15.8469474   3.2043615  28.0552888
  36.2427354  59.8146963  46.0317421  36.7569280  59.4517565  46.7529345
  36.6021943  60.6918478  45.8989906  55.8602905   2.6601592  45.2053308
  55.2010918   3.1572095  45.6897163  55.4769707   2.5368091  44.3369484
  32.9566121  59.6279144   9.3316734  32.5305295  60.0020075  10.1028669
  32.3799753  58.9128113   9.0626889  67.4337196  42.9013777   3.0801165
  67.0522165  42.8332043   3.9553550  68.3788729  42.8666115   3.2274419
  46.3681459  51.1307478  51.9518661  46.2485600  51.5400410  52.8088427
  46.0096359  50.2492714  52.0553064  20.3103089  66.4292336  64.8651266
  21.2583852  66.3142061  64.9295616  20.2005053  67.2306061  64.3532896
   7.9715800  32.8660798  43.0500364   8.9154381  32.8344440  43.2061195
   7.5901192  33.0071926  43.9165258  45.5975437   2.0644617  55.2900076
  45.1447201   2.8308564  55.6418896  45.0385284   1.7640316  54.5734358
  77.3124838  24.8206735   8.9878219  76.5808821  24.2053699   8.9389211
  77.9734421  24.3658924   9.5098776  58.6963224  60.9580421  12.1930325
  57.9320860  60.9211922  11.6178608  59.3598080  61.4198732  11.6804612
  47.8138781  16.4060211   3.9539748  47.4308491  15.6458843   4.3918216
  47.2127151  17.1242571   4.1513771  29.3398333  64.3938351  24.3204594
  28.8871932  65.2240992  24.4688272  30.2056932  64.6469498  24.0003824
  57.8530359  73.4733009  34.2550087  56.9324017  73.6968040  34.3917823
  58.0317116  73.7360620  33.3520889   2.8115463  73.5543489   4.6748164
   3.1339687  73.3579063   5.5544102   2.0719622  72.9591608   4.5523468
   8.0022395  62.5829506  40.3880167   7.9355371  62.9674387  39.5139742
   7.2543329  62.9421043  40.8653831  38.0521679  46.9628191  14.8475862
  37.5783277  47.7479696  15.1218891  37.6526093  46.7216587  14.0118659
  48.3104563  14.8552835  27.3193097  48.7473917  14.1272438  26.8774104
  48.7078047  15.6390417  26.9397473  53.0819750  14.9767935  13.8762736
  53.4544802  14.1416693  13.5933650  53.6303377  15.6386340  13.4549677
  41.6593695  10.4423273  39.1422701  40.9485626   9.8013860  39.1288328
  41.3603163  11.1438036  38.5637116   0.1633680  19.6623254  63.6884403
   1.0053217  19.3803465  64.0459776  -0.3052537  18.8474095  63.5080624
  60.3384781  33.7660456  15.1030946  60.8223772  33.9931536  14.3090582
  59.8051071  34.5390916  15.2878821  78.6441851  67.2079849  51.5134335
  78.7091351  67.3976183  50.5774593  78.4804869  66.2658548  51.5561438
  14.9452531  58.2078409  46.7341471  14.8522127  57.8134155  45.8669662
  15.7457006  58.7294388  46.6754007  66.8435729  30.4537644  64.4541476
  67.3109937  31.0444226  65.0448029  65.9356320  30.4823698  64.7559037
  77.0655918  30.9582973   9.9367166  77.9134417  30.5807281  10.1708734
  76.8617582  31.5545988  10.6572056  21.1324453  61.1749125  59.7617102
  21.8697000  60.5644464  59.7574186  20.3689075  60.6296778  59.5720768
  76.7800808   3.0227789   0.9182066  77.3927832   2.3919652   0.5401898
  76.5732527   3.6174008   0.1971804  19.0704918  66.1790752  49.8587847
  18.2315731  65.8763313  49.5112324  19.4013500  66.7828941  49.1938305
  24.6115351  71.6703939  31.5631533  23.6665463  71.7199659  31.4190269
  24.7524047  72.1328926  32.3892784  66.6747284  22.8143358   5.9317660
  67.4316931  23.3513117   6.1660624  66.2872505  23.2618213   5.1795363
  26.0008430  50.7677698  32.8983521  25.6513047  50.5391884  33.7596345
  26.8881941  50.4088306  32.8970265   4.6339583  70.0081158  52.3427439
   5.4826546  69.7172546  52.0090532   3.9956725  69.4667101  51.8783045
  26.3105321  69.9357891  13.1068945  25.6900716  69.2600107  12.8337872
  26.3125324  70.5647993  12.3853862  61.1206055   9.2580843  44.4626856
  60.4760504   8.5555357  44.3777990  60.8794594   9.7078031  45.2725220
  71.2756300  65.6169462  41.4517212  70.5908346  65.7778740  42.1008682
  70.8298731  65.6970787  40.6084490  21.4290738  59.8788166  47.9304981
  21.3053298  59.5622396  47.0356798  22.3788762  59.9330235  48.0361795
  66.5676165  46.9952631  42.7475548  67.2097111  47.3171139  42.1148205
  66.6485023  46.0423374  42.7072525  24.8881149  68.8716125  64.6054220
  25.3047037  68.2459068  64.0128231  24.4897652  69.5213175  64.0262604
  14.8458350  13.0714381  62.9647779  14.0110409  12.6604617  63.1893873
  15.0409973  13.6399806  63.7096977  27.9420066  62.6443148  22.8857493
  27.0913076  63.0085564  22.6410675  28.3172488  63.2920265  23.4823155
  12.8809130  62.7368689  36.7130637  13.4782255  62.2329569  36.1603236
  12.9449344  63.6322451  36.3807416  43.1044722  51.6532898  50.5732584
  42.9528332  51.6163492  49.6288681  43.5456085  52.4913025  50.7124090
  18.1496036  45.0987816  57.4977589  19.0984678  45.2147818  57.4484301
  17.9882598  44.8262835  58.4010553  62.3482084  28.5032392   8.5385501
  61.8369007  29.3074942   8.4492797  62.5343513  28.4405065   9.4753784
  31.5471268  11.6352069  27.3792529  32.3221016  11.9703138  26.9283080
  31.8602371  11.4036107  28.2536435  52.2704506  53.2697535   5.4494292
  51.3670683  52.9543877   5.4234612  52.4802113  53.4709406   4.5374227
  66.7691755  48.3171463   9.3071574  66.9486666  47.4879503   9.7503781
  66.8093586  48.1040001   8.3748567  74.4424629  25.0737405  49.7455072
  73.6904955  25.6659603  49.7380590  74.1173029  24.2686820  49.3425369
  43.4832811  20.5597115  61.6998625  44.0390587  20.8744097  62.4128246
  44.0978956  20.2235913  61.0475540  47.5266552  49.6010351  20.3650904
  48.0741262  50.1355219  19.7899103  48.1489086  49.1410923  20.9285498
  66.4483595  53.9430666   8.7279278  66.5554762  53.0759811   8.3368731
  66.9852924  54.5191813   8.1838423  33.8918734  25.7013440   7.0763445
  33.9375162  25.7942533   8.0279303  33.3137059  26.4100122   6.7939591
  73.2623625  35.3103256  39.5724487  72.9312468  35.0716305  38.7066436
  73.2785082  34.4858027  40.0583839   9.7249788  45.8583641   5.6091553
   9.7897762  45.4205942   6.4579123   9.0099490  46.4855099   5.7170999
  24.0044570  57.3505783  26.6133523  23.7691188  57.7337170  25.7683372
  23.6266398  57.9465580  27.2601104  27.3719954  73.0999756  36.8135405
  26.8307638  72.3922777  36.4635944  26.9266462  73.9010286  36.5374827
  38.7953830  67.7051258  45.8829021  39.1860747  67.6436186  45.0112295
  39.3558717  67.1604681  46.4355612  40.0789404  71.6902733  45.5490828
  40.2713776  71.0018539  46.1857033  39.1466188  71.8720198  45.6673241
  69.7523737  67.9439974   5.2033430  68.9058399  67.5634718   5.4374695
  69.5393705  68.8162661   4.8716611  70.8755445   7.6314998  39.3903399
  70.4156494   7.2204792  40.1223135  71.8032312   7.5327384  39.6045375
  77.5844526   9.4752097  20.2498627  77.2168875   8.6558539  20.5811977
  78.4596634   9.2383277  19.9430585  25.3212857  50.7447529  55.7463312
  25.4009485  49.8390675  56.0456944  24.4017005  50.8343172  55.4961824
  56.3570404  72.2085476  24.2952943  56.2350464  71.7965746  25.1506472
  56.9596958  71.6262293  23.8327503  45.3031921  52.4233007  22.1121669
  44.7862625  52.6301336  22.8907752  44.9700451  53.0165911  21.4389300
  75.5768728  48.7962770  37.9629207  75.1814413  48.7498236  37.0924544
  76.1301613  49.5768070  37.9332972   2.2840874  47.6212311  62.8290558
   2.1367067  47.0507908  62.0746613   2.7504864  48.3764410  62.4707794
   9.7175151  41.2348223   6.4658958   9.4176322  40.7536411   5.6946850
  10.6692040  41.2716103   6.3701552  68.7775326  57.2877264  26.2339759
  67.8821278  57.5538588  26.4429092  69.0743256  56.8145609  27.0113158
  34.8568392  50.2981520  55.2891970  34.4833875  49.4268656  55.4219627
  35.7981181  50.1767969  55.4136848  36.0649896  50.8715200  12.8515148
  36.9541287  50.9961033  12.5196373  35.7340002  51.7591286  12.9887474
  72.0943737  29.4393802  17.4127114  71.9559097  28.5191298  17.6367581
  71.3538170  29.8968697  17.8108454  12.9833102  66.8646574  47.4758768
  12.5257385  67.0307875  48.3000517  12.4437165  66.2119770  47.0296907
   0.9256379  40.6882906  52.0131159   0.5218759  41.4296818  51.5619564
   1.8367755  40.6968212  51.7198801  20.3242874  55.7339954  11.8789041
  19.6694052  55.6891203  12.5755727  21.1389637  55.9556389  12.3299122
  26.9042730  63.6579418  59.8767996  26.7493486  63.0482197  59.1553640
  26.4014554  64.4382000  59.6431255  59.2843533  14.4018114   1.7452316
  58.6738348  13.6712503   1.6463487  60.0423622  14.1538084   1.2159419
  53.0604506  69.8450518   6.0403615  53.6426210  69.7449303   5.2871811
  53.1671667  70.7584906   6.3058186  74.3637228   3.4104449  51.0542250
  73.7452459   2.7238232  50.8046818  74.5982170   3.2042649  51.9590664
   4.3536264  45.8373737   9.3980432   4.7551227  44.9984503   9.1716856
   3.4805602  45.6070900   9.7157770  44.4494534  53.8434315  24.4943142
  44.2752790  53.0099154  24.9315095  43.6083460  54.3002033  24.5056748
  43.5829496  25.4491663  58.5954380  43.1710100  26.3015914  58.7365341
  43.6876440  25.0852942  59.4745684  11.4302969  32.4003267  28.0316091
  11.9618607  31.6219020  28.1981206  12.0664597  33.1096196  27.9397845
  10.4321921  25.3968096   5.4344738  10.1385915  25.0575709   6.2800193
   9.6687388  25.8538008   5.0815868  31.3661122  74.1014147  18.3558524
  31.4825988  74.9279308  17.8873098  30.4642868  73.8431883  18.1654346
  50.8247948  55.8132696  57.3978090  51.6399384  55.8749151  56.8998432
  50.1711082  56.2354422  56.8404055  69.1258669   4.7192878  60.8552265
  69.2997503   4.3847221  59.9754190  68.5226202   5.4498404  60.7187796
  77.0752907  30.8574414  25.7993507  78.0321360  30.8827138  25.7931018
  76.8557215  30.0057340  25.4217029  41.2103605  13.2389486  47.2480774
  40.3211546  12.9233980  47.0869017  41.3246632  13.1596744  48.1951141
  32.2494698  47.2187471  19.3406177  32.2264385  48.1616068  19.5040715
  31.6899753  46.8439960  20.0208807   3.6465383  32.4603128  18.4462178
   3.9069456  33.3812237  18.4647048   3.5733154  32.2507596  17.5151110
  24.2919064   7.6188713  60.5027533  24.2330956   7.5292891  61.4539385
  24.8508739   6.8920922  60.2278376   3.3869645   9.6375132  19.6877372
   3.9638090  10.3751755  19.4894004   2.5042081  10.0048137  19.6423125
  54.7488546  51.3381577  55.0482750  55.1839352  51.4098644  55.8978605
  53.9315796  50.8765507  55.2359200  67.5177813  70.3601456  19.4123793
  66.9061661  70.9400749  19.8660755  68.1051064  70.0463104  20.0999761
  34.6156240   4.7754261  39.3340588  34.4849920   5.5009037  38.7234449
  34.5051074   3.9893341  38.7991977  53.5434008   9.9818873  11.3230586
  54.4374943   9.7726387  11.5933251  53.6362457  10.3276467  10.4353309
  39.4556236  49.1798353  -0.2998021  38.9497828  48.5692883   0.2364711
  39.6859479  49.8903322   0.2988446  17.6715207  68.3206129  50.9586573
  16.9917250  67.6975489  51.2153721  18.4535480  67.7832937  50.8323526
  55.4806566  15.3127086  34.9301124  54.7647381  15.6613827  35.4612565
  56.2402487  15.8409131  35.1755762   7.7883756   9.6054584  44.2431736
   8.3157402   8.9730060  43.7551975   8.3461136   9.8680240  44.9754429
  26.5543389  64.2495823  56.4626598  27.1476030  63.6343193  56.8936110
  26.7989612  65.1051378  56.8153858  75.2723837  10.3889203   8.4156936
  75.7459688  11.2109268   8.2881868  74.6425581  10.3611529   7.6954293
   8.2487555  74.5346054  63.7735271   7.5300117  74.0952276  64.2280436
   9.0033766  73.9613496  63.9082718   1.1270214  34.2686129  60.5249166
   1.2027202  34.3791342  61.4726973   1.6144504  33.4663844  60.3376436
  24.8441529  72.1697044  15.6490517  25.0708699  71.2508583  15.7924211
  24.5898080  72.2126293  14.7272623  37.6488256  12.0151150  40.0267792
  37.4089098  12.9103935  39.7877216  36.9238591  11.7104948  40.5725479
  28.0400920  51.7833185  52.1568823  27.8024530  52.2944975  51.3832855
  27.3352695  51.9530439  52.7819014  65.8685160  45.5839300  60.4813051
  66.4188528  45.3928232  59.7218037  65.7892990  44.7457170  60.9366703
   0.6352827  41.8113708  56.1467838   1.3146640  42.3126268  55.6957674
  -0.1291239  42.3874855  56.1439371  59.6025419   9.3802482  61.0832214
  60.2827024   8.7112767  61.1612558  60.0667858  10.2088392  61.2021589
  76.3418102  43.6320686  12.6454234  76.1404705  43.3047819  11.7687380
  75.6021118  43.3484697  13.1826842  78.1672907  60.6472540  38.7902236
  78.9694691  60.1368189  38.6797857  78.2606602  61.3759089  38.1765699
  15.8148742  65.4252434  57.6229620  16.5211642  64.9530172  57.1820641
  16.1629391  65.6186104  58.4934139  60.4664135  20.6402731  57.6900768
  59.6246099  20.2507091  57.4537706  60.2976751  21.5823054  57.7083778
  21.8185019  71.8708897  50.1371050  21.3165736  71.9234180  50.9504557
  22.3147583  72.6889086  50.1086473  14.4289374  70.7165003  46.9520903
  13.5593867  70.8310127  47.3354959  14.3357849  69.9642658  46.3675404
  60.3834200  11.5663743  16.5355825  59.7677279  11.1008096  15.9695399
  59.8299599  12.1151447  17.0912504  52.7475166  14.2353427  51.6622829
  53.6559010  14.5084405  51.7907047  52.6367521  14.2112267  50.7118225
  36.5554070  54.4498205  25.6159329  37.4191761  54.8477125  25.7246542
  36.6841936  53.7766266  24.9477625   3.0795640   9.0623748  11.7049789
   3.0105206   9.3833542  12.6041102   3.4114176   8.1690061  11.7944038
  22.6221085  24.2893672  57.4618530  22.3486686  23.3927488  57.6555967
  22.5477028  24.7485232  58.2984352  63.7141466   6.3761604   0.3201915
  64.2111349   7.1844113   0.1938497  62.8730631   6.6650349   0.6742601
  74.9935675  65.3431797  10.9845674  74.2546749  65.9225750  11.1705029
  74.8978186  65.1227236  10.0580335   1.8980490  58.6942053  47.0438814
   2.2188985  59.5896482  47.1509838   2.5952327  58.1454086  47.4030256
  15.1736093  44.0984106   2.5133717  14.8865294  45.0023556   2.6426014
  14.3936336  43.5720015   2.6887706   3.9769843  18.1380785   9.5072466
   4.0862280  18.8594377   8.8876200   3.1402913  17.7402556   9.2665929
  67.7573919  10.0747383  15.7092345  66.9744635   9.9870688  16.2528944
  67.8179741   9.2423373  15.2405441  40.6206846  57.0928907  36.1545825
  41.0392475  56.4784813  36.7575192  39.8503280  57.4062777  36.6284752
  14.6200430  57.8629398  49.2418528  15.3345776  58.3591700  49.6411324
  14.7297108  58.0001307  48.3009052  19.5302618   5.8721232  47.0504284
  19.6654212   5.4494655  47.8985596  18.6192179   5.6791151  46.8291187
   6.0564053  39.0929198  45.2867126   5.7721323  38.1848979  45.3911972
   5.2430421  39.5900607  45.1999760  25.2445507  58.6524773  45.7528019
  24.7555780  58.5484600  46.5690851  24.6233821  58.4040880  45.0681973
   8.1492007  45.9797668   8.7320471   8.8965845  45.4565668   8.4423703
   7.9957879  46.5955591   8.0154604  23.1197929  55.4279613  39.5606375
  22.4167323  54.7783947  39.5605493  23.1166983  55.7843733  38.6722732
  67.4230337   6.6243637  63.0727386  66.6423655   6.4419812  62.5497389
  67.6261759   5.7914042  63.4983444   6.7579806  72.8771448  58.6201477
   7.2000140  72.0984840  58.9585638   7.2695261  73.1276274  57.8508520
  23.9750171  58.5617685  48.1711197  23.6953402  57.6898861  47.8921318
  24.8510599  58.4279490  48.5328817  18.9677799  53.1245565  26.0520267
  19.3414426  52.5938082  26.7555285  18.2854819  53.6424255  26.4792442
  29.8283601  69.1767979  30.6986761  30.6384945  68.8363981  30.3191447
  30.0586271  69.3900871  31.6029525  16.9392276  71.3217640  48.3220148
  17.5499475  71.5730381  47.6291132  16.3397980  70.7055378  47.9010868
  14.5898747  26.4905763   5.2228379  14.2387331  25.6362224   5.4738605
  14.3569446  26.5832305   4.2990464  10.3504002  66.2559891  49.7203779
   9.5180452  65.8414793  49.9475336  11.0052288  65.7675028  50.2191877
  61.2015581  45.1871395  27.3556662  61.5915251  44.9248075  28.1895375
  61.7174244  44.7258425  26.6943645  54.0461636   7.2765028  49.7066212
  53.7857437   8.0770528  50.1621819  54.1144753   6.6186094  50.3985310
   7.3013812  60.5187416  27.5934601   6.4390343  60.8342505  27.3231959
   7.9076499  60.9108305  26.9650221  49.6406364  37.4921465  55.3042269
  48.8489151  37.2469664  54.8253775  50.3303719  36.9513154  54.9195194
  46.5275717  42.8817749  53.0015993  46.0505342  42.8964710  52.1718693
  45.8691120  43.1023932  53.6603785  22.1089248  32.6603050   0.8745404
  21.7448977  31.8573398   1.2473222  22.8599719  32.3660726   0.3591891
  55.7482958  62.0858526  53.4568310  55.3829908  62.1672058  54.3378353
  55.3257513  62.7842569  52.9569101  68.9652109  24.4871116   5.9675997
  68.5287666  25.1810503   5.4734397  69.1774225  24.8898244   6.8096334
   0.7365078  67.6382542  35.6783938  -0.0450930  67.4543953  36.1994767
   0.4294976  67.6212502  34.7719240  46.6699409  58.9925098   9.2828298
  46.6518021  58.6889410  10.1904368  47.1564674  58.3149433   8.8133293
   8.9969450  69.9584484  18.1808531   8.9899004  70.0762892  17.2309613
   8.0736393  69.8731518  18.4184730  11.4000690  41.5110970  59.6385241
  10.4603207  41.3978100  59.7809029  11.7680025  40.6358814  59.7604227
  24.5868111   1.2220862  32.7038312  25.2165294   0.8304323  33.3090520
  25.1240349   1.7238198  32.0907378  27.5259066  28.2966256   8.6296177
  27.4170446  27.9845762   9.5279527  28.4642696  28.2143140   8.4595293
  56.6036510  68.3303022  58.3758163  57.2519159  68.8471842  58.8541603
  55.9349298  68.1217527  59.0281534   3.9091098  36.4287591  26.0251617
   3.9739516  35.6987715  26.6409087   3.2567242  36.1447811  25.3848648
   5.0566757  57.3691320  12.5014663   4.7258928  56.6577959  13.0499303
   5.6818414  57.8312731  13.0598807  72.3967123  44.1377974   3.6926222
  72.6258898  43.5858583   4.4403344  72.5797939  43.5926104   2.9274517
  58.3110094  63.0932236   7.4737805  58.3807230  63.4520769   6.5891361
  58.9903688  63.5485363   7.9711676  18.6612368  19.2033982  18.3838475
  18.8462377  18.2866728  18.1798387  18.3109879  19.1846037  19.2744672
  14.3213665  53.5510445   5.8713549  14.5963240  53.5411787   4.9545491
  14.7712660  54.3072176   6.2482125  14.5721555  17.7215576   3.8295841
  14.4392192  17.2370577   3.0148330  13.9534783  17.3288715   4.4454312
  78.6691666  61.3090086  52.0716906  77.8636122  60.9495115  51.7001104
  78.9672899  60.6408119  52.6888371  47.1919060  61.2966347  63.5948753
  46.7005110  61.4407063  64.4035816  48.0641651  61.6450214  63.7793303
  67.4341011  66.1599350  58.6009884  67.8936052  65.5800724  59.2083168
  67.5595856  67.0361996  58.9651966  39.7302771  11.4521241   5.0167990
  39.8461962  10.6131017   4.5708883  38.8066244  11.4644158   5.2676958
  56.0436392  13.7493539   7.9807073  55.6427908  14.5221114   7.5827175
  56.9061995  13.6886704   7.5701678  48.4822798   5.0495505  35.4010224
  49.3251753   4.6765369  35.1429105  47.8516817   4.6569443  34.7973323
  29.0598989  10.3276694  51.5263176  28.9460468  10.3928864  50.5781555
  29.7721314  10.9357107  51.7244148  18.9174652  73.5729694  34.1452575
  18.7436986  74.2597818  34.7889400  18.4790254  73.8740826  33.3494353
   3.8630009  44.8766994  44.2276239   4.7260898  44.9707556  44.6306896
   3.8178262  43.9557981  43.9704657  43.1526184   9.0612566  36.7561436
  42.5335121   8.5198104  36.2664723  42.7248096   9.2114544  37.5991464
  73.7284374  40.8443356  12.6934516  73.9555693  41.0518265  13.5998666
  74.4184399  40.2472401  12.4043024  15.9713340  39.6207619  63.3430481
  16.7914474  40.0556898  63.5764647  15.6808352  40.0680017  62.5481796
  12.0181942  70.6755590  48.0571699  11.3005233  70.4524374  47.4643803
  11.6295135  70.6321430  48.9308214  11.1900580  17.8072214  55.8832216
  12.0208848  17.5033605  56.2487745  10.5463254  17.6252222  56.5678501
  43.1600809  57.8113556  46.0101461  43.3010006  57.1487999  46.6864538
  43.0561781  58.6301374  46.4949465  64.9052954  29.1349125  34.8758125
  64.6091652  29.7222614  35.5711961  65.8001757  28.9024401  35.1235652
   4.6358937  28.1922293   4.1777188   5.1074886  27.9325199   4.9691609
   5.3170794  28.2802582   3.5110337  46.5494776  63.6190987  61.9217253
  46.8259573  62.8920698  62.4795961  46.6118050  64.3904352  62.4850988
  49.6922112  42.1620560  48.2179594  48.9094305  42.0974874  47.6708555
  49.4628429  42.8046036  48.8893414   1.8984416  16.8159080   8.0946666
   1.5027435  17.5756240   7.6674825   2.1078518  16.2191796   7.3761302
   4.9728268  61.7132473  26.7688346   4.8288393  62.6026726  26.4456868
   4.1259408  61.4489603  27.1282339  78.1420231   6.6898066   2.6667657
  77.3321342   7.1965784   2.7258635  78.5398579   6.9693577   1.8422598
  41.3297367  63.1608486  32.3786283  40.4868698  63.2560682  31.9350767
  41.1314154  63.3065653  33.3036518  42.1786737  58.4947824  57.0561743
  42.5974274  58.6181784  56.2043238  41.3164997  58.8993216  56.9600773
  11.4128721  63.7095451   8.0431962  10.7132399  64.3627977   8.0405986
  10.9666646  62.8814077   8.2201797  52.2922516   5.7246625  59.1433525
  51.9853354   5.6331390  60.0453854  52.0491600   4.8998797  58.7227964
   5.0414163  74.7896719  60.2538204   4.1105223  74.7579193  60.0332260
   5.4683071  74.2802954  59.5649529  73.7078714  23.5189533  44.8300028
  72.8521538  23.1265569  44.6567869  73.5260773  24.4526839  44.9364281
   9.0432090  53.0195284  48.4512615   8.1959957  52.5797415  48.3802032
   9.3138248  52.8730536  49.3576527  73.4461689  13.3550584  25.8626604
  74.2894411  13.1783211  26.2796569  72.7967930  13.1008959  26.5183568
  31.3094807  10.2741361  32.1055961  30.4828000  10.5811262  32.4778676
  31.4971447   9.4620097  32.5761986  25.7499886  60.5054903  63.1795645
  24.9692154  60.9467316  62.8450060  26.4814687  60.9941196  62.8021955
  10.4204905  28.6064005  14.9056256  10.5778730  28.5692859  13.9621818
  10.8214664  29.4300795  15.1831174   6.3475972  28.6821771   6.6494840
   6.6595566  29.5061493   6.2753409   7.0056593  28.4527373   7.3056424
   0.1307650  52.5531673  14.0083170   0.4274054  52.1608543  14.8294926
  -0.4961566  51.9224215  13.6542594  25.1021624  11.3151431   1.5945664
  24.6355700  10.5091667   1.8157606  26.0264015  11.0979927   1.7164630
   3.3228192  15.6365836  57.5131702   2.6231003  15.2649724  58.0503225
   3.3385468  16.5642405  57.7486229  67.5482607   6.6715664  55.4355478
  67.5125313   7.5097680  54.9747086  67.1651602   6.8535084  56.2936640
  44.8262501  23.6027908   8.4721386  44.8194790  24.3522596   9.0675211
  45.7249355  23.5650897   8.1447572  11.9115782  54.4933653  39.4906402
  12.3935974  54.5569658  38.6661124  11.0175025  54.7509432  39.2658830
   4.2960477  40.7960224  23.3140945   3.9654562  40.4694891  24.1509438
   3.7586504  41.5660286  23.1282949   7.4923360  18.3018410  60.9425020
   6.9488782  19.0822840  61.0510921   8.2004046  18.4128630  61.5769672
  15.0088763  15.1959360   9.9313176  15.0975788  15.8441877   9.2326528
  14.9247909  14.3598139   9.4729924  33.1617498  37.7406430   7.2229373
  32.4145865  37.2283125   6.9139075  33.9218903  37.1866608   7.0453882
  49.8632431  73.2632971  34.4211555  49.5041561  72.3764849  34.3919659
  50.2991629  73.3173132  35.2716160  70.9625101  48.5420418  24.2010522
  70.7960320  47.6863480  23.8056946  70.1379919  48.7725878  24.6291375
  24.7911692  11.4743781   4.4620794  25.0417733  11.7333722   3.5753149
  25.2128005  10.6248677   4.5916575  58.9256239   2.9194215  30.5162883
  59.2841339   3.7202895  30.1337790  59.6785831   2.3336886  30.5950069
  33.8090301  51.1042690  52.6237249  33.0483055  50.5406427  52.7646494
  33.9720678  51.5045261  53.4777975  60.8700228   6.0110217  56.6069651
  60.9305620   6.9599092  56.7173290  60.7640934   5.6727540  57.4961138
  49.1168737  56.7199850  51.6187286  48.2975674  57.1393538  51.3558722
  48.8432074  55.9664869  52.1417761  34.1703248  33.1088209  11.4184737
  34.5575452  33.2879066  10.5616069  34.8351359  33.3928704  12.0458269
  72.6967144  73.3543730  63.7538862  73.1773996  74.1150713  64.0802479
  73.0522156  73.2041597  62.8779364  35.3136730  55.6248331  23.2658339
  34.6069694  56.1890316  23.5796547  35.6527734  55.2038479  24.0557790
  44.1382360  48.6323309  46.5753126  43.6752272  48.6644697  45.7381630
  44.2477989  49.5501947  46.8238115  40.1332235   3.0212498  32.0063305
  40.4091835   3.8121343  32.4695587  40.7818842   2.9123557  31.3109064
  31.6469169  61.4796448  46.8102980  31.3632679  60.6516075  47.1977711
  31.8804383  62.0272636  47.5598431  75.8318043  46.7141533   7.0333666
  76.6131258  46.1874342   7.2017074  75.1765633  46.3717651   7.6413655
   6.5898871  16.8842447  36.2881899   6.0912126  16.5396833  35.5473566
   6.9850212  16.1111641  36.6912365  51.0156822   4.3857476  41.3497877
  50.8331442   5.3051382  41.1557961  51.6281605   4.4130912  42.0848751
  47.7542019  54.7182798  57.4660540  48.2449532  55.2544880  56.8432617
  47.7497196  53.8435078  57.0774889  69.6471548  12.4816954  56.5281725
  69.8555136  11.6496515  56.9530535  68.7514067  12.6743782  56.8051863
  52.5815725  10.7789564  13.7176788  53.1299591  10.3634930  14.3831825
  52.5795078  10.1593482  12.9880810  56.0008478  30.5318737  53.7390804
  56.2807131  29.6266484  53.6031628  55.6092119  30.7893682  52.9044867
  68.7085819  12.5933087  16.1155796  69.5882940  12.4412453  16.4608526
  68.3157492  11.7216969  16.0685909  26.6997766  57.5086594  48.7822485
  26.7458200  57.0811033  47.9270840  26.3366079  56.8412876  49.3644476
  42.6225233  69.5246935  52.0139694  43.5554790  69.3724203  51.8635178
  42.5765467  69.8663092  52.9069519  40.1050901  19.0778458  14.4725895
  39.1640258  18.9029181  14.4670296  40.1722050  20.0297666  14.3979359
  64.7442484  10.8997476  33.0021834  64.8316050  11.1726868  33.9154768
  64.2538738  10.0787342  33.0434227  59.8739004  68.1668043  30.9878612
  58.9844370  67.8709602  30.7940459  59.9629021  68.0541754  31.9342351
  12.2601676  63.5957289  43.7388945  11.5616834  63.9138222  43.1669092
  13.0407262  63.5927391  43.1848669   4.2174372   6.6013616  62.7497053
   4.7090143   5.9188354  63.2065916   4.3998206   7.4000257  63.2447863
  73.9628077  59.7119665  10.9172320  73.0624533  59.8156548  11.2252057
  74.3854904  59.1765976  11.5887606  14.6030140  57.0508528  44.3072271
  14.4990039  56.1623001  44.6476555  14.9348140  56.9292116  43.4176540
  20.4863024  40.5008841  21.4980578  21.3730574  40.6720591  21.8152237
  20.3010440  39.6042037  21.7771244  29.9045444  55.2907276  61.8520641
  29.3401313  55.6745052  62.5231695  30.3261852  54.5504189  62.2884083
  77.0550489  36.3736510  13.2380176  76.1027002  36.2888432  13.2834935
  77.3645926  36.0557389  14.0861607  46.6420174  33.9959455   4.4029182
  46.4265156  34.6471596   3.7353024  47.5686741  34.1440129   4.5916313
  35.5687189   1.9275394  37.1538758  34.6898389   1.6309258  37.3901439
  35.9634519   1.1770918  36.7097497   5.6281316  11.4822090  38.1171060
   5.4640311  11.1765361  39.0092182   5.1244581  10.8858383  37.5631309
  15.0399303  70.0651312  41.0893917  14.5008326  70.3253698  40.3424740
  15.0455165  69.1084337  41.0589695  71.0292625   6.6631371  46.9922113
  70.8894014   7.6096880  46.9655228  70.5378580   6.3271844  46.2426186
  70.2254772   4.0145597  41.5384007  69.7527742   3.3575672  42.0494270
  71.0305738   4.1686940  42.0326567  51.3901234  73.0490398  45.2834177
  50.7646894  73.6187744  45.7311487  50.9214258  72.7419949  44.5073557
  62.4796295  41.3303471  22.0575070  63.3428478  41.3967037  21.6492343
  62.4382448  40.4320621  22.3855424  67.4702883  67.5141239  51.4548445
  68.3866835  67.5293112  51.7309284  67.0533800  68.2045698  51.9703054
  16.8752825  34.4232512  18.3579791  16.6669488  33.5823703  18.7651026
  17.4143124  34.8762846  19.0063930  53.6031580  29.3037605   9.7441244
  53.6996508  28.4410524  10.1474285  54.2962122  29.3388128   9.0848273
  50.6547594   1.5281481  41.6893244  51.3382864   1.2104535  42.2793198
  50.8353424   2.4634317  41.5951586   1.3565832  60.4915333   5.5262756
   1.3333462  61.3385105   5.9716046   0.4887035  60.4043150   5.1320547
  39.7120881   6.8984336  62.4665928  39.2446160   6.1362958  62.8084183
  40.3167200   6.5375650  61.8181896  46.0138416  69.6703100  43.0968714
  45.3322029  69.6425056  42.4254322  46.3813639  68.7864876  43.1018114
   9.6438569  19.2631829  48.2373142   9.5120108  19.9818540  48.8556671
  10.4988003  18.9009345  48.4698629  58.3657265  74.2635918   0.9990308
  58.1614542  74.2393398   0.0641952  58.9349890  73.5069942   1.1395109
  10.6439316  41.4109325   9.6027631  10.8444560  42.2976017   9.9024975
   9.9390787  41.5271473   8.9656538  47.8557110  71.4003372  44.3788767
  47.0855761  71.0745573  43.9130592  47.5137568  71.7169428  45.2149725
  64.8094273   5.7542068  64.2959404  64.8305941   5.3636712  63.4222889
  65.6858826   5.6000626  64.6484995  20.4257202  10.6836510  59.0191317
  20.9952402  10.0398338  59.4402981  19.5492887  10.4767096  59.3435955
  27.7755404  57.8286171  45.8793688  27.9616094  57.8522396  44.9407291
  26.8719387  58.1359100  45.9522247  40.4611540  67.1159363  36.5332270
  40.9559679  66.3144684  36.7036414  40.6596422  67.6829815  37.2784066
  30.1230526  46.4925575  47.9688692  29.2711020  46.4908886  47.5325108
  30.6335473  47.1491623  47.4950600  17.5450718  50.4516506  57.6254892
  18.3208370  50.5334711  58.1802177  16.8909049  51.0108328  58.0445528
  25.4283047  19.6557605  60.8427525  26.3241863  19.3832064  60.6444025
  24.9682951  19.5940995  60.0056028  14.9499345  19.2773974  15.8402383
  14.1712201  19.0942931  15.3145885  14.7431302  18.9245510  16.7056644
   4.2334768   2.3105483   6.7562997   4.7556874   1.5814152   7.0908040
   4.3348467   2.2614951   5.8057475  53.6328077  28.5252428   1.0123436
  53.9597654  28.2867241   1.8797764  53.2836437  27.7087164   0.6551328
   9.8996246  74.0748215  54.1746283   9.4221997  74.2316675  53.3599567
  10.7760477  74.4223785  54.0093470  28.3454728  63.1799030  41.1057901
  28.4670711  62.2877073  40.7810879  28.1467605  63.6944771  40.3235102
  33.9194083  70.1789379  29.4234228  33.3349442  69.6976566  30.0090861
  33.3737707  70.8769321  29.0610433  29.4037747  69.3525600  53.0418873
  30.1807094  69.0467739  52.5738049  29.5520592  70.2901173  53.1653214
   5.8227730   8.2919908  54.2823124   5.8330435   8.1286865  53.3392000
   6.5444946   8.9038086  54.4273233  66.6119242  43.5935211   9.0428543
  66.5257502  44.3843269   9.5752370  67.2194910  43.8394403   8.3452737
  74.9394846   8.4906763  64.2474365  75.7626724   8.5905123  64.7255850
  74.2761660   8.8541782  64.8340416  70.4546833  67.9933643  36.0354447
  69.6663904  67.7965832  35.5293798  70.8360004  67.1366835  36.2276125
   1.8904856  41.0730219  18.1901634   1.2692231  40.9185791  17.4785364
   1.3528699  41.4031792  18.9100218  17.3078942   7.5702882  33.3300352
  17.6114261   8.3980352  33.7027740  17.4940097   6.9200587  34.0073800
  38.4468699  64.9293327  42.7579212  38.6088037  65.8116102  43.0919886
  39.1705537  64.4061518  43.1025839  75.1392412  19.7541845  14.6826100
  75.6555462  20.5549169  14.5904851  75.1609612  19.3538630  13.8134134
  41.8120337  59.3180418  59.6049070  42.1218824  59.0471745  58.7406969
  42.1775818  58.6680365  60.2049875   9.7030306  32.3112774  22.3107719
  10.0416446  31.4685965  22.0083451   8.9437115  32.4785805  21.7524910
  76.5906858   6.6562134  29.6493173  75.6438637   6.6322207  29.7878480
  76.9470072   6.9633657  30.4829383  52.3929548   8.3588326  37.6750159
  52.8111935   9.0118611  37.1138883  51.4686823   8.3872455  37.4277425
   3.5060018  21.6846228  48.5378313   4.1958424  21.3892436  49.1320515
   3.3628678  20.9431720  47.9496145   6.7188734  68.6673212  23.1986499
   6.7274058  67.8095961  22.7738404   6.1099899  69.1879940  22.6748228
  38.5556126  71.5032053  52.6999044  38.7067056  70.5600548  52.7620983
  38.3493996  71.7722797  53.5950661   1.1117668  65.2914047  12.9102564
   0.9904456  65.3907394  13.8545263   1.8364936  65.8798218  12.6986754
  31.2343788  62.8709507  43.0038214  30.9747243  63.4860992  42.3179626
  31.9021916  63.3389664  43.5050344  19.7810221  33.7468028  22.1837664
  19.6541047  33.4733868  21.2752700  20.7284141  33.7090588  22.3151278
  19.8797977  68.6299038  63.3881712  20.8120942  68.7228155  63.1921530
  19.5499587  69.5280838  63.4147167  77.4101067   1.0807078  61.3802099
  76.9467115   1.6476503  60.7637119  77.2879791   0.1975910  61.0317564
  32.2012258   3.3563209  48.0041742  32.1360159   4.2610043  47.6983500
  31.2992883   3.0358449  47.9981089  35.3871679  33.2624125   8.7066835
  34.8693299  33.1350446   7.9117924  36.0126877  33.9497399   8.4774679
  77.1573925  24.5852685  56.8899965  77.2118473  23.6703277  57.1659517
  76.9480038  25.0650764  57.6913548  18.7284720  36.0473561  23.5141587
  18.1573772  35.9994602  24.2808342  18.9851534  35.1400089  23.3496428
  64.2861414  50.9225416  60.6300974  64.6099234  51.3353062  59.8294592
  64.4692755  49.9907207  60.5101156  47.3242426   9.7572148  33.6871696
  47.4223375   9.9762636  34.6137905  46.4458227  10.0625908  33.4605551
  67.4040794  15.7121253  48.6293364  66.9428015  16.3056862  48.0367661
  68.3091116  16.0237586  48.6238718  26.1587977  13.0773878  53.6093664
  26.0309935  13.9191830  54.0467215  27.0095730  12.7710772  53.9233494
  48.7586737  13.8706851  52.1295214  49.1115332  12.9809129  52.1348095
  48.1447601  13.8805223  51.3951874  49.1415215  41.9592428  57.8791237
  49.3126011  41.2667990  57.2407770  49.9752855  42.4225616  57.9591417
  58.4912348  15.1218474  37.6123261  58.2072878  15.8160520  37.0176101
  59.4346809  15.2554703  37.7033520  47.4744368  71.6561651  24.2624021
  47.1254635  70.8756781  23.8319492  48.2049513  71.9293404  23.7074614
   8.9538443  54.3113041   2.5409359   9.0265530  54.4993258   1.6052049
   8.0146241  54.3517876   2.7210975  19.2613614  73.2994318  29.9794865
  19.8047411  73.3770561  29.1953015  18.5459697  73.9193392  29.8374939
  18.7776053  69.2485619  42.5843716  19.6827102  69.4276714  42.8391933
  18.8435328  68.9006090  41.6950941  74.6628952   4.3491864   7.9493278
  75.3848600   4.6859017   7.4186480  75.0886869   3.9558810   8.7110633
  17.9237533  12.8240597  19.2800176  18.0805635  11.9923925  19.7271991
  18.7769926  13.0675232  18.9209330   7.3332936  63.1969738  25.3452134
   7.2324789  62.3634529  24.8855257   6.4369285  63.4924650  25.5047321
  73.1312084  15.6981003  52.9186916  72.8930235  15.4851687  52.0163822
  73.9462614  16.1939120  52.8406143  40.1710510  57.3956537  19.9465382
  39.7300243  58.1727600  20.2898097  40.1582766  57.5129843  18.9966428
  24.1311812  71.4630842  42.7745819  24.6055365  70.9346485  43.4164286
  23.3967662  71.8328714  43.2646084  44.1305733  58.0094051   7.6627403
  44.3312550  58.8460827   8.0821818  43.5593748  58.2397366   6.9299972
   5.6999558   3.0322689  50.2708483   5.6718302   3.8324100  49.7462368
   4.7958606   2.7179328  50.2768993  32.5456023  13.7586308  11.8901312
  33.4305239  14.1085029  11.7865193  32.1625304  14.2809546  12.5948763
  70.0769186  40.4840326  55.9546518  70.8625889  40.2573872  55.4570770
  69.3648195  40.4254484  55.3176880  28.7129879  73.1557989  18.0004025
  28.2899117  72.9312372  18.8291430  28.2866859  72.5933695  17.3537374
  24.0633869   4.4402760   1.0434272  24.9171329   4.1295886   1.3447924
  23.4435678   4.1016343   1.6894752  13.6417532   2.7719349  51.4645863
  13.5161006   1.8553555  51.7101955  13.1980062   2.8567645  50.6207132
  61.4586926  24.8212099  30.5439401  61.1261272  25.6406450  30.9102225
  62.4028111  24.8558164  30.6978130  59.8044014   2.5978842  55.1903200
  60.1771402   3.4465092  55.4293442  59.2569828   2.3576139  55.9378719
  55.4340172  36.3204145  20.2585053  56.2521935  36.7972088  20.1189303
  54.9524832  36.8515491  20.8927417  57.9582024  73.7685299  20.1405382
  57.1817303  73.7736320  20.7002687  58.5512400  73.1446934  20.5593085
  57.9010916   1.4114922  60.3738308  57.5885677   2.2566926  60.6966305
  58.1992197   0.9509177  61.1581945   8.9355028  10.6749976   7.1977150
   9.6164823  10.1660955   7.6376212   8.1379664  10.4855108   7.6919442
   4.1639230  63.8619661   5.6374228   3.2434919  63.6575460   5.8025002
   4.1502497  64.7429132   5.2632862  74.0542603  54.2237043  59.9405098
  74.9181557  54.3515635  59.5486307  74.1362715  54.5834970  60.8237171
  48.5577011   7.4492097  18.8842487  47.6365280   7.3663539  19.1308320
  48.5397148   7.6069474  17.9403067  50.8376360  73.8702297  59.5028019
  50.4586506  74.1851568  58.6821795  50.6595898  72.9297352  59.5034695
  48.0428934   4.8697105  52.0819807  47.7299500   3.9671639  52.0210648
  47.8140688   5.1431108  52.9703045   5.6828880  45.6381321   5.4746908
   6.1583984  45.9012747   4.6867332   6.2161094  45.9684420   6.1977404
  61.7416430  20.2194452  55.4440737  61.3177919  19.4937122  54.9859333
  61.3569307  20.2067828  56.3204670  13.1970096  33.1187224  58.3350039
  13.5226405  33.5388398  57.5389528  13.9738953  33.0102921  58.8835716
   8.3162600  -0.1750390  22.0790744   7.4869734   0.2233566  22.3432612
   8.9285547   0.5588361  22.0265913  62.0936394  32.7633715  47.2532654
  61.7025852  33.2123852  46.5038061  62.8088331  32.2495461  46.8781519
   2.1361066  14.1884720  53.8305950   2.2935352  13.3007920  53.5089254
   1.7968222  14.0653121  54.7171354  50.9822130  67.1289349  58.0388594
  51.7604542  66.7816305  57.6030302  50.3127384  66.4582491  57.9038954
  49.3935204  63.1422901  60.8786249  49.8819637  63.4488964  61.6425943
  48.4921885  63.0565166  61.1892271   0.8009883   6.0706574  44.4600582
  -0.0928144   5.8507234  44.7226954   0.6931658   6.6570455  43.7112236
  36.5220308  30.0158167   6.6652429  36.2730551  30.0627351   5.7421815
  37.4782372  29.9738407   6.6535652  77.0349360  55.0724649  18.3950377
  77.2922850  54.3230438  17.8580368  76.2092113  55.3690481  18.0123532
  71.3349009  49.2293167  18.3754027  70.7442665  48.8379288  19.0189815
  72.0529985  48.6013746  18.2963192  60.7967186  72.9556942  37.5397372
  60.9928560  72.2019529  38.0961895  61.2371063  72.7633142  36.7119217
  20.2507925   3.0603009  42.1095753  19.8695600   2.6277453  41.3455153
  20.6068826   3.8803881  41.7676830  62.6205635  67.6572084  41.0782576
  62.1595621  66.8348885  41.2440872  62.5682211  67.7740526  40.1296568
  15.0017345  10.3036809  30.0471973  15.8158684  10.4774165  30.5196738
  14.7658730  11.1460674  29.6586251  63.6066437  47.7598953  11.3727236
  63.8120556  47.3265219  10.5443358  64.1099596  48.5737228  11.3485312
  62.6373625  67.7245665  50.7835627  62.9873562  66.9262981  51.1791658
  63.0776644  67.7846670  49.9357700  65.4393387   5.9313637  61.5008402
  64.5809412   6.1367232  61.1304188  65.9259319   5.5401820  60.7752800
  19.8944294   4.8438269  30.0265527  20.8417344   4.7072363  30.0401998
  19.5283401   4.0138420  30.3320622   5.0338686  33.0822301  55.5300426
   5.1999205  32.9366064  54.5986700   4.6282333  33.9483809  55.5684471
  70.5315208  13.1778646  32.5517297  69.7269297  12.7885211  32.2092676
  71.2348747  12.6897478  32.1236348  67.1285343  -0.0648455  63.1293964
  67.7581692  -0.1800852  62.4177027  67.0652199   0.8836042  63.2419443
   3.3531508  18.8446558  55.7991648   2.7722508  19.5958829  55.6789780
   3.1971842  18.2958996  55.0305462   2.7410322  68.8018513  15.1604593
   3.0715206  69.6961308  15.0751865   2.7452904  68.4587097  14.2668891
   7.2626120   7.2991037  37.2508121   7.2370458   7.4198020  38.2000256
   7.0042020   6.3870198  37.1183014  23.0725360  13.6678839  62.5643206
  22.6616216  13.2461226  61.8096685  23.5382843  14.4182360  62.1951580
   9.5384854  24.7652531  28.1132555   9.1925174  25.0410771  27.2644567
   9.5364892  25.5623651  28.6431980  59.8927212  57.1795607   1.5960483
  59.3753338  57.4252319   2.3629823  59.2426586  56.9843483   0.9211066
  31.8131089   4.0542400  62.4078703  32.1083403   4.2645916  63.2937717
  31.0996604   3.4289533  62.5353146  75.8180332  55.4196119  25.7644916
  76.4225054  55.3710461  25.0238943  76.1188936  54.7370720  26.3643718
  68.9830732  54.0060043  14.9103260  69.8254395  54.2933321  15.2625859
  68.9615822  54.3607378  14.0215421  66.6648006  74.8536921  58.3245468
  66.7634249  73.9024115  58.2849360  66.7211866  75.0617075  59.2571688
  10.2749276  14.7740221  19.1092169  10.5085588  14.3883252  18.2648909
   9.7490406  14.1016722  19.5423687   2.1707527  17.8030288  44.2540646
   1.3929474  18.1181145  44.7144699   2.8352499  18.4713888  44.4213057
  75.4989672   5.6061620  52.8813982  75.2295256   5.9851992  53.7180328
  75.3204918   4.6703064  52.9738808  10.5199051  11.2598705  56.4349604
  10.7831061  10.4535794  56.8786430   9.9189979  11.6848254  57.0469713
  73.4995174  67.7222776  21.9202733  73.8927603  68.5571051  22.1745372
  73.6369944  67.1524286  22.6769829  68.1689072   6.0630518   7.6540649
  68.3662558   5.8115625   6.7518246  67.3736811   6.5915781   7.5869024
  15.5134892  10.2979159  22.5765896  16.3099551  10.8285129  22.5950241
  15.0504649  10.5329299  23.3807087  66.4125967  25.1586461  35.3323793
  66.0614157  25.4359055  34.4861960  66.7802858  24.2906284  35.1663041
  26.3343787   4.8360237  47.2564125  27.1908355   5.1091558  46.9276047
  26.3758302   5.0007015  48.1984282  77.2814417  40.6182718  57.5956488
  77.5101423  41.3235807  56.9902849  76.3258600  40.6449270  57.6444101
  56.1186743  65.5074501   9.0327471  56.8262053  65.0955629   9.5287162
  56.4427710  65.5368519   8.1325662  39.5938897  57.8072309   7.1697044
  39.4363308  58.1999207   6.3110983  39.4969654  58.5328722   7.7863789
  11.2847912  67.5854254  14.6769583  11.0924613  66.6504478  14.6058321
  11.3668978  67.7421808  15.6176603  50.8842611  44.3564129  59.9994373
  51.3854313  43.8922834  59.3288803  50.2638340  44.8930693  59.5061779
  17.1395481  10.4718351  25.8737922  17.1549499  10.7491148  26.7898226
  16.2244403  10.2457905  25.7073236  73.0897188  27.6374340  24.3338227
  73.8925219  27.2059560  24.0412998  73.2671118  28.5718632  24.2260790
   9.3305439  15.3965569  60.2637196   8.4880066  14.9472475  60.3306770
   9.3826187  15.9275842  61.0584068  76.2375450  43.7677193  22.5095749
  77.0562172  43.7904596  22.0141077  75.8118677  42.9566574  22.2317076
  42.9116488   4.6436080  17.2936070  43.7118912   4.1965348  17.0179784
  42.5695276   4.1044167  18.0066705   0.6799193  66.9178963  45.8763218
   0.6786843  67.8600454  45.7072639   0.5822774  66.5192604  45.0115681
  59.4729853  60.8248520  15.1478827  59.3204594  61.1511564  14.2610407
  59.7895002  61.5872335  15.6324708  61.6166306   7.1919155  31.3105106
  62.0911264   7.8171527  30.7626367  62.2556448   6.5042484  31.4976215
  10.5877125  15.2489460  43.0313635   9.6880668  15.5424190  43.1753826
  11.1231589  16.0224485  43.2080650  61.1266851  14.9879897  38.5679197
  61.2862301  15.6285703  39.2610526  61.9533587  14.5123780  38.4864306
   0.7428001  28.8669658  39.8912454   1.5659210  29.3385506  39.7635341
   1.0091108  27.9672623  40.0805712  24.1609406  27.7400184  14.9151468
  23.5802603  28.4256673  15.2451885  24.2969513  27.9639912  13.9945114
  28.4342098  73.8826466  25.8483338  27.5527549  74.0775871  25.5301023
  28.3096075  73.1743288  26.4799905   2.5349045  26.5184999  61.2221861
   1.8735290  25.8374524  61.3446140   2.5035101  27.0308518  62.0301104
  24.7140312  25.5482554  51.1497593  25.1432371  24.9662089  51.7768478
  25.3640842  25.6774187  50.4591227  63.7923336  39.5280552   8.6243057
  64.2973328  40.2971506   8.8883030  63.7871742  38.9671206   9.3999076
  70.4327059  13.4800029  35.4648256  70.4070330  13.3272648  34.5202374
  70.9931326  14.2491043  35.5679417  43.4020472  61.9132042  31.5639114
  42.6972628  62.2570038  32.1128321  42.9877663  61.2221193  31.0471821
  60.2738333  26.8836498  31.8381453  60.8651638  27.5961399  31.5954161
  59.8717976  27.1744108  32.6567173  71.9851303   5.1521593  55.0412846
  72.5683451   5.8927572  55.2074242  72.1540117   4.5475078  55.7638550
  75.1713085  51.5930939  12.1835852  75.0664711  51.1868525  13.0439389
  76.1086321  51.5282440  12.0007062  11.9655514   7.4039346  26.7545009
  12.7790403   6.8995720  26.7451763  11.8031931   7.5794816  27.6813531
   1.3299753  15.7017243  47.8202629   1.5962487  15.1287580  47.1012115
   1.2040215  16.5575624  47.4104977   3.1938130  74.1955853  29.3965220
   3.9370567  74.0769053  28.8051391   2.6616147  74.8730659  28.9793730
   6.7569602  73.3943033  18.2630193   6.6387993  73.3873606  19.2128730
   6.2398291  74.1417408  17.9627860  18.1663585  22.9859781  22.9652429
  18.1447613  22.0330906  22.8770852  17.4045205  23.2895112  22.4715805
  33.7456584   6.3566965  33.3525181  33.7738824   5.6682658  34.0169716
  34.6309423   6.3751209  32.9889703   9.0852910  26.2687588  42.9085350
   9.0278482  25.8929753  42.0300579  10.0077140  26.5040612  43.0085373
  75.5839062   2.4397349  55.9922075  76.1415625   2.9999265  56.5320539
  75.6957150   1.5636104  56.3611746  27.4015069   7.0493269  25.0648904
  27.0544600   7.6494449  25.7249260  27.0403385   7.3681498  24.2377615
  66.5967417  49.0956688  51.2190008  66.7546940  48.5946131  52.0191431
  66.9464874  49.9662781  51.4086199  58.4255552  57.0199156  15.9410000
  58.7925243  57.3380899  15.1161790  58.8784266  56.1919546  16.1010551
  60.9126234  45.5387688  23.0018878  59.9918604  45.3246546  22.8515983
  61.2020922  44.9044037  23.6576486  42.1634054  -0.0134964  16.4718735
  43.0136156  -0.4532473  16.4711022  42.2945356   0.7623246  15.9267688
   1.9836572  21.4411831  37.0873523   2.1645385  22.1139002  36.4308739
   2.6474226  21.5809655  37.7627110  72.7967548  18.1847811  37.4208808
  71.9685078  17.7112317  37.4982882  73.2311726  17.7858746  36.6669655
  18.5668147  39.6972728   4.0588731  19.4294667  39.8349762   4.4501549
  18.4758759  40.4074097   3.4235260   6.2280732  58.9411974  60.0422668
   6.2930024  59.8691368  60.2679777   6.9970691  58.7727737  59.4977379
  15.3143084  43.3563042  40.9972858  15.2629578  42.9175472  40.1481152
  14.4806492  43.8196421  41.0782766  19.1832924  67.6124191  40.3335714
  19.7326446  66.8916225  40.6416178  19.2934930  67.6081228  39.3827462
  50.5718422   6.7876703  40.2134991  49.7242928   6.8961406  39.7820783
  50.9977961   7.6400161  40.1223946  45.9184599   9.4762391  25.4631114
  46.0749960   8.9521134  26.2486172  45.5209780   8.8651931  24.8427391
  10.0838387   4.1966528  49.3763590  10.9694219   3.8596985  49.5121384
  10.2063358   5.1307595  49.2070341  63.4886122  26.8993616  54.4552040
  63.2969093  26.6587448  55.3616190  64.0901804  26.2205577  54.1493034
  56.2645912  20.9340835   7.6170594  56.7063761  20.7844090   8.4529167
  55.7586765  21.7351055   7.7536082  33.7458825  57.4439526  24.6095824
  34.0812206  58.0924845  25.2286005  33.0581594  57.9047441  24.1290188
  51.9027424  67.6819420  29.4958973  52.0798826  68.5243416  29.9144864
  50.9477139  67.6211643  29.4746590   9.2804438   9.9367660   2.1279819
   8.7319607   9.6413016   1.4012779   8.7246031  10.5443490   2.6159534
  15.7130098   7.5438172  23.7606168  15.6110346   8.1559241  23.0318117
  15.4352152   8.0398685  24.5306802  16.7938256  31.7271423  16.2630701
  16.4393353  32.6162815  16.2637734  16.0933053  31.1902976  15.8925283
  75.3472948  34.4603086  16.6271901  76.2826157  34.2848277  16.5241826
  74.9638891  33.6062026  16.8265414  53.5231638  68.1256247  63.8738012
  53.9112377  68.2036161  64.7453213  52.5868607  68.0129910  64.0377474
  47.6135349  70.8888006   0.8556139  47.4332666  71.6985035   1.3332312
  47.1229362  70.2170610   1.3292305  15.3440094  25.2252436  33.1773448
  14.8980665  25.1246500  34.0183258  16.2745333  25.2466893  33.4007239
  73.8327074   0.2881590  30.4553986  73.6258459   1.2227233  30.4607368
  74.1886806   0.1166606  31.3272405  72.8287601  49.0116930  55.3042030
  73.7685537  49.0674210  55.4771614  72.4652052  49.8044205  55.6987047
   7.1371883  11.1754739  50.2834606   7.5666803  11.7582023  50.9097195
   6.2282658  11.1326790  50.5805492  72.6007414  18.8374913  40.7139158
  72.6412439  19.1422546  39.8074317  71.6800785  18.9330161  40.9578085
  -0.2672128  20.4817343  38.6479545   0.3674813  20.2956891  39.3398952
   0.2391883  20.9352160  37.9740524  11.5063608  18.0211890  31.3064599
  10.6740642  18.1498015  31.7614031  12.0750427  18.7113500  31.6477966
  26.4155531   3.8619930  63.0760098  25.6554770   4.2817631  62.6731348
  27.1302128   4.0171283  62.4584150  79.4477535  45.9877920  48.0650091
  79.8356428  45.2508926  47.5930452  78.6259430  46.1605358  47.6056433
  49.3168402  51.3953495  19.0368462  49.1793680  52.0584488  18.3603597
  50.2108383  51.0860157  18.8908613  60.6223631   1.4665648  10.4316330
  60.9601784   2.2560978  10.0088429  59.8825884   1.2003481   9.8856580
   6.4438266  73.7908220  54.4985723   7.3004788  74.1381788  54.7470140
   6.0003757  73.6288834  55.3312540   8.9517385  29.6550488  44.2211914
   9.4521534  29.3380833  43.4692955   8.9417070  28.9169550  44.8305750
   7.0601040  20.8377171  43.9501762   7.5021946  20.5594778  44.7522783
   7.6934016  21.4067197  43.5126781  31.4442587  11.5382016  51.6467619
  31.5566730  10.6393981  51.9561911  31.8844056  11.5557587  50.7969427
   2.4871254  23.4271097  42.3494053   3.2389402  22.8493452  42.4805307
   2.3843607  23.8801384  43.1863260  52.3894358  32.1357322  23.2212615
  52.8694201  31.3114476  23.1412601  51.5945911  32.0011091  22.7051950
  23.0814147   1.8191281  39.8937416  22.1786118   1.9590773  39.6080995
  23.0253530   1.7667000  40.8478594  19.8713076  23.6284947  57.7615309
  20.0567293  24.4096279  57.2403002  19.5401871  23.9683199  58.5928583
  71.3289881  52.7750921  11.4296353  71.2298584  51.8231869  11.4128590
  70.9076548  53.0740213  10.6238127   4.2920187  35.8662319  48.3160686
   4.2166325  35.3382230  49.1108990   4.5084268  36.7438054  48.6311293
  61.7812014  65.0150347  53.7499857  61.6851521  64.0669680  53.6595631
  61.7661810  65.1682711  54.6947241  14.2826033  65.8471441   4.3503061
  13.7849092  65.6938553   3.5471654  14.0261853  65.1309919   4.9313456
   0.3242849  24.8490262  55.6551552  -0.4967944  24.6289945  56.0952091
   0.5500144  25.7171035  55.9894037  50.3772926  31.4125109  21.3822770
  51.0937214  31.0017586  20.8982921  50.0640345  32.1070266  20.8028364
   4.3701035  61.6512632  56.3861036   5.1175505  61.5038633  56.9656134
   4.0952164  62.5488234  56.5733385  21.7583871  39.1383791  56.0367823
  22.0832348  39.9502969  56.4260054  22.2518086  38.4470177  56.4781284
  57.8602600  59.0007257  48.9799404  58.2558870  58.7071562  49.8006296
  57.9262495  58.2436419  48.3979607  28.3597970  15.0136828  21.8944097
  28.2126546  14.2056119  21.4028788  28.3711648  15.7006955  21.2279916
   7.7915359   4.4450083   8.8323677   8.6692703   4.0926021   8.6853182
   7.9412526   5.3008699   9.2340106  67.6620913  72.2871304  22.6698089
  67.9684782  71.4419317  22.9984379  67.4000359  72.7685118  23.4545588
  61.0430241  67.0461845   7.9371142  60.5329418  67.7458811   8.3451217
  61.5147257  67.4777889   7.2247595   5.3654248  21.5842700  38.6740875
   5.2805704  20.6330132  38.6096954   6.1380130  21.7919374  38.1485271
  10.4548407  46.5704679  52.6728296  10.7659936  46.7576981  53.5584688
  10.9453428  45.7930088  52.4059963  75.5088949   5.9335536   0.3646208
  75.7578802   5.6522352   1.2450177  76.1578798   5.5266124  -0.2093562
  65.8762217  70.8748055  63.5426235  66.0422707  71.4609098  64.2809629
  66.6721725  70.3479099  63.4713697  37.8700995   3.2321036  35.9320426
  37.4992657   3.0657151  35.0654244  37.1964431   2.9323184  36.5424109
  72.7647543  21.1855412   5.2854282  72.6127195  22.1305823   5.2895439
  73.6774969  21.0886049   5.5569750  59.4601679  55.6940317  49.9472237
  60.0524282  56.4329338  50.0868177  58.5931540  56.0381460  50.1619434
  22.3852658  30.5538511  52.7359390  21.6556692  31.1442804  52.5480127
  22.2286487  29.7937012  52.1756935  39.2701697   0.6725008  57.5287247
  40.1405287   0.5946690  57.9194355  39.2135787  -0.0649437  56.9211054
  78.8670206  42.7485466  24.5817518  78.8408756  43.5936642  25.0304437
  78.2433128  42.2033596  25.0613236  74.2351341  39.0720844  34.7330070
  75.1716042  39.2691517  34.7124815  73.9110613  39.5295143  35.5088711
  12.3491120  36.3181877  40.8744049  12.4218667  35.3960299  40.6283045
  11.5638697  36.3591790  41.4202452  64.6731091   2.0686536  53.3181524
  65.6257248   1.9763021  53.3029842  64.3460512   1.2316635  52.9884386
  32.8741574   3.1612226  19.7922730  32.9928684   3.8731563  19.1635525
  33.6055374   3.2560986  20.4024482   3.2665807  26.2148881  35.0255752
   2.5514385  25.5794477  34.9936771   3.9340064  25.7972169  35.5699301
  25.4659843  50.6442308   7.1150887  25.2254581  51.5689993   7.1714652
  24.8142838  50.1940536   7.6525426  79.4146061  44.4336796  59.7929907
  78.5446072  44.7971821  59.6280575  79.2469835  43.6076164  60.2465963
  21.7024517  10.0898921  40.7789707  21.4039564  10.9669673  40.5384016
  21.0510468   9.7792888  41.4078045   5.2973366  20.5184221  31.3483548
   5.3206551  20.9047651  30.4728985   6.2075114  20.5398178  31.6439152
  25.4503417  24.0322471  13.7562740  24.5309973  24.1431904  13.5139298
  25.5730844  24.6167898  14.5042539  74.1509056  14.2415571  16.0604930
  74.5895195  14.0169644  15.2398777  73.6955786  13.4393156  16.3160634
  30.9147358  12.7895570  56.7787743  31.2366915  13.1058586  57.6228905
  31.6663480  12.8676701  56.1912298  55.6656885  64.6947765  54.9236584
  56.1183310  64.1062975  55.5278444  54.7502947  64.4173241  54.9597645
  37.1832418   4.6956503  49.2241383  36.3111687   4.9946859  49.4816160
  37.7493262   5.4534256  49.3709612   8.0646288   0.4872882   3.5906532
   8.8312161   0.1739499   3.1106585   8.3134079   0.4159110   4.5121989
  21.6827655   1.9788715  57.1355438  21.0861206   2.6462206  57.4744987
  21.7026353   1.3069738  57.8170061  66.2393665   2.2475280  10.7548177
  66.6129112   3.1092185  10.9397078  66.9972134   1.6922420  10.5716372
  21.3530946  20.0702524  39.6457362  20.7088161  20.7381248  39.8804379
  22.1947765  20.4506516  39.8969340  13.9093137  21.9422555  18.2182872
  14.3755150  21.4456892  17.5457454  12.9895484  21.8932486  17.9577827
  25.5391669  16.7275703  21.4773297  25.8260298  16.6131938  22.3833418
  25.1680946  17.6095855  21.4531231  31.4980173   7.4210668   5.3975314
  32.1286345   6.7240298   5.5783391  31.1587763   7.2169989   4.5260358
  12.7437103  36.2008214  47.9387999  12.9524994  36.3033485  47.0102930
  12.3549497  37.0384359  48.1907845   8.6007982  24.4259834  56.6876984
   9.4918853  24.2338085  56.3956976   8.6875027  25.2203918  57.2146034
  67.6646757  43.7618637  53.7562418  66.8052101  43.8531160  53.3448744
  68.1454420  44.5429420  53.4823561   8.4681386  58.4401131  36.8686843
   8.5359782  59.3372440  37.1954679   7.7175093  58.0716419  37.3345327
  65.5695105  39.2853832  64.1707420  64.6851015  38.9242244  64.1106176
  65.5900288  39.9795866  63.5120392  73.5264063   9.8451483  37.0409012
  74.4006157   9.9312675  37.4211287  72.9327297   9.9049312  37.7893686
  31.6291308  16.8279123  16.1234689  32.2002125  17.5335467  15.8198619
  31.7658186  16.7998338  17.0704424  34.4912839  60.8437538  28.4680748
  35.3554893  60.9416485  28.8678217  34.1206765  61.7262173  28.4796548
  56.0359526   9.6215689  11.9716477  56.1718702  10.1543546  12.7551639
  56.6720581   9.9575740  11.3402176   8.4942567  64.6874619  38.2113862
   9.4386107  64.7563982  38.0711198   8.1594449  64.3014431  37.4019885
  76.1505651  20.1567960  53.5026979  75.4017687  20.5775046  53.0801582
  75.7725620  19.4177496  53.9793062  35.1747561   3.1215861  27.4390221
  35.5160189   2.7806821  28.2657957  35.6154251   2.6029027  26.7659616
   0.7638200  26.9826102  47.1219206  -0.1308528  27.1264291  46.8135214
   0.7826597  26.0613441  47.3810387  74.7887802  13.0550945  36.4626765
  74.4696236  13.7606716  37.0252872  74.1519499  12.3498964  36.5783215
  75.3480816  39.8994732  48.5949945  76.0716391  39.2997241  48.7766409
  75.2399969  40.3968620  49.4056463  17.6611876  70.0244093   5.2713782
  17.7316236  70.7172346   4.6146709  18.3290601  70.2419710   5.9216446
  20.1330519  -0.1140780  61.2504196  20.4080129   0.7892802  61.4071703
  20.6762171  -0.4061660  60.5183744  12.5296474  49.2958117  36.7258978
  12.3360240  48.6844349  36.0152912  13.4437561  49.5432472  36.5865684
  25.1619101  71.8608332  51.7211723  24.2813110  71.8864393  52.0954990
  25.1061893  71.2092400  51.0222054  15.6236279  22.5575686  41.3013554
  15.4722106  22.1101475  40.4688168  16.4581740  22.2074580  41.6131020
  77.5439072  13.5583806  36.2532187  76.6565895  13.3396971  36.5379524
  77.6301050  13.1410277  35.3961182  75.9291267  35.0682044  35.2725554
  75.9103584  34.2312789  35.7367063  76.5909624  35.5832243  35.7340312
  40.3078556   3.2627568  21.4898062  40.2791166   4.2129612  21.6016841
  40.6365919   2.9329559  22.3261046  74.3645931  25.6267752  64.6425854
  73.6367893  25.0094952  64.7167187  74.4394064  25.7972111  63.7036570
  23.3721375  49.2275810  64.1016197  23.3567500  50.1600266  64.3173456
  22.7486277  48.8306999  64.7098541  56.2899256  40.8075047   0.1448344
  56.5850401  41.7144156   0.2263862  57.0957708  40.3020811   0.0381137
  27.8974748  24.6534657  59.5559263  27.5187492  25.2929568  58.9527273
  28.2868338  23.9891791  58.9872837  14.5456755  13.9050925  31.3759995
  14.7233295  13.5801411  30.4933453  13.8540268  13.3323479  31.7073870
  33.9908338  16.1341858  59.3445015  34.7535038  16.3904512  59.8630524
  33.5162592  16.9521117  59.1961575  57.8402281   4.6274352  27.3926997
  57.3739672   4.0243340  27.9715800  57.2533894   5.3787434  27.3067331
  24.8468781  19.6774077  18.3386993  25.1441455  20.5814981  18.4410977
  23.9267826  19.6965408  18.6019301  24.7432542  29.3629026   6.0933244
  24.0831423  29.3718028   6.7864364  24.8938799  28.4340405   5.9179348
  70.0935364  16.3660789   5.1928079  69.8140955  16.2800860   6.1042625
  70.6631327  17.1353471   5.1884842  30.5165720   2.3166014  32.1172738
  31.0939741   3.0694306  31.9904447  29.6487093   2.6361009  31.8703556
   7.9626745   1.1708575  55.6948709   7.1717864   0.6450021  55.8140516
   7.6441026   2.0711029  55.6292820  25.1027489  69.2018175  27.9420376
  25.9015608  68.9980936  28.4284806  25.1683950  70.1382971  27.7551413
  72.5432253   7.4930030  57.2613621  71.7410994   7.6190585  57.7682590
  73.0892992   8.2464230  57.4858427  29.2716408  50.8319521  15.4289079
  29.2406726  49.9311543  15.1066744  28.5819030  50.8732176  16.0913217
  67.5583506   1.6186851  40.8667612  68.2601070   1.8428500  41.4779234
  67.0033836   2.3982227  40.8429480  12.1013498   2.2670524  44.1072226
  12.5586915   2.2249211  43.2674026  12.0479918   3.2022366  44.3042374
  49.4341993  71.6352940  29.1767669  48.6052322  71.6047716  29.6543765
  49.2349005  71.2447882  28.3258748  72.5187016  65.0811005  43.8400364
  72.5353098  64.2509604  43.3637714  72.0249414  65.6729984  43.2725048
  30.9494948  29.6978879   6.2271589  30.1260662  30.1405311   6.0215801
  30.8235121  29.3568325   7.1126205  69.1541576  28.1270432  23.4199500
  69.8873281  27.7203441  22.9581141  69.4770956  28.2610631  24.3110061
  61.1118460  44.5296526  52.4605036  61.9321537  44.4348192  52.9445934
  60.9417009  45.4716063  52.4597597  28.5539627  56.7421293   9.4801158
  28.1489778  56.4722109   8.6558819  29.1563201  56.0300779   9.6954805
  60.5947351  74.4905663  11.1803210  59.7343922  74.3283272  11.5672612
  60.4512405  75.2165127  10.5731583  14.5672822  27.6422095  58.2964706
  14.6338296  26.7063594  58.4861803  15.4724264  27.9252434  58.1667089
  77.7668381  57.0840883  20.7154632  76.9644976  57.2277594  21.2173080
  77.6010752  56.2796450  20.2239156  68.6387634  49.5515203  56.9181061
  68.1397343  49.5010614  57.7333736  69.0920973  48.7103271  56.8623209
   4.5790431  35.7896590  34.6738935   3.9010552  35.1884723  34.9823427
   4.1390878  36.6378355  34.6167254  11.2372518  68.8928509  35.2850914
  10.5824399  69.4421625  34.8541474  11.1540067  69.1055107  36.2146497
  53.0934334  69.4806433   8.7850112  53.5103178  68.7233353   9.1960114
  53.2097626  69.3376541   7.8457278  29.2989826   2.9305467  54.2789173
  30.2061534   3.1445652  54.4967985  29.2238712   1.9935931  54.4597721
  36.4751192  73.0208128  38.5512328  36.8580671  73.6768752  39.1336107
  36.8183609  72.1866611  38.8715601  33.5360813  63.1760502  25.8876753
  34.0138698  62.3619366  26.0463285  33.8813519  63.4980202  25.0549984
  25.1932144  53.9285994  25.6054878  25.4984331  53.7135744  24.7241044
  25.9920859  54.1281319  26.0935688  30.2024341  61.4449215  37.0356202
  30.6413174  60.9037018  37.6918936  30.7396483  61.3503790  36.2490511
   7.1642464  43.8663912  21.9300437   7.3533219  44.6254206  22.4817324
   6.2130845  43.8787842  21.8234205   1.7323601  58.5849380  18.8668036
   1.6315128  58.7752771  19.7994530   2.6714909  58.6737776  18.7044048
  23.6695099  40.4998446  37.7291369  24.5959187  40.7125616  37.8420568
  23.2045460  41.2437105  38.1121540   9.7538817  61.4148760  35.6183553
   9.8146057  62.3687744  35.5671120   8.9921653  61.2529230  36.1749458
  36.5836787   8.8270670  40.3889656  36.0054851   8.1074160  40.6419992
  36.3970637   8.9692783  39.4609642  45.2483416  65.4015207  45.4743290
  45.9077358  64.8264694  45.0860643  45.7396126  65.9514809  46.0845995
  33.3308530  58.6215544  35.6114697  32.7938461  59.2456484  35.1232481
  33.2229137  57.7942610  35.1422501  63.6070228  74.7550139  48.4080982
  63.2078052  74.5613148  47.5599623  64.0950132  73.9619618  48.6298323
  54.1825390   1.6133155  16.8039155  53.5768175   0.9907701  16.4017057
  53.7861013   1.8205665  17.6501536  31.0876799  71.1929131  49.7656441
  30.9928656  71.9885588  49.2420101  31.9222331  70.8185434  49.4835138
  45.6984663  28.2623005  61.5420961  44.8672771  28.4365821  61.1005354
  46.0578823  29.1299367  61.7271900  42.1994448   8.9004612  62.5098372
  42.6742649   8.3386016  63.1222868  42.6438332   9.7463268  62.5669765
  52.0213699  24.8880601  -0.0683286  51.8941498  25.4466677   0.6984867
  51.1998320  24.4038081  -0.1508384   7.4666381  63.5046673  60.6657982
   6.8639225  63.9284801  61.2768221   7.0708269  63.6417103  59.8051071
  76.9544983  34.6135759   1.4912179  77.4369860  34.8054433   0.6870884
  76.7784357  33.6737752   1.4464432  44.4405508   9.3886620  19.8752916
  43.7344551  10.0348437  19.8646975  44.2749977   8.8403946  19.1083312
  47.6669693   2.1208270  13.8427639  47.4649954   2.0238601  14.7733748
  48.1699038   1.3363838  13.6238265  23.3553720  58.5159588  24.3685818
  22.5198412  58.9585543  24.5176744  23.1165981  57.6868010  23.9541912
  13.5683227  38.3183837  34.1056228  13.2811344  38.1718493  33.2043552
  12.7595413  38.3192062  34.6175838  32.2979593  27.5675416   5.3065538
  32.7589321  28.2475233   4.8152661  31.7701602  28.0486608   5.9438801
  17.1963668  43.8962889  36.5464830  18.1265926  43.6796618  36.4833593
  17.0173538  44.4145346  35.7618761  13.8970423  49.8965740  30.9476948
  14.1516292  49.0428114  30.5976868  14.6865535  50.4322290  30.8703732
  30.5811143  10.7646787  42.3097229  31.0479283   9.9795729  42.0234966
  29.6856570  10.6386960  41.9958401  35.0409269  46.3313007  30.4145598
  35.0789118  46.8124485  31.2411714  34.5639873  46.9116592  29.8213148
  53.2975960   3.7563124  32.2734094  53.7411642   3.5229826  31.4579129
  53.0060816   4.6579316  32.1380067  76.0695934  14.5571387   5.4823774
  76.2095356  14.0251398   4.6990347  75.9114742  15.4397523   5.1473820
  21.5016079  44.4907331  59.0015650  22.4477696  44.5606709  58.8746119
  21.1289859  44.6982145  58.1446266  19.9522841  56.9537640  18.6952448
  20.5677104  56.4126062  19.1898477  19.1095376  56.8135500  19.1269279
  41.5363741  35.2949071  61.0228109  41.0007954  36.0616994  60.8193064
  42.4075460  35.6508398  61.1977625   3.6044046  56.5990448  41.1623096
   4.3577710  56.4718723  41.7389345   3.6226848  57.5314093  40.9464645
  16.8932140  66.7661572  54.8538589  16.1717379  66.2129402  55.1532841
  17.0624113  66.4749670  53.9578629  33.0036330  65.8697701  54.0920162
  32.6216722  65.7378149  53.2243013  33.2282114  64.9887514  54.3913460
  44.3179846  61.4947081  23.2673073  44.6043015  61.1679554  24.1202378
  45.0516605  62.0243168  22.9551172  38.0380011  56.4970016  42.4899149
  37.4461770  55.9127617  42.9638767  38.6529827  56.8060827  43.1551170
  55.8784008  63.3282232  30.5550504  56.2094545  64.2259693  30.5288863
  56.2228727  62.9226351  29.7593927  24.3090868  47.8537846  27.6187825
  24.3249440  47.1219444  28.2355404  24.9813104  47.6371384  26.9727087
  74.5520544   5.4781824  35.0224924  74.7338629   6.3863748  34.7809076
  74.7540426   4.9754092  34.2334104  25.8950186  68.5401630  24.6879029
  26.5744662  69.2100430  24.6114922  25.6125569  68.5885906  25.6011963
  27.9130340  59.5375872  57.1115160  27.3541856  59.0672016  57.7301073
  27.7575612  59.1053343  56.2717438  70.3388596  20.2902913   2.8845614
  69.6152020  19.6967053   3.0850768  71.0491800  20.0046277   3.4590816
  31.3115740  49.9222136  53.1879950  30.8146977  50.2906418  52.4575090
  31.2327933  48.9746761  53.0775309  58.3892202   1.0894997   6.2688738
  58.0217075   1.9640589   6.3965940  59.2900991   1.1598162   6.5846312
  16.8395936   2.0911881  12.3047876  16.0724354   1.6234419  11.9747674
  17.2206438   1.4989518  12.9530835   6.1441761  58.2227945  53.4480953
   5.2078831  58.2185507  53.2491732   6.2192142  57.7184582  54.2581844
  32.9190445  60.9476805  32.2185779  33.6916566  61.2829256  31.7636991
  32.7951407  60.0674820  31.8634295  30.9107924  71.8149662  62.1071959
  31.6627192  71.2890577  62.3797035  30.4333186  71.9885778  62.9184389
  19.8103404  43.1996775  32.5992990  18.9853990  42.8515673  32.2608876
  20.3403115  43.3611727  31.8187332  16.4328599  34.1457367  12.7037489
  16.3172400  33.9632702  11.7712426  15.8761132  33.5036993  13.1442630
  26.8283606  61.2535191  32.3260045  27.7052999  60.9205818  32.1353269
  26.8396688  61.4335251  33.2660580  38.5678768  51.9193840  23.9445639
  38.9379692  51.9376421  24.8271322  38.7332106  52.7959251  23.5973334
  54.7014236   1.8209255  57.2157621  54.6659088   0.8666838  57.1494770
  55.2813959   2.0891002  56.5030575  43.4820938  43.7946844  60.8971310
  43.6220169  43.3404541  61.7279911  43.9460182  44.6259069  60.9974957
  53.6054897  42.1100187  52.3999739  53.1333780  42.3081589  53.2087278
  53.4395885  42.8645277  51.8348026  62.0206690  68.3603859  38.6073494
  61.5227318  67.5666523  38.4117222  62.2478294  68.7182426  37.7491140
  50.5118561  14.2295575  29.2674184  50.8582067  15.1201415  29.3233871
  49.7891665  14.2137527  29.8948765  14.2209959  28.3637714  22.7682996
  14.7813416  28.6063647  23.5054493  14.6013057  27.5507402  22.4357629
  20.8445835  62.2421551  31.5121913  21.3206577  61.6648531  32.1091056
  21.3237238  62.1800184  30.6858778  78.3192968  20.8667183  25.0335407
  78.8058662  21.1820388  24.2719293  78.3694363  19.9128354  24.9716687
  38.6275172  55.2993488   2.9972488  39.4419599  54.9273014   2.6588789
  38.7763977  56.2448931   2.9934824  52.5975037  68.3855724  48.0415773
  52.4989367  67.9762745  48.9012241  51.9222069  67.9746485  47.5018072
  37.4722266  52.4543619  43.9573240  37.7656651  52.2000122  43.0824327
  38.2808399  52.6100826  44.4453049  53.6200094   4.5116767   9.4071138
  54.0815067   5.1882184   9.9026340  53.0580044   4.0832800  10.0527620
  78.1651020  51.1478376   1.8318895  77.8781986  51.9566488   2.2558574
  79.0583038  51.3332081   1.5419486  13.3639944  16.9403434  26.7686224
  13.6798155  17.7894998  26.4597178  12.5470936  17.1404350  27.2256422
  12.5921369  61.0531330  44.8558474  11.9497490  60.8065319  45.5212450
  12.2996616  61.9105196  44.5466900  22.6999331  66.1570597   5.6839591
  23.0390453  66.3246059   6.5632564  23.4816790  66.0627508   5.1397067
  14.8529029  17.5403857  17.9756308  13.9727807  17.1681142  18.0306840
  15.4235303  16.7856932  17.8305256  37.8666997  73.5971880  46.0749769
  36.9844604  73.2655430  45.9079504  38.1707931  73.9088345  45.2225494
  27.0027828  52.8289938   5.2633637  26.1232805  52.5089741   5.4640979
  27.5547957  52.4611664   5.9534490  33.1580067  56.4357328  33.4047961
  33.3964872  55.6739187  32.8765941  32.6950383  56.0693502  34.1582274
  39.2351484  73.4245348   7.8823394  39.7870421  74.1095448   7.5049692
  38.3499312  73.6422110   7.5903857  74.7073412   6.0542530  25.9962082
  74.6456718   5.1053637  25.8864880  75.3589439   6.3281494  25.3507400
  49.1776466  61.8545723  36.5975809  48.4270525  61.3997984  36.9797039
  48.8430214  62.7230406  36.3739133  61.2829161  29.7569156  43.4173489
  61.0220480  29.7976351  42.4972868  60.4830503  29.9600577  43.9023066
  74.3314791  53.1598711  52.6934671  74.7003365  53.7243032  53.3728743
  75.0675154  52.6203871  52.4046087  37.9386783  58.2295275  34.7727728
  38.5698462  57.5876665  34.4473982  37.1173048  57.9991007  34.3386292
  12.3805904  56.2792158  46.6763687  13.0823660  56.5905809  47.2480297
  12.7200246  55.4666424  46.3012171  64.7834587  42.2556591  20.8858156
  64.1816759  42.9964018  20.8124375  65.5217266  42.4902344  20.3235292
  12.6466084  57.3132563  26.5030146  13.0412447  56.6739511  27.0961285
  12.7845609  58.1567812  26.9339061  10.6795657  50.8614206  42.8113556
  10.6340456  51.5170145  42.1153975   9.8247051  50.9069490  43.2395744
  72.2678518  20.8124447  37.3551559  71.4579821  21.1557388  36.9776773
  72.1905470  19.8626781  37.2646117   0.5095549  45.1900196  30.7844567
  -0.3047780  44.7035503  30.6562304   0.7917567  44.9558449  31.6686296
  62.6876163  54.6990299  27.4699044  62.1942043  53.8816118  27.4020767
  63.2986879  54.5507622  28.1915951  67.3484039  18.5016489  24.7434616
  66.4974403  18.7492979  24.3818426  67.1629906  17.7391338  25.2915692
  33.0226684  40.8841610   5.1373428  32.4726582  40.3959322   5.7499999
  33.5975242  40.2227926   4.7521609  54.2531729  37.9473567  60.7458115
  53.3585835  37.7444959  61.0192871  54.7746515  37.8522968  61.5428400
  48.6400696  22.1235861  64.2502425  49.4841476  22.3333945  64.6499172
  48.0757614  22.8615107  64.4810244  14.2459321   6.4051890  42.0098782
  15.1799965   6.3645297  41.8046904  13.8384235   6.7313027  41.2074947
  18.1938493  59.9489927  28.2914972  18.7255383  60.7445240  28.2655096
  17.5061882  60.0992155  27.6428151  21.9131827  56.9249821  15.9199703
  21.7789197  57.7210188  15.4056418  21.3814950  57.0547009  16.7052794
  50.8912086   1.0885324  23.4657812  50.7886076   1.6996513  24.1953278
  51.3317823   1.5986750  22.7861619  10.9650230  10.5921090  50.5430937
  11.4233601   9.8641586  50.1232767  11.6409981  11.0386598  51.0528803
  40.2765322   7.4429679  41.2646627  39.9026370   6.6571969  41.6634083
  39.9543166   7.4307072  40.3634071  60.5286503  68.5747528  54.6974087
  59.9627686  67.8046179  54.7513342  61.1077881  68.5000038  55.4558563
   8.1861889  50.3085518  16.3149416   9.1231531  50.4400206  16.4600146
   7.8208882  50.1993370  17.1929276  76.9907999  10.6116581   5.2993190
  77.8874540  10.2821875   5.2385730  76.4653063   9.8390567   5.5070984
  47.6511908  64.1971540  35.0332284  47.8468895  63.4329462  34.4910860
  47.2803068  64.8348618  34.4233084  53.2901716  20.2948713   1.7310184
  54.1262674  20.4503083   1.2916826  52.9629040  19.4833803   1.3429299
  16.4977431  67.4154377  32.1789670  16.5035725  66.7007351  32.8156757
  17.2993135  67.9056311  32.3617959  -0.1580928  11.1949277  22.6310968
   0.6631973  11.6841662  22.6796818  -0.3445975  11.1324334  21.6943264
  13.6412823  64.9756765  35.2627826  13.2287586  65.7374334  34.8556185
  13.4538746  64.2530203  34.6637201  28.6745191  70.8866167  27.3315668
  28.4467626  70.8267498  26.4037871  28.5530925  69.9979353  27.6658273
  11.6689742   3.8797748  16.8292511  12.2311151   4.0164721  17.5918400
  12.0269144   3.1002265  16.4044988  13.3413446  37.6802516   9.6803164
  13.6586952  37.2310638   8.8968939  13.2439315  38.5933042   9.4099838
  55.6776667  62.7296972  49.6761513  55.3823948  63.4730959  49.1504097
  55.5271053  63.0017328  50.5814457  20.3483748  70.2767372  16.8124914
  21.2581587  70.4616833  17.0455551  19.8385572  70.9128952  17.3141158
  70.3623295   1.7990668  56.3510084  71.1656761   2.2686036  56.1265039
  69.9711561   1.5761867  55.5062962   6.4841014   5.9673953  32.7893329
   5.7822365   6.3136518  33.3404422   7.0094717   6.7341614  32.5606680
  70.5537748  30.0415134  11.0986900  71.3273764  29.5532870  10.8168864
  70.8559752  30.9466600  11.1736512  70.3616142   7.1270674  59.1275930
  70.2812910   7.3041755  60.0648308  69.5106030   6.7668283  58.8781214
  49.6418381  23.1789422  51.6427469  48.8139677  23.1563139  51.1627913
  49.9296141  22.2663498  51.6670609  46.7510605  66.1555433  48.4277296
  46.5143108  66.0235500  49.3457460  47.1124983  65.3137827  48.1501770
  17.0175898   6.2991804   3.9930904  16.6164005   6.1729610   3.1332371
  16.3033199   6.1559480   4.6140060  25.3227735   3.5507461  40.2484798
  24.4446969   3.1858861  40.1385164  25.5022812   3.9965758  39.4206858
  49.1843367   9.0423852  31.8850899  48.6300421   9.5345449  31.2794733
  48.7526178   9.1353476  32.7343297  28.2907128  19.4164598   2.2836599
  28.9982414  18.8945365   1.9052005  27.5098348  18.8727832   2.1793558
  19.6530581  49.3498278  10.8356953  19.6651697  49.5144081  11.7785621
  18.7234390  49.2981243  10.6135094  60.1753569   2.5457865  52.4796247
  59.9860430   2.2573644  53.3724880  59.3370533   2.4766725  52.0227814
  66.3014126  10.3477609  62.7317619  66.4691925  11.2492335  63.0064011
  66.7690134   9.8113692  63.3719683  71.3623667  72.3475361  14.5110047
  72.2681618  72.6314878  14.6340406  71.4337921  71.4386415  14.2193830
  45.3568459  47.0214748  13.1742144  45.3396511  47.8459167  12.6881814
  44.9644613  46.3837051  12.5779617  29.6779156  19.2675984  14.2133820
  29.3888474  18.7202477  13.4832597  29.0160537  19.9565256  14.2729604
  20.6658769  35.5442023  16.9386554  21.3045144  34.8531485  16.7631054
  21.1342144  36.3570666  16.7485368  55.1869869  39.6290946   2.5298941
  55.3570461  40.0436306   1.6840383  55.8109379  38.9043832   2.5712156
  73.8859463  15.3946960  37.4176764  74.5491076  15.1767874  38.0726314
  73.1000900  14.9327207  37.7096367  20.7793283  27.5682235   9.5992815
  20.0815058  27.4188781   8.9613366  20.3206706  27.8120399  10.4032838
  22.6362729  54.2187119  27.4222136  23.4888768  54.4691086  27.0664096
  22.4779105  53.3426476  27.0705509  16.2757635  15.7318616  58.2014704
  15.5780196  15.1779199  58.5515213  16.9691813  15.1185238  57.9581165
  71.2609768  -0.1802029  33.2390928  70.4925919   0.2452603  33.6196184
  71.7791176   0.5392919  32.8784180   8.9817971  43.1994343  48.4067726
   9.8406321  43.6192036  48.4560156   8.4385812  43.6925507  49.0215778
  70.1410341   1.3498138  20.8435535  69.7556639   1.3243417  19.9677265
  71.0855436   1.3232127  20.6905007  63.2477951   6.6625059  20.7373428
  62.4154234   7.0384586  20.4508948  63.4077692   7.0592999  21.5936089
  56.2061930  11.4399493  29.3770289  55.5636406  11.9558692  28.8900113
  56.3422346  10.6588125  28.8407922  61.1905384  53.0321264  59.8004341
  61.9516897  53.2792807  60.3255987  60.8008480  52.2974873  60.2744293
  50.1823902  63.4575558  33.4961271  50.3350735  63.6419678  32.5693512
  50.9489393  62.9536819  33.7695241  10.5497169  40.2666521  55.5199289
   9.9873638  40.4197311  54.7606182  10.7943630  39.3435550  55.4545736
  64.5602465  74.4942188  12.1942377  65.2662420  74.5220089  12.8400183
  63.8013840  74.1750383  12.6825809   2.4491660  57.9373646  44.2005396
   3.1858471  58.5290909  44.0476036   2.2961810  57.9842997  45.1442671
  44.9447727  55.8056641  51.1733532  45.5855465  56.4825773  50.9555674
  44.1512966  56.2908792  51.3996124  57.7008295   9.8994011  24.1375160
  58.2787943   9.1567075  24.3124223  57.1612263   9.6144897  23.4000278
  27.9928184  68.5447693  42.8817892  28.5036302  67.8497314  43.2967901
  27.4201083  68.0865049  42.2667885  71.6634226  39.2299151  39.0719509
  71.5649176  39.3955255  40.0095558  70.8330393  38.8320136  38.8104725
  52.3464346  23.0854177   7.6140171  52.1890402  22.9401684   6.6810852
  53.2089901  23.4988666   7.6498693  24.4681597  71.6476631  25.1678038
  24.5154405  71.3615370  26.0800147  25.0329423  72.4195290  25.1293111
  69.0920544  30.1619864  18.3174396  68.8480139  29.2927146  18.6353099
  68.3036470  30.6912065  18.4381557  68.8256121  49.2624521  25.7767749
  68.4577942  48.7519932  26.4981437  68.0859470  49.7676849  25.4393291
   4.4713885  37.6327682  61.7566681   5.1025236  38.3522248  61.7734432
   4.6047729  37.2169614  60.9048796  47.2667503  69.6900082  21.9058871
  48.0446339  70.2415943  21.8229365  47.5821209  68.8033199  21.7310977
  10.6600273   0.1799964  45.4979897  10.0274348  -0.1402117  44.8549318
  11.0300291   0.9672422  45.0985193  68.1968069  66.8989897  34.8040199
  68.0602646  65.9700203  34.9900460  67.3150396  67.2706985  34.7806048
   4.1865414  15.8546758  54.9042749   3.8254017  15.7920051  55.7885122
   3.4765401  15.5596423  54.3341112  63.9233065  27.2494268  46.4409494
  64.5348740  26.5260410  46.3033676  63.8417387  27.6610231  45.5806208
  38.2905793  65.0218916  59.2829609  38.9716482  64.4689703  59.6659184
  37.6958609  64.4067526  58.8538313  44.9713135  20.8322692  64.2067766
  44.9848127  21.7679286  64.4082403  45.6668377  20.7166028  63.5593939
   3.3249444  53.1553459  27.5609112   3.4232590  53.1976986  26.6097164
   2.5484312  52.6125717  27.6975060   2.8664538   5.7620680  30.7786965
   3.2587004   5.4809785  29.9520373   2.8337905   6.7166501  30.7159424
  61.8164396  13.7625301  56.0926819  60.9010696  14.0413451  56.1170006
  62.2954845  14.4762552  56.5138102  11.5958059  73.1047010  31.4433360
  12.1576881  73.7700653  31.0460830  12.0140111  72.2733068  31.2194586
  29.7652197  11.9090402  24.0275550  29.1280961  12.0995414  23.3390665
  29.8800683  10.9594381  23.9915156  14.0917420  25.4866362  50.6357527
  13.1540918  25.2953529  50.6144238  14.2925179  25.5973673  51.5650845
  36.8268275  58.9120245  52.8398037  36.2807345  59.5834684  52.4309349
  36.2320995  58.4435463  53.4255219  48.3500938  67.5917230  -0.0017242
  49.0016631  68.2853542  -0.1045160  48.0050520  67.7163397   0.8823844
  69.9869442  55.1159477   9.9609375  70.0497532  55.8901024   9.4015056
  69.2417669  55.2947378  10.5345011  68.9186382  53.0361700  32.5652981
  68.0905581  52.7090311  32.2138739  68.6677313  53.7714624  33.1244278
  29.8485990  74.6431636  35.6950021  30.7750173  74.6283374  35.9353471
  29.8434826  74.4844550  34.7510648  53.6390972  33.1595469   1.6485472
  52.8883648  33.7184477   1.4478819  53.8502884  33.3603787   2.5603026
  11.2915564  55.7922745  49.8216438  12.2077465  55.7123327  50.0870371
  10.7946086  55.4948044  50.5837345  31.6537452  64.1283035  48.2254982
  32.3764277  64.6523428  48.5709572  30.9407139  64.2625523  48.8498354
  22.1834993  24.0740323  26.5392733  21.7508864  23.7439322  27.3267436
  22.7733803  23.3676291  26.2760854  60.5135965  17.9840088  54.9272633
  60.5804396  17.0350158  55.0329828  59.7497606  18.1090534  54.3640995
  39.6299982  12.6907372  51.8921041  38.7637711  12.9929507  52.1651459
  40.0882959  12.5052297  52.7117252  12.1486115  40.5752945  15.6220365
  13.0311787  40.6125927  15.2533686  11.5873051  40.3569126  14.8780775
  34.9196362  39.3795323   3.9908037  35.5706239  38.7707520   4.3398488
  35.3610682  39.8075485   3.2572019  62.4651909  64.8096228  46.5184832
  62.4755621  65.4532576  45.8100605  62.9726839  65.2175140  47.2201252
  49.8452902   7.8804976  47.0077229  49.5965576   7.3153329  46.2763166
  50.0931406   7.2739917  47.7055454  30.3782058  57.2935152  49.3586922
  30.4274035  58.1185770  48.8758945  29.7938013  56.7445564  48.8358688
  48.0883312  71.6815901  58.3219004  47.8582144  72.4977636  58.7659073
  48.6986160  71.9470358  57.6339149  47.4128485  73.8226986   2.2985940
  47.4736643  74.3744850   3.0783796  47.6839828  74.3934345   1.5795828
  34.8329711  69.3359709  58.6508703  33.8858676  69.2812395  58.5234547
  35.0750422  68.4850502  59.0163422  54.1468763  12.3078668  16.3780367
  54.6231079  13.1185675  16.5574753  53.2245350  12.5633168  16.3941729
  61.2790394   9.2212433  25.1464128  60.3578901   8.9977282  25.2796626
  61.7585516   8.5920620  25.6853294  39.2422009  49.6483517  13.9100289
  39.8824239  49.2254734  13.3377337  39.0384054  50.4747057  13.4720373
  73.7670565  55.0930882  23.9620829  74.2468262  55.1780224  24.7860003
  74.3034935  55.5622959  23.3230901  27.6804733  57.7356005  37.1678519
  26.7329121  57.7838087  37.2944784  27.9300022  58.6166716  36.8891335
  48.8205576  15.1757848  12.7605927  49.3335199  14.6395934  13.3652377
  48.1335592  15.5601680  13.3051264   0.6939081  22.4325485   0.8531352
   1.6117934  22.4212188   0.5818625   0.2013639  22.4023027   0.0329419
  71.3814449  50.5625486  40.1821470  71.6359091  49.6704674  40.4181051
  71.9605684  51.1217117  40.7000113   4.6604082  24.0173125   1.2714224
   3.8473564  24.1679335   1.7535964   4.5336068  23.1686521   0.8472405
  34.7339249  41.9873524   6.9834232  34.1999269  41.6179514   6.2801284
  34.0984511  42.3288822   7.6125205  24.3887138  13.4553564  18.5957718
  24.4941306  12.7741480  19.2599070  24.1095042  14.2278433  19.0872359
  42.0550728  61.8161345  28.3205271  42.4107027  62.3010826  27.5758219
  41.2968493  62.3290253  28.6002874   2.4393794   3.0447075  23.1778693
   2.4966475   2.1994150  23.6233258   2.6313752   2.8459802  22.2614193
  39.3717456  68.0481434  32.1207261  39.8808050  68.8551426  32.0442724
  39.7863483  67.5705910  32.8392529  21.3600326  71.9568157  61.9119596
  21.1877990  72.5597715  61.1887598  21.3972855  72.5170517  62.6871872
  76.8547678  26.3072300  43.7883711  76.1402082  25.7014132  43.5918474
  77.5825787  26.0031104  43.2461214  68.7399244  27.4664831  31.2062788
  67.9063320  27.0101094  31.3206482  68.5042048  28.2945704  30.7880211
  67.1186829   4.5038185  53.9825678  68.0095959   4.5725548  53.6393738
  67.0404863   5.2359372  54.5942211  56.0964060  61.4164925  15.0830317
  56.6959667  62.0363569  14.6676683  56.5602064  60.5796099  15.0555432
  71.1180449  53.9741802  60.2951002  72.0319510  54.0721083  60.0278616
  70.8929968  53.0755758  60.0540733  21.5355134  69.7430372  42.7003241
  21.9086385  70.4709721  43.1974316  21.7888236  69.9172783  41.7938471
  34.8870373  69.1252041  36.2187266  34.7775316  69.3162155  35.2871919
  35.8221626  68.9467287  36.3183117  63.3137369  11.7702687  57.4748898
  62.6599646  12.4232852  57.2251272  64.1541767  12.1935570  57.2996044
  76.4397097  65.9012890  29.4939160  76.0412216  66.0420418  30.3527689
  76.2896776  64.9741173  29.3093181  64.1122150   4.1154337  51.1611271
  64.2759466   3.1866363  51.3247108  64.8713207   4.5620996  51.5359354
  72.7039051   2.4971372  33.0784345  73.1813383   2.9170504  32.3629189
  72.9222059   3.0188602  33.8506937  32.7146530  54.7666073  24.5912838
  33.1681943  55.4988956  25.0087523  32.2363329  55.1644707  23.8638592
   6.9222039  62.5856161  47.2599840   6.0889125  63.0130148  47.4579477
   7.3751438  63.1998873  46.6822720  40.8536196  70.3791428  47.8883410
  40.9818172  71.1582279  48.4294701  40.7290268  69.6684742  48.5173559
   5.9012729  45.6556416  15.7268751   5.5334896  45.0985527  15.0408590
   6.5231603  46.2208939  15.2686417  36.0891056  62.4442339  61.8949556
  36.2342978  62.5413942  62.8360796  35.7354903  61.5601349  61.7971802
  22.7634525  21.8990421   4.4324741  23.4564018  21.3305736   4.7684771
  22.8279495  21.8184829   3.4808531  40.8872795  63.9746141  21.6653132
  41.4944839  64.4740009  22.2113395  40.0424671  64.4072485  21.7892289
  19.5888412  11.7116940  42.5757742  20.2511501  12.3798227  42.3991919
  19.2575097  11.9273973  43.4475136   4.1824499   4.8164639  25.4011512
   4.1468346   3.8728520  25.2444363   4.8231280   5.1403916  24.7680354
  49.9377060  40.0607824  15.9446728  49.8979187  40.6542110  16.6946650
  50.7611465  40.2804375  15.5088663  34.5510960  46.3557673  64.6368933
  33.8308382  46.9458294  64.4149017  34.1500068  45.4870081  64.6617746
  12.1496880  17.9608977  42.6890850  11.6021812  18.7299633  42.5309467
  12.3493934  17.6252723  41.8151855  35.3176165  54.9548340  36.3950443
  35.4690218  55.0890064  35.4594684  35.0087380  55.8036375  36.7118359
  44.5347357  69.2561102  38.9671707  44.1691113  69.4862270  39.8213363
  44.4481325  68.3040953  38.9181757  43.6746550  29.6552062   1.3608007
  43.4150934  29.9558258   2.2317123  43.0201387  28.9959717   1.1300430
  78.4019852  74.8599672  28.1290197  78.7055683  75.2530193  27.3107433
  77.9301500  74.0731001  27.8561759  12.4537885   3.8255024  57.2443056
  12.0564067   4.3048900  57.9712915  12.9966199   4.4749856  56.7973852
   8.9306945  48.6465406   2.5516367   8.7128264  49.3966341   1.9983563
   8.3380651  48.7205219   3.2996666  37.5408268  10.7644284  32.5811291
  38.1778216  11.4730251  32.6725698  36.9712925  11.0452974  31.8649054
  63.2783270  67.2892475  44.5703602  64.1818857  66.9987011  44.6944427
  63.3571768  68.1354761  44.1300154  26.0777593  32.1673489   2.1555465
  25.6148243  31.3706088   2.4146353  25.4017210  32.7207065   1.7643981
  70.7956696  18.6117733   9.8602867  69.9949789  18.3184814   9.4254237
  70.5140638  19.3386984  10.4157245  27.7645632   1.1625942  42.0460653
  27.6076202   0.8561643  41.1529207  28.1480596   0.4086193  42.4940443
  42.0953178  61.4003468  21.7377591  42.6858902  61.2472105  22.4753237
  41.9872284  62.3510456  21.7108631  16.4950073  39.8153806  10.6260192
  16.6398907  40.7472277  10.7900500  16.0557246  39.7872734   9.7760350
  48.5469437  43.7050200  10.4784358  48.0071306  43.0357695  10.0577939
  48.1229448  44.5325136  10.2510262  66.9163656  15.7999301  60.0989389
  67.1810102  16.0367191  59.2100525  67.4406147  15.0265324  60.3069162
  78.0556965   8.5505241  56.7857409  77.8609085   8.8314414  57.6798201
  78.9550877   8.2255661  56.8273640  14.9231696  28.1288028  49.8727655
  14.5557797  27.2798371  50.1187611  14.5992935  28.7326670  50.5411053
  11.6261876   4.1286951  53.3883810  12.2654223   3.6029121  52.9075861
  11.0720277   3.4860325  53.8312387   8.0350578  39.3440008  11.8410087
   8.1511188  40.1595068  12.3285651   8.8215268  39.2744899  11.2998366
  10.5001986  15.4878390  48.3482122  10.1449800  15.4538846  49.2364120
  10.8278131  14.6029627  48.1872892  61.6103458  18.9697421  51.4704514
  61.9544077  18.1567049  51.8403482  62.1249247  19.6598840  51.8889570
  14.2387235  72.4429464  42.2998476  14.6981239  71.6463423  42.0341253
  14.0415359  72.3078489  43.2267237  77.6135349  31.0349703  36.1105180
  78.5177565  31.3301826  36.0034251  77.6853466  30.2166867  36.6019297
   6.0592097  19.1852069  57.1100187   6.0945821  18.4247601  57.6902771
   5.2531582  19.0659297  56.6077375  41.4861488  52.4913645  12.6487231
  41.2688160  52.3576927  11.7261565  40.7784843  53.0417299  12.9841936
  25.4689741  35.2629900   5.9015483  26.4236116  35.2258039   5.8422554
  25.2659178  34.8653531   6.7482394  67.9124928   6.1079752  58.7160635
  68.1720829   5.5219716  58.0051184  67.0777845   6.4780259  58.4287405
  67.9722977  16.9799733  41.6387033  67.7286720  16.7633235  42.5386715
  67.3050737  16.5537715  41.1007404  63.5204744  43.2545662  53.0556679
  63.8969946  42.4020815  53.2741594  64.2606258  43.7670517  52.7304506
  76.1498356  18.3323443  12.4316061  76.8838692  18.4718275  11.8332958
  75.4884863  17.8892159  11.9001126  30.7038927  73.5586023  59.3789673
  30.6722116  73.1823540  60.2585506  31.0618973  74.4370508  59.5069742
   0.3271236   6.3578594  22.6451778   0.0402266   7.1609378  23.0799055
   1.1337134   6.1145705  23.0995512  78.9374161   1.1240825  23.7269592
  78.9815426   1.8371554  24.3639922  78.1369877   0.6502659  23.9528894
  66.8623066  68.6643124  16.1050713  67.4003458  67.8864717  16.2524247
  66.2485552  68.4043646  15.4180706  51.0353565  50.9906149   7.3446977
  51.9835520  51.0260057   7.2185540  50.9056520  50.2984095   7.9929745
  69.4158792  53.3364391  28.8566566  69.9623251  53.3401251  28.0707693
  68.8206911  52.5973845  28.7310648   8.9031804  19.6200514  29.0851021
   7.9934698  19.3293917  29.0204835   8.8514417  20.4763412  29.5097470
  13.5429657  19.8909235  31.9081354  14.4560337  19.9882531  32.1784401
  13.5263264  20.2036047  31.0035992  35.9971595   7.3475307  44.8648882
  36.9168377   7.5412184  44.6834755  35.7653451   7.9368573  45.5826569
  66.7770195  68.5167694  42.7996254  65.9205723  68.9431190  42.7686787
  67.1888065  68.7457561  41.9664240  64.1545343  15.5144250  54.3339300
  63.8610458  15.5555391  55.2440977  65.1096058  15.5474496  54.3885183
   0.0187123  27.4648380  25.0649357   0.9426745  27.7009320  25.1473045
   0.0256093  26.5197945  24.9130177   3.2532129   1.3454556  51.8887711
   2.6674512   1.5389313  52.6206732   3.7105003   0.5470036  52.1525764
  29.0631938   2.6406229  48.2844353  29.2861032   1.9287878  48.8842964
  28.1570029   2.4652471  48.0308771  77.1462584  51.9437933  18.6989057
  77.2473192  52.1359777  17.7666593  76.5813780  51.1714602  18.7243748
  11.9450819   2.6845202  39.8630047  11.7033792   3.2999820  40.5551147
  11.8578446   3.1879780  39.0535903  10.9100676   4.3187049  42.3263788
  10.4906845   4.3326518  43.1867027  11.8446195   4.4060186  42.5140524
  47.7224827  44.6912003   1.1703261  46.8295145  44.4094133   1.3689108
  47.6304626  45.6040239   0.8973558   3.4447554   6.0374528  55.5744410
   3.8432181   6.0413963  56.4447546   4.1870785   5.9995157  54.9713230
  15.9331298  68.4990549   8.8040745  15.0090289  68.6872339   8.6401945
  15.9939218  68.4073448   9.7549301  71.2622547  18.6029494  48.4948349
  70.6622648  19.3474841  48.5385466  71.0063982  18.0456853  49.2298317
  42.2524691  31.4344239   3.7490314  41.9913101  32.3513961   3.8338253
  41.6338062  31.0665536   3.1180352  60.6202602  16.3042247  34.3122339
  61.1096811  16.3632417  33.4917378  60.2711391  15.4129922  34.3192959
  55.3229952  16.3932610  38.8172579  55.2366018  17.2772563  39.1740751
  54.8261452  16.4154756  37.9994059  10.4582822  11.7001617  45.8771133
   9.6804929  12.1762574  45.5862379  11.0600007  11.7477548  45.1342106
  61.8210411  70.9435701  32.2411323  61.8369055  71.1096191  31.2985778
  62.1902943  70.0655603  32.3359013  75.9417152  54.1933250  38.1689715
  76.8811846  54.1535282  37.9899383  75.5313015  53.8656235  37.3687196
  75.2860212   9.5788729  54.4153118  75.3426361  10.4781604  54.7382784
  76.1518669   9.4014108  54.0478182  19.0972793  52.7204180  51.5829897
  18.4682536  52.0535278  51.3076353  19.7584236  52.7263737  50.8908319
   1.1304513  17.8200293  52.3303986   1.0955285  17.6129460  53.2642794
   1.6646798  18.6127198  52.2806597  68.7603426  16.0461187  33.2281113
  69.0448189  15.3661907  32.6173711  69.1087723  16.8586516  32.8612041
   6.3578779  61.2136745  34.3752837   6.1827892  61.7596483  35.1417637
   5.7930875  60.4496336  34.4913960  79.3810463   0.3021154   6.2871045
  78.9139175   0.6508520   7.0463187  79.5473862  -0.6141832   6.5083712
   7.7252746  64.5021725  45.3640318   7.5422204  65.1236105  46.0686874
   7.6459259  65.0190067  44.5622730  54.8628616  17.4133110   0.3420088
  55.5350828  17.4986207  -0.3340622  54.9916410  16.5342510   0.6982405
  61.9643068  72.9091311  52.0995808  62.1798944  73.5012436  52.8201056
  62.7526999  72.8952312  51.5569258  60.0365829  11.5398943  46.7996216
  60.7929897  11.9414628  47.2271967  59.7492313  10.8606184  47.4097395
  19.8242664   2.5500527  33.3572674  19.3763816   2.9241928  34.1159844
  20.6209588   2.1605046  33.7174964  37.0550609  57.9099226  60.6780767
  36.8595839  58.6413288  61.2637949  36.2511492  57.7856112  60.1735926
  55.4115248  50.3525782  19.4367421  55.5362654  50.7969475  20.2753186
  55.4863644  51.0482693  18.7835634  44.6313620  51.1983776  63.4583902
  44.3433285  51.3592529  62.5598431  44.8804522  52.0617247  63.7882662
  44.2815018   2.6045054  38.2967949  44.7221231   2.8626567  39.1063881
  43.6644125   1.9242440  38.5663819   1.4546892  16.8044579  24.1051817
   1.4774048  16.6772306  23.1567454   0.5569366  17.0815170  24.2882395
  36.1987519  63.0675459  39.5690346  35.9607029  63.0220413  40.4950428
  36.6544342  63.9045715  39.4797277  61.3530588   5.5317998  53.1321955
  62.2238302   5.1490343  53.2393360  60.8265591   4.8272717  52.7544785
  75.3235722  29.6591282  38.3112955  74.6939850  29.1819429  37.7707863
  76.1708498  29.2729068  38.0895185  46.9171381   1.3687281  16.4920592
  46.9321108   2.3037957  16.6961586  47.2747660   0.9472489  17.2735262
  61.1071110   1.4379756  31.0017633  61.0898781   0.8218153  31.7340755
  61.7440796   2.1029332  31.2631774  28.5279036  15.3102922  53.4642220
  27.9616904  16.0403860  53.2140255  29.1026449  15.1833284  52.7093840
  21.1448812  46.4480448  14.0264583  21.4141273  46.8569374  14.8489833
  20.2635527  46.7862844  13.8680816  63.8308716  58.5578489  14.9033010
  64.0581656  58.9984655  15.7220948  62.8749943  58.5089397  14.9149704
  68.7375307  46.6388655  61.1152124  68.5271072  46.8119097  60.1976061
  68.6263752  47.4843502  61.5499926  70.5031109  68.9979887  43.9439487
  69.9791718  68.2547092  43.6451864  71.2081194  69.0681839  43.3003092
  43.3828926  73.4258890  15.3174901  43.7194729  72.6313877  14.9031043
  42.4410200  73.4036589  15.1483476  18.1324983  57.8577995   3.9597028
  18.3811510  58.2147264   3.1070551  17.1858001  57.7300739   3.8990378
  76.0382462  29.8955870  47.4833202  76.5643311  29.1026926  47.3794556
  76.5514565  30.5812407  47.0558548  76.7123938  38.7682843   1.0180201
  76.8585110  38.2094407   1.7812850  76.5648699  38.1557536   0.2974125
  57.2675137   0.3959497  41.3622141  56.4623193   0.1315864  41.8071938
  57.5035600  -0.3602139  40.8248806  34.5757151  61.1192799  38.4664869
  33.7854958  61.4568090  38.8882160  35.2562046  61.7543983  38.6896205
  66.9037342  69.1937780  45.6756163  66.8729258  68.2733393  45.9365320
  66.9766855  69.1699505  44.7214985   5.7631814  28.8384414  25.5263996
   5.9514147  29.5745063  26.1086416   5.6587690  29.2370796  24.6624446
  14.6001649  46.4433813  19.8262763  14.0097570  45.7059765  19.6717203
  14.5219827  46.9819260  19.0388203  63.1399775   6.4300758  46.9774008
  62.9699373   7.3559767  46.8041182  62.4724627   5.9654206  46.4726782
   8.9766377  21.0731483  53.5517454   8.2941729  20.4092383  53.6502266
   8.5488659  21.8942428  53.7947369  57.6517439   7.8013819  51.3676882
  57.2276258   8.1944603  50.6049013  58.5886574   7.8972536  51.1967134
  32.6378345  37.2596192  10.4126036  32.0052409  36.8721318   9.8076993
  33.1205416  37.8927588   9.8812300   2.2317897  53.1074142  19.4625461
   3.1221962  53.0533361  19.8096538   2.0526788  54.0461063  19.4077599
  28.9057994  12.8159034  54.6124172  28.6891174  13.6937618  54.2983389
  29.3634200  12.9638016  55.4400301  24.5235872  17.5794876  49.6385860
  24.3815160  16.9760859  50.3679371  23.9764142  18.3373570  49.8446608
   4.6589786  42.1658850  31.1750770   4.6525413  41.2731886  31.5204477
   5.3742981  42.1714783  30.5390596  58.6246586  16.7552423  14.8596501
  59.4892454  16.8834138  15.2499044  58.4556198  15.8178782  14.9545467
   6.4664137   3.3755162  38.8958144   6.4370227   3.2430205  37.9482841
   7.3607826   3.6693987  39.0689349  11.2628198   5.1907092  35.3485036
  10.5236793   5.6585366  34.9598646  11.7543578   5.8658487  35.8162737
  59.7353458  72.6717377  45.8171558  60.2606010  72.5569534  46.6090965
  59.8370504  73.5970688  45.5943251   8.3023101  40.0787687  40.4939318
   7.3955762  40.2066946  40.2151823   8.3776176  40.5841351  41.3033533
  42.6602312  73.6933286  48.3306313  42.7283522  72.8629891  48.8019371
  42.7154060  74.3616518  49.0136623  70.0545216   6.8248785  53.8695669
  69.3898010   6.6723090  54.5412064  70.8358669   6.3822812  54.2009783
  62.9792547  59.5909119  55.3876162  63.2822704  60.4726696  55.1710129
  62.1505833  59.7284222  55.8465576  22.6779175  20.7805228  44.3120289
  22.2539496  21.6168880  44.1197252  21.9998121  20.1250505  44.1484404
  65.1404190  70.5679464  47.2560596  65.4959583  69.7959518  46.8157768
  65.1280737  71.2450361  46.5795803  68.3790207  64.2135429  19.4723701
  68.8968515  64.1538858  18.6695504  68.8036871  63.6050892  20.0770760
  62.7058029  69.5151377  36.0380292  63.5638952  69.8246717  35.7480335
  62.1262312  70.2671432  35.9163165  62.9776716  59.7602224  27.6082873
  63.2067156  58.8813019  27.3061824  63.0414343  60.3068733  26.8251276
  17.0054138   7.8421742  38.6043692  17.5751305   8.6061525  38.5149741
  16.1217427   8.2068002  38.6534286  42.5446749   5.3013104  42.3725367
  42.3813295   6.1904007  42.0577860  42.1362019   4.7362405  41.7167377
  23.2949567  65.0585270  48.1232548  23.1593943  65.9584236  48.4199667
  22.4416327  64.6389961  48.2331038  73.9763403  16.5070653  41.1417675
  73.5886145  17.3412311  40.8770609  73.3542109  15.8464229  40.8372402
   5.5966991  26.2031364  18.8407469   4.7969586  25.6808257  18.7788033
   5.4367411  26.8003273  19.5715034   3.4828928  57.9519892  34.5868230
   3.7438217  58.7481928  35.0496483   4.2564020  57.3893356  34.6233320
   2.2171229  65.1304531  17.7298462   3.1632918  65.0185728  17.8219306
   1.8413579  64.5369434  18.3800578  71.4125443  23.6086965  61.3305521
  71.1976099  24.2355537  62.0212650  71.3274527  22.7522349  61.7494392
  26.0507107  52.4146414  11.9727230  25.1336122  52.1974421  12.1400154
  26.0566497  53.3663464  11.8704844  15.6877065   4.7886857  49.3835783
  16.4852917   4.2988467  49.5839453  15.4781997   5.2481985  50.1967144
  53.4532022  33.7013793  40.0733042  53.8943291  34.4440794  40.4856539
  52.5887203  34.0374756  39.8367763  39.5481873  61.0541630  53.1092548
  39.3545175  61.6101122  52.3545074  38.7212086  60.6109667  53.2987595
  14.7987866  34.0151668  47.8306007  14.5352697  34.9323344  47.7557850
  14.7736597  33.6847305  46.9325972  19.5540345  16.0408735  57.9785728
  19.7774363  16.6973293  57.3187304  19.4406796  16.5419972  58.7861967
  78.2795620  66.9857883  33.0814195  78.7394810  66.1544991  32.9644942
  78.3265162  67.4081945  32.2237468  63.7077427  72.2759867  10.6059241
  63.1733274  72.0302725  11.3610792  64.2258692  73.0206490  10.9112990
  59.1960764  24.7723579  43.1361771  59.8600864  25.4429412  42.9760504
  58.4132433  25.2646399  43.3832788  78.0734968   2.7448699  52.8331995
  78.6094618   3.1718311  53.5015392  78.1331110   1.8118313  53.0384254
  54.9731922  58.3066034  26.4360738  55.8410025  58.0037594  26.7033243
  55.1062155  59.2194700  26.1807036  73.1861639   9.0394086  29.7724652
  73.1498861   8.1418234  30.1030064  73.6258650   8.9651507  28.9254832
   4.9193141  20.6014299   7.4733043   5.3422904  20.9156108   6.6741711
   5.6009537  20.1043749   7.9255611  12.3811185  23.0737424  30.7788754
  13.3340442  23.0895734  30.6899190  12.0912766  22.4264431  30.1360512
  11.0460269  36.4605498  14.7659433  11.9947207  36.4820457  14.6404469
  10.8912456  37.0292950  15.5201328  29.7790360  22.3005700   6.7657954
  29.5759511  21.6633773   6.0809797  30.6605387  22.6074386   6.5536314
  32.5681520  49.9845219  61.7998457  32.6311302  50.8154058  62.2709084
  33.4631371  49.8036098  61.5126085  11.5651608  72.6527405  18.5164642
  12.4522817  73.0122375  18.5138834  11.4721453  72.2383881  17.6586223
  64.7466469  67.9866266  32.5754619  65.6710529  68.2298803  32.6257491
  64.6378899  67.6405668  31.6896582   3.8421527  15.7340193  44.6160030
   3.0518228  16.1100721  44.2284536   4.2256099  16.4509225  45.1212168
  13.2401013  30.2741861  28.0868983  13.3575070  29.6523380  28.8050580
  14.1269445  30.4425645  27.7684808  73.5639906  20.7162595   8.4222430
  73.8018608  19.8433292   8.1097639  72.6099110  20.7446241   8.3504033
  78.1271267  10.8646905  25.4754591  79.0590000  10.9738445  25.6650233
  78.0210686  11.2095344  24.5888543   5.3088123  25.9990335  48.5984278
   6.2040383  25.9647369  48.9355087   5.0823301  26.9289160  48.6143970
  29.2768955   7.5079763   9.9954653  29.1818404   8.4588861   9.9409866
  28.4405065   7.1652269   9.6804911  15.3772509  71.2039280  18.6439610
  16.0236561  71.2195826  19.3497562  14.7541428  71.8929911  18.8745284
  69.7832251  29.9955988  63.1988573  70.2781439  30.4009843  62.4868488
  69.9881124  30.5288720  63.9668894  15.1019394  25.3229809  24.8777127
  14.9421358  26.2634373  24.9567008  16.0313535  25.2199602  25.0821805
  76.6248846  66.6786098  12.7409601  76.0993671  66.2309599  12.0778811
  75.9820509  67.0552397  13.3419144  58.3668375  71.2168884  28.6935568
  58.5648441  72.0374584  28.2422376  58.5936260  70.5349970  28.0612397
  23.9311910  18.5519326  39.4195628  24.8775601  18.6080468  39.5517373
  23.5861588  18.2812190  40.2703857  59.1628456  45.0094461  63.7514830
  59.9656916  45.4114676  63.4197474  58.6035252  45.7498980  63.9862680
  70.0061750  53.7228203   6.9872242  70.3416491  52.8424454   6.8180084
  69.9332142  53.7722301   7.9403597  72.1819067  67.9520082  16.3463104
  71.7005348  68.7779665  16.3942778  72.3571825  67.7235746  17.2591794
   1.9357711  12.6915133  22.6663280   2.2723663  12.8754592  23.5433102
   2.7082834  12.4365795  22.1618819  29.3467331  31.7399812  61.7174339
  28.6424589  32.3050284  62.0351553  28.9010596  30.9484363  61.4156675
  25.8531141  48.0736494  36.2286949  25.2758551  48.4565210  35.5680776
  25.2688408  47.5666523  36.7924428   3.1776434  62.8852606  20.1920676
   2.3964745  62.3451090  20.0727320   2.8919399  63.5961008  20.7659245
  20.5996323  50.3403950  47.1912050  19.7351587  49.9294949  47.2003078
  20.4232383  51.2723112  47.3202085   5.1868325  63.9009476  50.6675243
   4.9914342  64.7101641  51.1399841   4.3291801  63.5169935  50.4851913
  11.0565794  45.7030964  31.2886667  11.2141001  45.8925962  30.3637290
  10.1769471  46.0414219  31.4560437  10.6982076  24.1839814  13.1064188
  11.2855971  24.8624468  12.7734172  10.2202821  23.8809323  12.3344219
   1.0183772  33.8798976  25.3166103   0.3770489  33.2922888  25.7161641
   1.8578303  33.4361649  25.4376483  21.3403463   4.5334414  27.6191688
  20.7939482   4.7427285  28.3767176  21.2535238   5.2935582  27.0439172
  15.7586491  48.5846186   2.6213697  15.5163217  48.6312532   1.6965270
  14.9261582  48.4802628   3.0821294  57.3439455  61.6738653  19.0771949
  56.8796110  62.3224783  18.5481131  56.7041588  61.3976765  19.7334170
  56.2869835  37.0852160  17.1644557  55.5200052  36.8326139  16.6504860
  57.0263386  36.6930199  16.6999471  49.1364098  49.5695496  59.7536087
  49.5173264  50.4382467  59.8820543  48.5484171  49.4531202  60.4998922
  77.7158022  28.4001255  56.6474438  78.0686808  29.1153765  57.1767092
  76.7979670  28.3369040  56.9116640  48.9996195  37.3696113   5.2054626
  49.1745615  37.8845310   4.4177544  49.8004866  37.4457598   5.7241547
  65.0385094  55.1182079  51.4312935  64.9719858  54.2372942  51.0627842
  65.5195284  54.9995279  52.2502947  68.9744949  30.3521132  43.0970907
  69.7232294  30.9071946  43.3150721  68.9394140  29.7085166  43.8047504
  28.2625294  21.8615246  17.0044839  27.3586535  21.7225122  17.2871757
  28.4286475  21.1569810  16.3781822  20.6398869  38.5804915  15.3977013
  20.9822178  39.2399168  16.0011923  19.7243762  38.8275456  15.2671802
  68.5037088  14.6026552  25.5095601  68.2380533  14.2444694  26.3565326
  68.8386869  13.8482487  25.0249028  68.4042597  50.5942678  10.1637423
  68.6753273  50.1362848  10.9593606  67.8632879  49.9592400   9.6943575
  40.3136778  19.9281812   9.4917619  41.1924553  19.5803893   9.6434903
  39.7498894  19.1548502   9.4734848  14.6573818  23.4147263  26.8042850
  13.8119400  23.6890030  27.1595764  14.8273897  24.0285134  26.0897255
   0.8447848  21.8920445  49.3590736   0.6723090  21.4346528  50.1820421
   1.7817315  21.7676950  49.2077494  18.6765194  48.3857584  23.5997057
  18.1712747  47.9342365  24.2757869  19.5367801  47.9666996  23.6236167
  64.9590874  21.3607073  59.1925716  64.3846035  20.5974197  59.1325951
  64.7475052  21.7537761  60.0393057  72.8220797  13.0741036   4.6015936
  72.9565477  13.9136887   5.0411916  73.2214546  13.1885874   3.7392557
   9.1063809  28.0124927  23.6583209   8.7526631  27.3940659  23.0190539
   9.9719989  27.6653600  23.8738084   5.0728840  21.8229413  54.0898800
   4.1439942  22.0514870  54.1239786   5.1883787  21.1842608  54.7934294
   8.6087686  43.1591892  28.0122280   8.6602706  44.0709734  28.2989883
   8.3023965  43.2098150  27.1067977  71.9210863  21.5493417  12.4651504
  71.5838528  20.6632376  12.5967705  72.0017242  21.9086218  13.3486927
  61.1064434  18.6486757  46.6412783  60.7479477  17.8054404  46.9181681
  61.4016151  19.0615582  47.4528408  45.6407881   0.2361556  27.6111770
  46.0249090   0.9411815  28.1323504  44.9599791   0.6651097  27.0927858
   2.5422642   5.1771951  50.1539469   1.8969575   5.4047298  49.4845915
   2.1219197   5.4115552  50.9813643  21.4620280  25.4627204  17.6840699
  21.7143822  25.3125906  18.5951197  21.2802505  24.5886850  17.3387456
  70.6000519  25.3804946  63.3683109  69.8694038  25.4846621  62.7587748
  70.9206915  26.2708354  63.5122395   4.9710292   8.5282207  33.7537909
   5.1901835   8.7702018  34.6535969   5.2370417   9.2845112  33.2308245
  25.9586096  33.4952831  18.9966631  25.9770942  33.5026264  18.0396700
  26.5147281  34.2311192  19.2526138   9.1904944  26.7568040  37.2011876
   8.9090312  26.1567473  36.5105772  10.0996995  26.9625545  36.9838309
   2.0397370  27.9514456   3.5832059   2.1024968  27.0121884   3.4097454
   2.8173324  28.1512356   4.1044179  18.3252478   2.7880174   2.0425254
  17.4431562   2.7568829   2.4128994  18.3276594   2.1050563   1.3718615
  66.9789076  10.2732742  19.4673216  66.9185305  11.0353005  18.8912106
  67.8689575  10.3079116  19.8178053  49.6182680  34.4213390  36.9545746
  49.6870470  35.2061176  36.4108634  49.0355062  33.8409925  36.4648604
  20.7909775  51.0171032  62.4885130  21.7386436  50.9080172  62.5676346
  20.5448556  50.4503584  61.7574453  62.5802612  67.8114080  10.1505756
  63.2030964  68.4890032   9.8875701  62.1171904  67.5855875   9.3438524
  72.2291660  60.8507729  42.9013968  72.6421499  61.3616228  42.2051907
  72.4049616  61.3482857  43.7000275  56.2719059  59.8307180  57.0638180
  57.0204592  59.6027136  56.5125370  56.2112665  60.7840633  57.0030451
  55.6166458   5.1111972   3.2622364  55.7050800   5.0486636   2.3111838
  55.9128666   4.2608017   3.5867554  24.3005896   3.9876881  43.8347673
  25.1625824   4.0887374  43.4310436  23.7060070   3.8470444  43.0979347
   6.0664684  69.4376802  61.6749668   5.2437216  69.9250507  61.7172718
   6.6937584  69.9852467  62.1471024  33.9539552  15.0090575  21.7846012
  33.4056783  14.2597842  21.5517569  33.4331822  15.4981399  22.4216461
  77.0649147  47.0195198  13.2131672  76.7119169  46.1452246  13.3781874
  77.5660515  47.2282124  14.0015459  73.6506128  20.5273199  30.0081015
  73.4144306  19.7896373  30.5704856  73.3259106  20.2816415  29.1418219
  65.9609938  66.6491032  23.2141542  66.3220549  66.3173676  22.3920703
  65.8533192  67.5887108  23.0665803  51.7835712   9.0020251  22.0728421
  51.6714621   9.2797267  21.1636972  52.3937368   8.2660645  22.0249748
  21.3411713  55.2922487  20.5571318  20.9143043  55.4818392  21.3926387
  22.2693348  55.4616880  20.7184911  45.8852768  24.7247529   2.6831585
  45.2424431  24.3613315   2.0741284  45.7025003  25.6643009   2.6918674
  71.6202068  64.6761227  46.3132095  72.1541214  64.8003149  45.5285168
  72.0529985  65.2048826  46.9835377  43.2483244  60.8823776  18.9861274
  42.3583412  60.6349707  19.2370331  43.6389065  61.2210083  19.7917354
  28.2442403  54.9309349  50.6814384  28.7719035  55.2060413  49.9316883
  27.4467301  54.5705509  50.2937078  31.0828567   9.7233087  13.8478684
  31.1953354   9.2800468  13.0069757  31.9313240   9.6329194  14.2816472
  73.9397573  65.3127432  62.1461248  74.5709181  65.7924461  62.6825476
  74.4664717  64.9205685  61.4497042  74.1953897  18.9715576   3.9279789
  74.0799904  19.9179804   4.0128154  73.5668850  18.7131095   3.2538727
  68.7133026  68.0440855  32.3925686  69.4045115  67.6267385  31.8784857
  68.6803198  67.5384665  33.2046580  13.9146197  32.7655458  25.9978700
  14.6888578  32.2651839  25.7401395  13.1766665  32.2468829  25.6774855
  18.4471023  41.2479734   6.7791361  19.2620540  41.1094093   7.2617197
  17.9550755  40.4361343   6.9018668  15.3476226  10.5205309  38.9578056
  15.6420386  11.0419071  38.2110000  15.4816222  11.0901570  39.7153020
   5.4452384  39.6571922  32.6159310   4.7087306  39.1023707  32.3590970
   5.6616998  39.3721104  33.5036826  43.2137966  60.7171154  46.7989540
  43.9114618  60.1892805  47.1873951  43.4411192  61.6188383  47.0257807
   8.7779260  13.0534983  25.7634521   8.9619029  12.9721904  24.8276234
   7.8556848  13.3064091  25.8051538  11.7017984  52.7343130   6.2684554
  11.5970385  51.8329000   5.9639716  12.3754275  53.1033134   5.6972319
   1.3808410   7.8863031  28.4986067   1.8120202   8.0273104  27.6557350
   0.5000824   7.5890189  28.2703114   1.3394822  43.8916159   6.3641262
   1.8716088  44.5446587   5.9095842   0.4434999  44.0731716   6.0804254
  24.7392821   4.7615257   7.7642971  23.9501357   4.2274439   7.8550398
  25.4598975   4.1549793   7.9347318  12.0157719  64.5223761  29.9226236
  12.0695496  63.7151766  29.4109893  11.4186823  64.3116188  30.6404662
   6.3101482  21.1011696  49.1916513   6.3640374  20.1945806  49.4940090
   6.5594929  21.6232061  49.9542379   3.8306245  35.2524638  50.9968328
   2.9863036  34.8312354  50.8358383   3.7187701  36.1454940  50.6709242
   8.9074022   5.1427758  53.6844969   8.6000854   5.0114870  52.7875280
   9.8239011   4.8672131  53.6664200  25.4645324  23.3421636  23.0328202
  25.6163430  23.8179684  22.2162461  24.6819234  23.7486911  23.4049606
  20.8512640  67.2287941  60.2890778  20.8463526  66.9973946  59.3602800
  20.5583954  68.1398392  60.3104830  35.4013896  20.1358294   2.8685233
  35.6423068  20.3823972   3.7614933  35.6586051  19.2166781   2.7961865
  34.9661326  16.9242942  24.9694014  34.4123840  17.4893093  25.5082464
  35.4077435  16.3525116  25.5973148   1.5869842  19.0272641  36.1923790
   1.8659687  18.3746004  36.8345857   1.9324186  19.8550415  36.5265846
  11.3549089  21.1588955  19.4473147  11.6573203  20.3403282  19.0539622
  11.3982749  21.0017419  20.3905296  63.1185436  13.4281862  21.2871933
  62.7684021  12.5427032  21.3849401  63.1679296  13.7662709  22.1813369
  53.2255030  56.1092949  18.3195078  53.3255959  56.9999695  17.9834831
  53.4196854  56.1825991  19.2539334  11.7253041  32.6849222  13.0876446
  12.0701647  33.5389805  12.8270888  10.9386587  32.5713921  12.5542295
  77.9654360  25.3852391  34.2028928  78.7471962  25.7847357  33.8214707
  77.2574949  25.6262875  33.6054420  65.0617981  12.3252106  11.6625047
  64.9631310  11.7477489  12.4194944  64.2126417  12.7592266  11.5800536
  68.5053551  74.3924599   2.9802972  68.6249531  75.3415422   3.0145216
  69.1585386  74.0913654   2.3486914  59.2887493  71.0373884  64.6710697
  59.6022483  70.4225188  64.0078307  59.8298427  70.8569651  65.4397676
  22.1033692  41.0220289  12.3137522  22.0988154  40.0653076  12.2837710
  21.1819649  41.2685633  12.2333455  12.7676904  22.7253509  37.0924950
  12.6485646  23.1140661  37.9590631  12.2238481  23.2594967  36.5135694
  69.8635101   3.1473464  15.4429603  69.3169355   2.7771354  16.1360908
  69.2630911   3.2794335  14.7092819  22.9179597  55.9584284  47.8480864
  22.1228909  55.8663034  47.3231030  23.3271313  55.0936556  47.8168678
   1.4546342  63.5426283   6.0092753   1.1454764  64.1932869   5.3789610
   0.7303195  63.4448957   6.6273761  28.2175779  73.3007002   0.6763951
  27.5857306  73.2356596   1.3924754  28.1674290  74.2142153   0.3949597
   2.2247775   0.2116533   8.1343251   1.6681510  -0.4348273   7.7002037
   2.3795643   0.8807532   7.4675578  64.3529094  74.2689896  17.0645118
  64.3449950  74.4736412  17.9995441  65.1440287  74.6938248  16.7330337
  28.4143519  13.2063222  58.2352400  28.1529403  12.2896647  58.3226299
  29.3700123  13.1794012  58.1881189   5.1866490  10.3762066  44.8548079
   5.0594002  10.1036549  45.7635212   6.0729766  10.0858378  44.6395397
   2.1779102   0.2893019  24.2638111   1.2423143   0.4899558  24.2387080
   2.2485356  -0.4481177  24.8699927  37.3520947  18.3863962  14.5311058
  37.1561480  17.5724912  14.9952126  37.1499300  18.1945753  13.6153734
  22.0769191  70.3015041  39.9689746  21.5619874  71.0915375  40.1330757
  21.7052722  69.9358177  39.1662383  29.2553687  56.8568039  58.9252472
  28.3971906  56.5429401  58.6402035  29.3150568  56.5907526  59.8427916
  14.4387650   1.2769458  11.2001169  14.0555680   0.6346885  11.7975259
  13.8562655   2.0343691  11.2570095  23.2489157  65.4581976  15.9150338
  22.9013920  65.7351732  15.0672472  23.4263158  66.2759161  16.3798928
   9.1089374  20.8911586  17.4543929  10.0300920  21.1111856  17.3154855
   9.0632194  20.6192803  18.3710301  13.3751011  61.0459709   0.4667094
  14.1164517  60.8282852   1.0317251  13.5821736  61.9155025   0.1242599
  50.7427597  64.3774652   9.1973215  51.6840982  64.2176628   9.1296840
  50.6745958  65.2225208   9.6416879  19.4588065   8.3131033  36.0471535
  20.0938725   8.4103179  35.3375959  19.8139954   8.8430405  36.7607617
  23.1716156  19.8065853  15.4784358  23.8109422  20.2909255  14.9560285
  23.5147071  18.9135146  15.5091751  17.8365946  11.8556714  11.9174135
  18.0436039  11.0258210  12.3472130  18.2026410  11.7674589  11.0373795
  40.6571817  38.5398746  64.5514059  40.6208754  37.5853205  64.6125698
  41.5027142  38.7216091  64.1411924   8.3457297   8.3219337  32.0501828
   7.7514219   9.0704387  32.1028113   8.5652578   8.2552856  31.1208844
  39.1281724  26.5990996   9.7986466  38.8694644  26.8289781  10.6910908
  40.0781727  26.4914322   9.8448831  19.0721440   7.2867650  50.7335806
  18.7628448   7.6995629  49.9272537  19.4234407   6.4424241  50.4508972
  68.8962555  38.1284094  19.7900248  69.5577383  37.4888349  19.5261776
  68.5814524  38.5010338  18.9664471  19.3944037   4.7891533   7.9645276
  18.8435459   5.4564738   8.3737588  20.0285053   5.2860528   7.4475765
  73.7153387  34.5352292  49.7813749  73.7666655  34.9871874  48.9391565
  74.3194437  33.7978196  49.6946859   9.1978979  30.5547357  33.4155917
   9.6938908  30.8525586  34.1781688   8.3012283  30.8435035  33.5853839
  40.1569462   9.0735233  64.6115065  40.3348064   8.3405042  64.0222025
  40.0621605   9.8293149  64.0318298  21.9180942  17.3137331  44.1689110
  22.0912671  17.2335041  45.1068878  21.2527013  16.6491640  43.9904928
   5.6561434  51.4685678  53.9359236   4.9149883  52.0542908  53.7814999
   5.5074739  51.1208677  54.8152637  13.0173433   3.2169959  22.6265168
  12.4312079   3.9722753  22.5792909  12.6052570   2.6334906  23.2636499
  77.8175545  62.1038485  16.7072105  77.6437426  62.1905422  17.6444960
  78.5493422  61.4890242  16.6551840  31.8819785  50.3348494  56.3051033
  32.5422311  50.7411814  56.8665266  31.3640094  51.0688448  55.9746647
  28.3980107  38.1451678  13.4308481  27.7234459  37.4683380  13.4864855
  28.0005479  38.8365078  12.9014111  23.3484173  23.8516450  11.9186854
  23.4101844  24.6374679  11.3756382  22.4674034  23.8866282  12.2912753
   6.2270927  14.4633305  26.1514258   5.5128306  14.7297764  26.7302775
   7.0061338  14.8722208  26.5284348  19.7923005   7.1916211   9.7983754
  19.9592352   7.9586017   9.2505568  20.6550097   6.9408077  10.1286089
  32.7336264  66.2842798  20.0884223  33.6561108  66.3904572  20.3207612
  32.6990271  66.4762783  19.1513145  73.8130808  59.6070623  27.1166182
  73.3406162  59.8506641  27.9126501  74.1256189  58.7183380  27.2860837
  15.1283932   4.6747884  16.9364679  14.4896924   4.6999583  17.6489699
  15.8349729   5.2511054  17.2277319  16.7091882   2.2618148   5.9209704
  16.4782608   2.4068108   6.8385106  17.4280798   2.8718102   5.7556415
  54.4670200  15.0795233  62.0017147  54.3841791  15.2928710  61.0722780
  53.6754036  14.5810771  62.2045183   2.5247160  61.5792084  14.9034595
   1.9835007  61.9964838  14.2332375   1.9108212  61.3587666  15.6040096
  18.7172210  41.8265009   1.6743855  18.1005180  42.2403336   1.0705222
  19.1050756  42.5559378   2.1578322  44.3793726  11.8324864  46.7245150
  43.4715080  12.1125472  46.8410492  44.3323803  10.8771789  46.6869497
  33.0329061  50.6633997  28.0803466  32.5122523  51.4648581  28.1334066
  33.4246206  50.6896114  27.2073603  73.3909893  43.6740065  12.9341066
  73.3429384  42.7183819  12.9075527  72.4834251  43.9563990  13.0473101
  37.0891047   4.9713233  11.0069466  36.8328238   5.8194971  10.6447959
  37.8115082   4.6814436  10.4498696  20.0656772  16.0425746  18.9347243
  20.4784608  15.2858663  18.5185099  19.4104242  16.3362503  18.3017707
   8.6114442  34.2088628  30.6891894   8.8351274  33.4732294  31.2593126
   7.8747404  34.6355796  31.1266971  14.1272664  23.2936811  23.5035110
  14.5006752  24.0029621  24.0266919  14.7410274  23.1829405  22.7773809
  25.3020954  15.5605686  45.5214167  25.6481743  15.6234086  46.4116478
  24.5436430  16.1444926  45.5175209  74.4383097  41.8514872  21.6348124
  74.7579575  40.9528065  21.5546203  74.2795467  41.9665194  22.5717187
  65.9561205  20.1011848  14.9713099  65.6171894  20.9963536  14.9659896
  66.8600416  20.1891160  15.2736735  36.2996292  14.2279696   0.9665629
  35.5622244  14.4079721   1.5497132  36.4547682  13.2880306   1.0597299
  20.1831245   9.3097544   7.5466615  19.7004247   8.8462210   6.8622851
  20.8512282   9.8063076   7.0741123  66.1091805   6.1133742  32.4240708
  65.4812670   6.1469412  31.7023873  66.8399239   5.5983651  32.0819974
  10.2253997  25.5864859  10.3344882  11.0429323  25.1924920  10.0301182
   9.6044099  25.4292965   9.6232253  15.9005618  54.3879032  49.3240309
  15.7166111  55.3207016  49.4348526  16.3064671  54.1240692  50.1497841
   6.8246162  19.5789158  19.6658814   6.6444784  20.4909134  19.4377565
   6.3364589  19.4338453  20.4763699  21.4148617  24.6810818   8.4855378
  20.7033181  25.2747655   8.2457966  22.0628786  25.2431107   8.9103091
  31.5844488  31.2194347  63.4112167  30.9104443  30.8025241  62.8744316
  31.3501883  32.1475267  63.4116220  42.9295301  23.5784316   6.2941426
  42.4233961  22.7769923   6.4273936  43.4982872  23.6329889   7.0621067
  67.7909851  45.7494307   2.9240748  67.6274967  44.8263884   2.7304569
  68.2397842  46.0814142   2.1465153  30.0762868  15.1604700  47.4484825
  29.4972277  15.8491373  47.1218920  29.5912790  14.7626114  48.1714678
   9.1282362  74.3163061  19.0090191   9.8879933  73.7943029  19.2669129
   8.5193813  73.6822176  18.6302638  16.0091937  13.3403420  39.9648571
  15.4110420  13.7101102  40.6142521  16.0097027  13.9767885  39.2498970
  37.6736951  11.4340758   1.5919641  37.8271699  10.7112026   2.2003496
  38.3857059  12.0494854   1.7667332  70.5756950  61.3047171  35.4906654
  70.2828598  60.4148436  35.6871367  71.4946795  61.2050676  35.2421355
  23.2341838  24.8340392  23.8558412  22.4713135  24.2757225  23.7056875
  22.9025817  25.5531383  24.3935871   9.2936563  10.6380773  35.1382685
   9.3502831   9.7683066  35.5339003   9.2746717  10.4717398  34.1958213
  17.7930510  15.4059434  41.9003534  17.4140692  14.8547661  42.5850487
  17.2637534  15.2218437  41.1243486  73.5020781   7.4828583  51.9750071
  74.0542316   8.2627892  52.0303631  74.1066027   6.7518437  52.1030569
  17.7992594  61.5478849   2.8736109  16.9669819  61.3385773   3.2975653
  18.4427619  61.0036659   3.3274397   6.0934323  70.8370399  18.5934794
   5.1999694  71.0121775  18.8889158   6.3888878  71.6669321  18.2190239
  16.4760959  24.5106697  49.6129560  16.7915249  23.7005997  50.0136089
  15.5532241  24.5577979  49.8625898  13.6498046  12.4977016  36.5595675
  13.9432323  11.8414092  35.9275770  13.7526739  13.3326840  36.1029959
  76.2463284   7.7605778   8.7034845  76.5381861   7.7382326   9.6148318
  75.8641672   8.6315298   8.5956633  23.8924551   3.2005465  47.8594112
  23.7610269   3.8151735  47.1374750  24.2691207   3.7319466  48.5608149
  26.8798614  27.3857951  17.3185396  26.9335699  27.4670386  18.2707715
  27.6487637  27.8547859  16.9943964  35.5527711  67.7973175  25.2698684
  34.7133756  67.5211477  24.9019289  35.3612685  68.6270142  25.7070827
  39.4470596  19.3356228  17.2897828  39.7463822  19.2177939  16.3882530
  38.9258051  20.1380968  17.2661376  61.3645077  71.5429258  34.8918033
  61.9366884  71.5341854  34.1244912  60.5051327  71.2926102  34.5526123
  73.2998419  33.4422779  24.3832803  72.6303339  32.8476453  24.7215080
  73.1581736  34.2593074  24.8614287  60.2793121  74.0636015  29.4920111
  60.3857231  74.9926853  29.2877722  61.1495161  73.7784433  29.7707009
  63.0126333  58.7539577  21.8384814  62.8103876  57.8587723  22.1104598
  62.8669834  58.7555313  20.8924294  48.7615395  40.6391716  61.6658735
  48.0057812  40.6888819  61.0805655  48.4314442  40.9471130  62.5099373
  35.2220321   9.3248701  22.5515437  35.4390621   8.7567824  23.2907367
  35.9723520   9.9141377  22.4739647  48.0957651   1.8516842  26.4616132
  47.2483444   1.4472701  26.2757301  48.0185509   2.7401733  26.1139703
  16.3388979  21.9783998  28.6097646  15.4851866  22.3218298  28.3462024
  16.6677034  21.5301728  27.8305268  23.9971876  21.2314415  28.7430477
  24.6669316  20.7723069  28.2362223  23.4464502  21.6545439  28.0843329
   8.4179884  60.7818079  10.7356548   7.5629514  60.5565834  10.3690255
   8.2657558  60.8425045  11.6787195  41.9047499  11.5769351  31.4980674
  42.0183992  10.6266582  31.5151000  42.3917866  11.8900990  32.2602725
  76.6781330  13.6542022  30.3652072  77.5834465  13.9568031  30.2939463
  76.2029600  14.4030023  30.7254004  13.8648808  44.1113138  29.3779731
  14.4290376  44.1623926  30.1495624  14.2873025  43.4626389  28.8149309
  16.8589091  15.7174838  17.3111463  16.3845623  15.5793822  16.4912951
  17.6747298  16.1428726  17.0471144   4.6254173  38.6749434  21.4220881
   5.1025313  38.0003786  21.9053650   4.3706441  39.3124676  22.0890856
  49.6073675  48.9094734  63.9644241  50.1655293  48.6626959  64.7018433
  49.4675064  49.8500204  64.0741444  71.9106340  10.8638167  39.3611813
  70.9593630  10.8529162  39.2553926  72.0636415  10.4245317  40.1977491
  26.9326687  15.9442699   8.4896874  26.8764520  16.2492239   7.5841075
  26.0968184  15.5050826   8.6468452  28.9510584  10.8192873  28.2542372
  29.8635864  10.8650529  27.9688764  28.7882853   9.8854703  28.3873653
  68.7249088  40.1219320  29.6896505  68.2662535  39.7791839  30.4567194
  69.4560289  40.6225920  30.0516391  11.8162239  14.2704690  33.5516548
  11.5993440  15.0805068  34.0132093  12.5537515  13.9060640  34.0410352
  63.6019945  32.1638155   7.7022249  62.7361774  31.9181633   7.3762649
  63.7645674  31.5611672   8.4279072  66.9274569  39.5566940  15.5735409
  67.2453976  39.7682166  14.6958137  66.5523386  38.6802602  15.4876482
  77.9353428  70.9097672  43.4338188  77.7936029  70.4084396  42.6308107
  78.8589954  70.7707787  43.6430597  44.8581457  29.0365219   7.1345013
  45.4283619  29.1250038   7.8982133  44.6266699  29.9359798   6.9029289
  61.0079193   5.2084565  23.7480474  60.4748106   4.6755201  23.1581259
  61.8960905   5.1373404  23.3982944  15.7364810   5.9239876  10.5216813
  15.9713721   6.2646061   9.6585262  14.8115909   6.1483026  10.6241179
  36.1971235  33.0686307   5.1242501  36.7007995  33.7343907   4.6559483
  36.4182949  32.2476649   4.6845570  43.3030653  56.2879276   4.7323233
  42.5580263  56.3317680   4.1329664  43.9874601  56.8000555   4.3015498
  67.4869823  68.6082125  37.7167463  67.5537205  67.7023935  37.4146390
  67.4866867  69.1291189  36.9136953  35.8515334  50.8760452  17.4394858
  35.7986450  50.2013683  18.1164217  36.3144636  50.4536247  16.7159629
   4.4294760  50.4908848  25.8677101   4.3384156  51.3728285  25.5069947
   4.8277128  50.6238794  26.7279148   8.8151139  40.3647089  24.2429829
   9.0540522  40.8846378  23.4756398   9.5471466  39.7590494  24.3593216
  78.5431528  59.9088001  49.0074301  78.5434151  59.0234661  48.6435413
  77.7672672  59.9374199  49.5672655  18.5783756  12.5305057  62.8038645
  19.1507626  12.3591363  62.0560408  18.2107556  13.3971202  62.6304626
  35.6767702  51.4850712  24.2499352  36.1804700  51.0245752  24.9211025
  36.3098454  51.6608524  23.5538411  39.3575954  62.2757912  12.6044297
  38.9393067  62.7339172  11.8754661  39.1853809  61.3494730  12.4355936
  55.3675795  64.0343380  12.3723876  55.8287907  64.8654127  12.2591221
  55.7162142  63.6762619  13.1887627  49.8665667  53.1021547   1.8996710
  50.6144142  52.5503206   1.6706908  50.2171516  53.9928389   1.8993950
  45.6715345  53.7561178  27.9625463  46.3113689  54.4649649  28.0287218
  45.2515507  53.8910866  27.1130586  65.0775433  55.6225109  21.6618276
  65.0285387  54.6666956  21.6774654  65.5125618  55.8265209  20.8339548
  50.2743530  22.7923608  55.9586954  50.3547716  22.1530724  56.6665602
  49.3448210  22.7813578  55.7304859  39.9843502  52.8517914  10.1217544
  40.6659412  53.5117292   9.9946922  39.3940926  52.9707575   9.3776608
  59.6739054  64.0516376  13.1896615  59.9876499  64.9313450  12.9801059
  60.1417446  63.4793139  12.5815487  45.5920362  60.5224848  25.3741241
  45.8560896  61.2221432  25.9716082  45.5796051  59.7349691  25.9180903
  49.8083067  41.7282248  24.7738743  50.0325680  41.9736338  25.6714892
  49.7383547  42.5615358  24.3081117  26.2160730  15.8471715  48.2832241
  25.7871127  16.5446401  48.7789679  26.9717050  15.6032479  48.8177872
  51.6553354  61.2001514  30.6360388  50.9720898  60.5882311  30.3622484
  51.9215250  60.8902788  31.5016913  31.8475389  59.1370630  22.7844787
  31.6931176  60.0065422  23.1537938  31.1050153  58.9904165  22.1984887
  45.7576466  72.2836494  13.8807309  46.7115974  72.3619461  13.8895416
  45.5457735  71.8442440  14.7043014  14.7928810  27.0356750  18.5477471
  14.7838187  26.1438942  18.2000792  14.0034902  27.4407887  18.1886137
  35.9886622   3.8193870   5.2807897  35.7000542   3.3125806   4.5217872
  36.0093164   3.1858429   5.9980255  51.4191151  73.2611704   7.8204656
  51.8394709  72.7129030   8.4829897  51.1274481  72.6444006   7.1490800
  58.7627935  64.5953131  28.5036063  58.4827852  64.9983692  29.3254161
  59.1750526  65.3080845  28.0155206  65.4317379  61.6942930   2.1366759
  65.6126070  61.2373638   1.3152534  66.0016489  62.4629927   2.1136661
  44.9623966  68.7879372  55.4124784  44.2740631  68.4463930  54.8417139
  44.6542358  69.6582890  55.6649733  72.1527576   7.9210180   9.4588649
  72.7177000   7.9817361  10.2291811  72.0660591   8.8240999   9.1536486
   1.6284925  46.3036394  10.0152612   0.7183735  46.5506363  10.1793015
   1.7553914  46.4640665   9.0801716  69.2016792  69.9827337  23.6885428
  69.1534615  69.2085314  24.2493629  69.5953751  70.6561708  24.2432642
   9.6655154  10.7835817  27.3303509   9.3188351  11.5696073  26.9082022
  10.6154394  10.8994305  27.3090339  48.4992981  65.8975172  31.2535739
  48.9718056  66.7245197  31.3486505  49.1867828  65.2336216  31.2003231
   3.8902113   4.6249926  28.1735420   3.2178324   3.9628229  28.3337593
   3.9936295   4.6359757  27.2220087  78.6727285  67.4110317   6.2129307
  78.2321453  67.1456718   7.0202130  78.8014269  66.5942574   5.7306999
  69.4365263  49.7864151  43.7947178  68.9682198  50.1128197  43.0263567
  68.8106632  49.2060947  44.2280293   7.4701583   5.5545020  62.3005390
   7.8929698   4.6995181  62.2201347   6.8833625   5.4618806  63.0510902
  12.0814896  58.3237743  55.2859688  12.2885692  57.4930477  54.8579025
  11.5198267  58.7819052  54.6607637  52.3481321  21.3394213  54.4960546
  51.6830921  21.9571662  54.7999287  52.2605658  20.5864930  55.0805759
   3.4274656  32.7490354  25.4550409   4.0927047  32.4099350  26.0539532
   3.6112458  32.3146033  24.6221399  28.5633683  49.7230911  32.5102711
  28.5008359  49.8516321  31.5638041  28.7346649  48.7870789  32.6140594
  12.1193242  63.6904526   2.9244116  11.1679959  63.6522436   3.0231383
  12.4542773  63.6670732   3.8207883  50.3346539  69.7189951  31.1999130
  51.2401295  70.0238609  31.2582040  49.8212242  70.4127789  31.6137767
  76.7390537  68.2754326  48.7574673  77.6062536  68.6666536  48.6518908
  76.1675978  68.8064432  48.2027578  14.6972573  29.6802688  60.7969332
  13.8226664  29.3513060  60.5893135  15.1665974  28.9169478  61.1335278
  49.3321705  51.7011070  63.9518166  50.2864408  51.6263390  63.9500380
  49.1489458  52.4143696  64.5633078  78.8425732  32.9929519   4.4424191
  79.2625618  32.7400517   5.2645409  78.1657982  32.3300600   4.3053728
  38.4902287  57.0943594  38.3702254  37.8931141  56.3557768  38.4893203
  39.2589498  56.8676805  38.8935947  70.5991650  56.1634731  33.4502363
  70.4346752  56.0684395  34.3883967  70.0039768  56.8595934  33.1720233
  68.5018253  56.0047102  41.6638613  67.7117491  55.6847382  41.2283945
  68.6667585  56.8584871  41.2637424  68.1426144  25.6370282  50.5322027
  68.6342001  26.4143085  50.7975483  67.3446178  25.6665921  51.0599899
   2.9689628  26.7304397  31.1750722   3.3139023  27.4962592  31.6341686
   2.0577715  26.6695571  31.4618754  60.8469820  70.0013781  24.6567178
  61.3263893  70.7640409  24.9803686  61.5117455  69.4675827  24.2215371
   5.4690969  18.8124776  38.0745077   5.3602558  18.1891561  38.7927389
   6.1030716  18.3964717  37.4903440  14.7793972  37.9991436  26.2777472
  14.3652308  37.9502702  27.1393204  14.3451285  38.7339950  25.8445787
   7.3735082  57.3795366  34.4014025   7.8278482  57.8457069  33.6996245
   7.6205319  57.8476381  35.1989579   7.0310509   0.9635856  47.3764658
   6.1194754   1.2555426  47.3812199   7.2880054   0.9956137  46.4549589
  37.4844289  26.4379787  59.3066931  36.6289091  26.5360332  59.7246695
  37.3455763  26.7294931  58.4055996  34.0031242  39.4703293   9.0466440
  33.8131833  39.0525007   8.2066596  34.9569750  39.4381547   9.1198927
  65.2456856  40.4015732  57.8030443  64.5988035  41.0075426  58.1644011
  66.0901928  40.8046293  58.0044937  32.1400356  47.8431177  63.9298630
  32.2916317  48.4847116  63.2358837  31.2284946  47.9801750  64.1878080
  34.0864277  54.5392466  17.2328377  34.8855019  54.0483522  17.4245012
  34.2022324  54.8433065  16.3326335  75.1924562  66.4472628  31.8617177
  74.6258497  67.2145081  31.9424868  75.6774378  66.4197779  32.6865053
  20.9490009  74.8779574  31.6077566  20.3371330  74.2935866  31.1601424
  21.4039036  74.3145048  32.2337079  57.5876188  53.6087608  16.5163541
  57.2414827  52.8069019  16.9080663  57.4461842  54.2812347  17.1826935
  61.5381336  17.5267649  25.4908800  62.3415232  17.5081086  26.0109258
  61.3493824  16.6062331  25.3086019  74.4017220   4.0324700  15.6607127
  75.1405525   4.5124155  15.2865291  74.8034620   3.2972443  16.1236167
  22.1446252  10.7820213  32.3250628  22.4201751  10.1445973  31.6662788
  22.9572225  11.0486317  32.7549887  49.9047041  63.8071156  28.2649779
  50.3558779  64.2889309  27.5717759  49.0007877  64.1194010  28.2244444
  61.0939741  59.5367908  17.4586761  61.5816641  60.3483391  17.3180449
  60.7078314  59.3385077  16.6055596   3.8716099  11.3691938  35.2828097
   4.0333751  10.5459213  35.7435560   4.7361943  11.6495264  34.9825788
  64.7106886  64.1882515  23.2116675  65.0675392  65.0763178  23.2266712
  65.3805447  63.6537266  23.6380577  36.5578270  68.6921644  29.1518211
  37.1496463  69.1941404  28.5914612  35.7022476  69.1020536  29.0245199
  40.2244520  69.2860985   8.6237299  40.3946829  69.2441702   7.6827228
  39.3072104  69.5517349   8.6895931  13.0017149  72.5355625   8.5063630
  13.2057047  72.3540497   7.5889361  12.6833105  73.4382534   8.5068625
  69.9504912  73.8543729  26.6447139  69.6879006  73.9387235  25.7281089
  70.8106363  74.2722300  26.6868711  36.0490513  19.2334390  52.4010563
  36.4470148  18.3890605  52.1892023  36.7315435  19.7073936  52.8762436
  59.8478317  35.2048969  38.0939126  60.7277584  35.0067878  38.4143996
  59.7999239  36.1608720  38.1010365  76.0799170  57.0321703  47.7856302
  76.0047007  57.9637432  47.5788832  77.0215893  56.8605900  47.7788115
  64.3143892  36.2128496  54.0138006  64.9775219  36.8033957  54.3712139
  64.8142624  35.5595374  53.5243702  70.7934237  53.8853598  26.0349846
  70.9178686  54.7352171  26.4574695  71.6787863  53.5947752  25.8160734
  51.0541391  49.8249340  23.8294625  50.6765366  50.7024384  23.7691879
  51.3229895  49.7422075  24.7443986  60.0113344  66.9646645  23.1371737
  59.6831369  66.3856745  23.8251352  60.9635830  66.9276667  23.2270670
  50.5498505  64.1129494  53.7379885  49.9845743  63.3593559  53.9076710
  50.0844860  64.8537207  54.1264915  78.7402534  58.0574656  17.8447628
  78.4334373  57.5687170  18.6084545  79.6844721  58.1413555  17.9775941
  20.9032774  28.3861923  55.9742451  21.1479330  28.6880016  55.0994396
  21.1648011  29.1001105  56.5557575  69.6699190  63.3409643  45.0755072
  70.3078556  63.9669609  45.4181337  69.8784637  62.5191021  45.5196667
  18.6009705  67.4028301  25.0261688  18.0937350  66.5925169  25.0744796
  17.9575384  68.0751753  24.8021626   2.9280081   1.5173106  31.1549973
   3.7102777   1.9176564  31.5344834   3.1374738   0.5847660  31.1028767
  63.2672691   6.3060647  36.1872673  62.5326681   6.9097221  36.0768533
  63.9211178   6.8104869  36.6712856  19.9141634  17.5796711  52.9387951
  19.6014369  16.7190289  52.6599932  19.3857956  18.2005322  52.4372101
  69.0660715  21.5937996  49.9202538  69.2110157  21.0115433  50.6660414
  68.1185389  21.7282367  49.9019623  57.2078228   7.5506866  15.2256167
  57.5144958   6.7688221  15.6848216  56.6455078   7.9957229  15.8596361
   5.2684659  61.6852760  20.9658742   5.1978290  60.9487295  20.3586316
   4.4810846  62.2051001  20.8044958  27.7354605   0.3370794  39.0980935
  28.3633644   0.7611116  38.5131454  27.9833345  -0.5873886  39.0859461
  78.8801050  52.4634933  23.6634159  78.3759356  53.2343245  23.9239287
  78.2184839  51.8087292  23.4403300  78.1908369  14.0162301  24.1854739
  78.6724567  13.4821630  23.5537720  78.3276081  14.9167824  23.8913131
  19.5184124  31.5960526  47.4010229  18.5754573  31.4649749  47.5004578
  19.9135911  30.9170747  47.9478836  63.1403017  44.8559237  12.8559041
  62.8475523  45.7350492  12.6157629  62.6104021  44.6272802  13.6195529
  47.7529287   3.3810267  44.6766281  47.2255278   2.6927939  44.2711401
  48.0670166   3.9068419  43.9410305  66.3848972  59.8947001  10.5003405
  66.8057680  60.6496716  10.0890994  65.4477501  60.0791168  10.4372990
   9.6862870  46.3539505   0.6654787  10.2414274  46.4543533  -0.1078065
   9.7411543  47.1993160   1.1111050  66.7183828  62.3768997  17.0975661
  66.2166977  62.4649143  16.2871361  67.4663973  62.9626608  16.9810224
   8.8678574   0.0387653  35.2355981   8.5905337   0.9360965  35.0508785
   8.0940842  -0.3777376  35.6151128  53.2511806  70.2232599  34.1714454
  52.9163599  70.8722162  34.7903061  53.1565857  69.3867493  34.6270037
  14.8127568   9.1342890  25.7834816  14.1635799   9.7648466  26.0952497
  15.0353289   8.6171126  26.5575767  36.7235756  59.4227028  63.9469481
  36.7975783  59.6526241  64.8731709  35.7962680  59.5445585  63.7432671
  19.1640174  17.5719464   9.4072372  20.0112009  17.8185129   9.0361357
  18.7227058  18.4053516   9.5712858  74.4261026   1.7444108  36.8769145
  74.4888067   2.2723469  37.6728940  73.8772726   2.2627020  36.2883663
  18.4878373  15.4028606  14.2471647  17.5875032  15.0865722  14.3219364
  18.8460267  14.9304461  13.4956622  13.3083475  67.0263910  42.3222160
  13.0920887  67.6201582  43.0411720  14.0604734  66.5277338  42.6414013
   1.6783965  73.2992363  16.6173959   2.6251164  73.3666992  16.4932907
   1.3130492  73.9729357  16.0439134  75.2244473   1.1568484  25.7735229
  75.4545212   0.6055164  26.5214062  75.4022312   2.0493644  26.0702372
  33.6875081  64.2878103  23.2579398  32.8751564  64.7933531  23.2307005
  33.6001849  63.6555576  22.5445914   7.4836701   1.7057046  31.8261290
   7.7455789   2.6184398  31.7055058   8.2412994   1.1985809  31.5344882
  55.9733868  40.3626966   5.5457199  55.6828165  41.2257576   5.8405501
  55.6843328  40.3109646   4.6346739  31.0351276  29.5333695  12.5819218
  31.0318017  29.5511961  13.5389495  30.2762508  30.0595212  12.3299289
  66.6702318  50.4319525  63.1346607  66.3495588  50.5942678  64.0218210
  65.9267282  50.6410503  62.5692368  69.5521450  72.6419973  31.7894459
  69.3074465  73.3100319  32.4298286  69.2564440  72.9949427  30.9502673
  36.1113763   2.1967800  29.9257588  36.7542362   1.7031951  30.4350090
  35.8025503   2.8767675  30.5244875  28.5298061  30.5456567   5.3140658
  27.9928398  30.8503938   6.0455275  28.3605361  31.1759090   4.6138063
  71.1326504  35.9681368  18.6390114  71.7860460  36.1635065  17.9673433
  70.5374336  35.3462529  18.2204318   1.2201675  59.6993446  38.1425095
   1.6768029  58.8930845  38.3826351   1.5342936  59.8989582  37.2606301
   2.9661313  21.5617108  64.4916296   3.1332520  20.8263063  63.9021492
   3.4297672  21.3330698  65.2972317  62.2714567  67.2262478  19.1876245
  62.0379162  67.4461174  18.2857668  62.6304817  66.3406181  19.1329467
  67.6450682  72.6079035  38.2410192  66.7147827  72.8087616  38.1387591
  67.7608156  71.7722940  37.7887011  39.3555188   1.7873961  28.4079957
  39.4161415   1.1364925  29.1071963  40.0856495   1.5808265  27.8244996
  12.0571089  66.0465384   9.1658199  12.9291999  66.0316420   9.5601141
  12.0113564  65.2382994   8.6550432  48.6567688  58.2399559  61.7293739
  47.7905464  58.3653164  61.3418531  48.6040354  57.3884439  62.1634007
  22.8806639   9.8326588  24.0449929  23.0749512   9.5759988  24.9464417
  21.9300413   9.9432164  24.0270329  37.2187543  12.4154377   5.1624739
  36.2978697  12.5746441   4.9554464  37.4053526  13.0049241   5.8931708
  35.3316236  66.1225653   4.1179603  36.0698748  65.7364750   4.5892939
  34.6130323  66.1142254   4.7502482  44.3392038  60.0598955  29.1827846
  44.0646887  59.5379305  28.4288454  43.7606001  60.8223152  29.1697025
  62.8581142  54.6122646  48.0663776  63.6074018  54.2552090  47.5896072
  62.1026516  54.1447449  47.7101040  37.9790139  55.3711796  16.2263811
  37.6476431  54.7233438  16.8482602  37.8982377  56.2071609  16.6855550
  13.0890667  12.4362266  29.0371656  12.8076255  13.2531047  28.6251783
  12.6785922  12.4502110  29.9017739  68.1117535  47.0577192  50.5104780
  68.6410093  47.5208092  49.8611259  67.5844431  47.7424049  50.9220457
  64.1861534  54.4908905   9.9628478  64.5542431  55.3431845  10.1959598
  64.8114586  54.1225529   9.3387061  44.7585773   4.6323535  55.7709551
  45.2531195   5.3757298  55.4259157  43.8721514   4.9714401  55.8954430
  69.4329071  27.6707506   2.7675331  70.2881002  27.2495031   2.6813856
  69.1603661  27.8459001   1.8668234  44.3262291  70.0579643   7.3381287
  44.1779280  69.1222477   7.4747765  45.1827860  70.1052141   6.9134957
  56.1850452   0.8305988  38.5745668  55.8231688   0.7542036  37.6917076
  56.4956999  -0.0504339  38.7831497   3.4666717   5.2684528  44.6315002
   3.3249140   4.8241302  45.4673910   2.6053041   5.6113899  44.3934441
  55.2889442  17.6145434  49.5696831  55.0509977  17.9683268  50.4266834
  54.4513369  17.4092305  49.1543579  13.8506055   3.8936886  32.4535990
  14.2590380   4.3133789  31.6964507  13.0503762   4.3970090  32.6037145
  16.9628382  19.0029311  20.3678918  16.1768818  19.2084837  19.8616779
  16.7614520  18.1705511  20.7954645  66.4600992  72.5454950  25.4351783
  65.8262110  71.8570900  25.2338815  65.9611607  73.1919003  25.9346318
  69.4494057   6.7912412  41.5926552  69.6664810   6.0067225  42.0962811
  68.4927559   6.7984921  41.5610695  10.0488067  55.1053619  46.4866734
  10.0784862  54.4775152  47.2085857  10.8986342  55.5448389  46.5163755
  36.3020754  70.6724310  23.8155961  35.6792665  70.5795145  24.5365024
  35.8593893  70.2777719  23.0642629  59.5431757  60.9763622  24.9888945
  60.3381395  60.4481649  24.9163413  59.7189140  61.7487240  24.4514894
   1.3665695  23.1107974  58.8304281   2.2635007  23.4340858  58.7453890
   1.4406878  22.3462367  59.4015503  54.3259048   0.8245949  46.8595266
  53.7303591   0.4827520  46.1926699  54.1823196   1.7708743  46.8464708
  77.9131603  60.4436207   9.8269695  77.1354055  61.0015297   9.8189765
  78.6269188  61.0312557  10.0748789   2.6230308  52.3907375  41.5344048
   2.1935597  52.9794264  40.9137344   3.5144582  52.7311754  41.6098547
  13.9344871  45.0826788  15.4600310  14.0907907  45.7606506  16.1174190
  14.5702207  44.3975735  15.6666839  62.2461367  45.4567146  39.3771410
  62.4831629  46.1230612  38.7321377  61.6109419  44.9012136  38.9252782
  55.2385759  14.8249698  51.4607334  55.8515644  15.1097918  50.7829762
  55.7213593  14.9314106  52.2803783  54.0330124  48.8353586  22.4147058
  54.1236830  48.4606123  23.2908201  53.2387877  49.3674564  22.4628186
   1.4858250  10.8702576  25.9870720   2.2466230  11.2877572  25.5832005
   1.6024804  11.0166311  26.9257951   9.8414183  61.5111589  49.4141006
   9.1213840  60.9254313  49.1802168  10.3474212  61.6029167  48.6067772
  71.3537455  55.5491972  22.6184630  72.0655298  55.2199364  23.1672645
  71.1358261  54.8157501  22.0433092  25.4868793  38.7351036  63.9386415
  24.8727155  38.1422782  63.5055208  26.1863804  38.8649964  63.2982874
  36.9282436  58.2941723  31.4106846  36.2105274  58.4019613  32.0347810
  37.6239991  57.8737640  31.9160724  37.2520638  59.2087078  37.1438813
  37.2074103  58.9220381  36.2317085  37.7463484  58.5194969  37.5876164
  73.6592245  53.8573313   8.0340028  74.4437504  54.3644953   7.8253561
  73.7463236  53.6536503   8.9652169   7.4603111   8.2885188  12.5873148
   7.2563475   7.5451952  13.1548536   8.3382034   8.5603911  12.8549385
  62.0030975  73.6056614   8.9407384  61.2665653  73.8632202   9.4951868
  62.5648069  73.0853033   9.5151472  68.7531900  13.2361305  47.2130728
  68.6488724  12.7164900  48.0101490  68.9430285  14.1203308  47.5267315
  68.5532141  28.7151551  40.8101654  67.6446533  28.7907767  40.5185652
  68.6894655  29.4794726  41.3700628  57.3562956  68.5040331  37.0015597
  57.9152346  69.0132189  37.5885439  56.7892647  69.1542292  36.5868974
  37.3086691  71.5483093  27.6976871  37.2474575  72.0345020  26.8754363
  37.6347494  72.1881342  28.3305597  57.4118090  39.9581456   9.9849623
  57.8525925  39.1112423  10.0534844  57.4184465  40.1565409   9.0485722
  77.5478458  51.7453957  42.5800037  78.1469011  52.4504232  42.3344469
  77.5959110  51.1258078  41.8519688  69.0963554  23.6174560  26.8981504
  69.7333241  23.1370711  26.3692498  68.3735371  23.7979555  26.2971663
  50.5438614  52.3608112  22.1085382  50.6944275  51.6491938  21.4863110
  51.2999344  52.9377317  22.0001411  55.5983973   7.0846200  12.8169703
  55.6333447   8.0197734  12.6157272  56.1458397   6.9866574  13.5960364
  76.6969538  35.7607555  18.9605260  76.0059214  35.5807066  18.3231199
  76.3009596  35.5555749  19.8074746  10.3185046   6.8865728  48.7986708
   9.6375996   7.5586706  48.8284111  11.1386657   7.3782551  48.7560511
  33.3376265  68.6553478  15.2302539  33.7014651  67.8134441  14.9562895
  32.8981924  68.9918804  14.4493115   3.2793376  55.1351786  14.2430472
   2.7304590  54.5320702  14.7442698   4.1188860  54.6828365  14.1607249
   2.3092425  50.7397747  39.1927314   2.3868038  50.8719349  40.1375866
   3.0547997  50.1836491  38.9666772  43.6506414  64.0340662  12.0058763
  43.3881712  64.6351147  11.3086784  44.2455816  64.5469570  12.5528884
  68.6838293  53.8017654  36.8981028  67.8092337  53.4543991  37.0731640
  69.2013597  53.5430241  37.6606297   0.2810472  68.1417799  42.2564745
   0.6170266  68.9751387  41.9265413   0.0948082  67.6300907  41.4692497
  23.5113502  19.5585012  56.3003349  24.1633558  20.2582574  56.2621307
  22.7057290  19.9640179  55.9797668   6.3090670  51.0630226  56.8626595
   5.8677626  51.8236303  57.2407532   5.8669531  50.3100967  57.2549248
  29.2619991  73.9209652  12.2786784  29.1400123  74.1045475  13.2101560
  29.4171715  74.7789907  11.8837714  21.0051012  46.3678026  40.2519989
  20.2824354  46.4558554  40.8734751  21.0391545  47.2124815  39.8030186
  41.9764709  73.0111122  29.9235797  41.3112116  72.3880196  29.6313190
  42.6029348  73.0491781  29.2008615  56.8221045  18.1869221  13.3424449
  57.3226881  17.8087974  14.0654039  57.1035147  19.1011977  13.3086681
  34.3916059  58.0869675   3.0777153  34.6290660  57.4195957   3.7214988
  34.3031931  58.8916969   3.5884276  63.1322908   2.3831116  21.0973763
  63.3218193   3.1614411  21.6213155  63.5761499   1.6707255  21.5575147
  21.1970949  53.6752415  39.1635561  20.2611589  53.8106632  39.3116021
  21.2579846  53.4046698  38.2474136   5.4180771  55.6699800   2.5988489
   5.9030473  55.0471878   3.1402981   4.5319462  55.6626749   2.9607207
  69.9676657  40.2315140  59.6843910  70.8052540  39.8733258  59.3904829
  69.7113371  39.6711493  60.4168653  68.7323570  71.5069294  10.9365344
  69.3478251  70.7816267  11.0431337  67.9199219  71.1918259  11.3326299
  21.0996580  62.5966978  62.2420931  21.0688901  62.2981644  61.3331604
  21.5592408  63.4354544  62.2032833  35.9819269  10.3301239  14.8341548
  36.5683413  10.5074871  15.5696094  36.2855434   9.4933879  14.4821298
   5.1580888  63.2221174  36.4800549   4.4078469  63.2446337  35.8860326
   4.8071992  63.5170889  37.3203516   5.2314627   0.9568792  36.0364771
   5.1920277   0.1326494  35.5513763   5.0505906   0.7099108  36.9434071
  23.2336307  33.0247426  19.1853726  24.1675997  33.1119704  19.3759608
  22.8151155  32.9976082  20.0458026  21.6475415  17.9731989  34.7532773
  21.6732216  18.8017297  34.2746210  21.9445133  18.1968617  35.6353283
  73.6858845  15.2520919  11.8674386  73.4832096  16.0763323  11.4249682
  74.5372438  15.4036224  12.2778773  12.3167813  43.7031269  27.0080638
  12.2597373  43.9601755  27.9283381  12.5878990  44.5004272  26.5530467
  22.8201365   2.8870359  11.3211930  22.6743460   2.6097980  12.2256911
  22.5062275   3.7908956  11.2941706   8.1966698  37.6012468  36.8346190
   7.4437654  37.5941324  37.4256492   7.8371984  37.8791595  35.9921384
  27.7548146   8.6667633  31.3225794  27.1750546   8.6353159  32.0835781
  28.4242201   9.3092412  31.5578437  19.1766262  71.6889477  38.0864429
  18.4708130  72.0908117  37.5799227  19.6965539  72.4284077  38.4012437
  58.9565849  68.7217999  42.9665709  58.0646515  68.6191416  43.2984543
  59.1994333  69.6164179  43.2051468  10.0573730   3.1952921  30.0229168
  10.7098031   3.8034630  29.6755028   9.6155053   3.6875615  30.7147646
   3.4096092   8.4757781  30.2552509   4.0710935   9.1409320  30.0648808
   2.7575135   8.5813445  29.5625329  25.6357908  10.7931709  42.2725010
  25.7790589  11.1555779  41.3982201  24.7210360  10.5113232  42.2679996
   9.3873584  50.4547215  26.1473727   8.6293858  50.2185488  26.6820979
   9.3182880  51.4033365  26.0396981  43.5468006  60.1153851  11.7368996
  43.6406660  59.4291115  12.3975432  43.3350372  60.9029293  12.2380579
  43.9893818   7.4985129  49.3948078  43.4159994   7.3948950  50.1542330
  44.6216011   6.7840552  49.4727755  63.1127596  69.8932123  20.5657029
  63.5979462  69.1804695  20.1499867  62.1930885  69.6843290  20.4019642
  64.5434189  46.6825914  29.4621253  64.9887323  45.8406925  29.5577335
  63.6116791  46.4659071  29.4958854   1.7711589  40.2296591  58.0395555
   1.4810802  40.8164215  57.3411322   2.2124544  40.8030367  58.6662340
  67.6622343  53.9883280  49.3758678  67.5609732  54.9365044  49.2925739
  66.7666721  53.6504221  49.3705082   7.1119505   2.2072206  24.2461848
   6.3346440   1.9273250  24.7295928   6.7658889   2.6291600  23.4597754
  44.9123096  46.3486814  61.2800741  45.1117802  46.9972324  60.6049299
  45.6583548  46.3886499  61.8784523  69.4185944   0.1650161   0.2226229
  68.5621150  -0.0321370   0.6018372  69.2419763   0.8453388  -0.4271487
  63.2558823  59.8164845   4.9029610  63.0073023  58.9316511   5.1703775
  63.8900089  60.0968790   5.5628806   3.5087264   3.6982900  13.3401954
   3.0358642   3.8461244  14.1592062   2.8213954   3.5957119  12.6819503
  42.4990129   5.7274848  28.0473399  41.5484381   5.6607020  27.9569197
  42.8302193   4.8919767  27.7180052  38.2789063   7.2439516  49.5268536
  37.9012299   7.5182480  50.3625250  39.1730547   7.5851434  49.5446205
  73.2679081  47.9301548  39.1931295  73.2971239  47.1230221  38.6793971
  74.0034246  48.4485531  38.8667631   3.0496967  56.2064409  25.6865239
   2.2270626  56.6656637  25.8556938   2.9071805  55.7592154  24.8523092
  35.3163314  61.2075090  25.5105281  35.3911018  60.3200245  25.8612585
  36.2117314  61.4466858  25.2711821   0.4827730  12.5161123  31.7866349
   1.1039389  13.2411194  31.8555546   0.9483302  11.7658782  32.1562791
  64.2883205  71.8778229   1.3886100  64.4115829  71.6202593   0.4749911
  64.9050188  72.5980520   1.5197064  23.9098024  18.3777368  53.4976816
  23.9705253  17.4268401  53.4063530  23.8112855  18.5221601  54.4387817
  42.2551012  50.5910015  20.4571342  42.0171642  50.8358002  19.5628798
  43.1186914  50.1867962  20.3730774  71.5242720  44.9026346  47.7412415
  70.7033777  44.8161221  48.2258844  71.5363312  44.1470385  47.1537352
  19.5429695  19.5369196  15.3617883  18.8118160  19.9271500  14.8828685
  19.4520521  19.8732412  16.2533343  28.2843971  32.9694843   3.4646642
  28.7232661  33.2089591   2.6484057  27.3577094  32.9147577   3.2312348
   4.6693265  21.9005513  24.5069170   5.6199980  22.0004964  24.5565748
   4.3338078  22.7970195  24.5091558  22.9578137  27.6336932  51.9361067
  23.0890894  27.6362944  52.8842592  23.3984470  26.8388963  51.6354799
  19.2118371   2.8749400  60.4861975  18.7513292   2.1680668  60.0339842
  18.9092875   3.6732775  60.0533533  59.9410009  69.2499971   8.5984743
  59.9227858  69.7180700   7.7637237  59.8047161  69.9305153   9.2576826
  19.7245729  66.5202999   6.3719881  19.9323153  66.8920135   5.5147231
  18.7906098  66.6944885   6.4886212  58.3210707  35.9263015   0.3748961
  58.1059837  36.8402362   0.5611423  57.4731636  35.4838467   0.3359009
  67.3530102   0.6990087  44.9110842  66.4057302   0.5615561  44.9109983
  67.7086782  -0.0844768  45.3304672  76.8138695  71.8691444  28.8408399
  77.5125933  71.4659309  29.3560457  76.1826658  72.1757507  29.4918466
  74.4988918  13.8782167  33.9494371  74.6428061  13.6458826  34.8667932
  73.8300943  14.5624244  33.9777303  67.4782181  50.4028797  54.5536280
  68.2225657  50.9591436  54.3239689  67.6710129  50.0989437  55.4405832
  78.6240959  36.9164133   2.4027553  78.8290119  37.1917224   3.2963145
  78.0508089  36.1576247   2.5114381  62.8233814  61.5696716  25.7739878
  62.6691437  60.9272099  25.0813961  62.3949003  62.3664570  25.4613113
   5.0559646  30.5921054  52.6112032   4.4015825  30.1286173  53.1338835
   5.5973756  29.8981309  52.2350311  73.6577463  29.8225474   5.1696497
  73.1840181  29.5295310   5.9480828  73.9098549  29.0137434   4.7241095
  51.4330149  26.6829324  62.6744127  51.6445303  27.1643472  61.8745804
  50.5466652  26.3525891  62.5278234  62.6091194  21.6558456  25.6912065
  61.8279409  21.6612697  26.2443423  62.3374224  21.1948514  24.8975444
   6.9234979  35.8019161  33.1180668   6.0719550  35.6789494  33.5375714
   7.2059149  36.6720057  33.3998823  18.5282612   0.4482839  13.9604425
  17.8574181  -0.2028640  13.7549961  18.8492203   0.1964936  14.8263621
  41.0290575   5.2922887  33.6779118  41.8168163   5.7412875  33.9846182
  40.6894016   5.8536649  32.9809737  63.0926514  64.6958780  20.2156878
  62.4473572  64.4062471  20.8606243  63.9010239  64.2501497  20.4688621
  45.2487326  74.1254425  53.1948614  44.8629522  73.7192202  53.9709949
  44.4971657  74.4091320  52.6743841  72.9360151  48.4374285  45.6539679
  72.9436827  48.6133528  44.7131062  72.2023678  48.9534855  45.9881544
  58.2666588   5.4686224  10.5699205  58.0782652   6.0595220  11.2990141
  59.1219902   5.7519484  10.2468657  55.3927279  38.9048243  49.5020962
  55.0450134  38.6980915  50.3696156  55.2458477  38.1098914  48.9895153
   2.2122648  58.2903957   0.3777656   3.0436331  58.0103874  -0.0051898
   2.3465519  58.2157230   1.3225529   3.5615405   4.1961733   8.6813891
   3.9811772   3.7099546   7.9716510   4.1383538   4.9449652   8.8324815
  49.6647120  48.8845158  16.8229711  50.0401592  49.7544909  16.6872573
  50.4180193  48.3256817  17.0139396  35.8031225   2.3394388   7.6290584
  35.0295830   1.9749986   8.0592370  36.0415888   3.0955100   8.1654543
   7.5999290  66.4897490  11.1681712   7.9108030  66.0856390  11.9782841
   6.6638273  66.6274118  11.3130653  11.0054898  49.1141796  51.4861774
  10.6879508  48.3493376  51.9661903  11.7838633  48.8014317  51.0251427
  60.4808092  34.2513132  54.9840117  60.4148293  34.9917436  55.5870390
  61.3806534  33.9405847  55.0838089  76.0590172  47.8957987  24.9429369
  75.3868246  48.5751057  24.9971056  75.7357597  47.1934366  25.5072260
   4.2377976  33.1065130  31.3816357   4.9803454  32.7758622  31.8871331
   4.4562820  34.0217042  31.2057924  18.1253409  59.0249729  11.1873329
  17.3060238  58.5384703  11.2782788  17.8549087  59.8991299  10.9063661
  33.6954665   2.6809353  50.6386757  33.2353854   2.5300977  49.8129606
  33.0362844   3.0717790  51.2122202  26.6879177   2.6846391  27.2486782
  25.8859348   3.0322891  26.8585610  27.3741937   3.2876098  26.9628739
  20.5833340  46.9453430  60.0746489  20.6721854  45.9925795  60.0986624
  19.6779191  47.1082020  60.3390980  43.5017872  21.6571999   9.9403208
  42.6279640  22.0476842   9.9267393  44.0469456  22.2730041   9.4506103
  76.8375349  68.8014030   1.1525097  77.3849106  68.1080770   0.7838459
  77.1523857  68.9030361   2.0507160  29.4197369   3.0794385  41.2427139
  28.7333274   2.4351028  41.4156532  29.2508101   3.3751023  40.3481340
  40.0884581  73.0002403  37.5864053  40.9250450  72.5356865  37.6096869
  40.3294659  73.9256668  37.5447631  66.8803072  20.8779240  45.3691149
  67.6589966  20.6276822  45.8663654  67.1368694  20.7721066  44.4530344
   1.3657856  36.2029243  48.3913422   1.8631816  36.5366650  49.1379642
   1.3766329  36.9194579  47.7567625   2.9532474  73.0787897  11.1436582
   3.7667066  72.6614761  10.8601677   2.2629115  72.4910975  10.8365965
  44.4126225  28.7525201   4.4055289  44.7840023  28.9368534   5.2682739
  43.5438061  28.3956599   4.5900357  44.0705299  65.8853054  10.0555611
  44.8053360  66.4031458  10.3843999  43.6618137  66.4429283   9.3935603
  38.8683963   9.9263638  38.3937120  38.4212685  10.3745043  37.6757455
  38.4715772  10.2882600  39.1860485  26.9800544  26.1159205  64.5669460
  27.4202347  26.3414121  63.7474155  27.4952936  25.3927732  64.9244642
  70.2653599  19.6781349  13.7174952  70.8512211  18.9211702  13.7173390
  69.7297573  19.5663059  14.5028973  77.7283955   4.0511823  28.5189581
  77.8863430   4.7071725  27.8400159  78.2491970   4.3484688  29.2650270
  17.4152803  57.6562977  39.3452072  16.7009223  57.7134514  39.9797606
  17.0475256  58.0151081  38.5375929  75.7211828  66.3474369  64.2924500
  76.0707951  67.0454454  63.7385654  75.6703520  66.7370558  65.1652861
  12.1779728  10.6900895   5.4690343  12.1649170   9.7402883   5.5870926
  11.2556207  10.9348500   5.3942513  60.0713730  71.5328312  20.6355143
  59.8614216  70.6019735  20.5603433  60.4333591  71.7665005  19.7807646
  17.4855220  67.8277016   1.3739806  18.3539259  67.6836348   0.9980129
  17.4094105  67.1660709   2.0615003   6.8976229  60.8631945  57.6119995
   7.5960392  60.6490135  56.9934750   7.3349243  60.9034061  58.4625196
  74.4934368  65.9149027  24.0876412  74.0526438  65.0803757  24.2473316
  74.3903208  66.4006710  24.9059510  16.9834816  52.4777889  63.2039261
  17.8232241  52.3143196  63.6332798  17.1215534  53.2841015  62.7069044
  72.4623537  73.5177422  44.6570110  72.1590281  74.2577362  45.1829672
  72.2018862  73.7370062  43.7624073  70.2204704  63.8479757  23.4186840
  70.1231194  64.7083855  23.0106950  70.4242420  64.0387344  24.3342829
  27.6706767  21.5530658  14.0395784  26.7689872  21.2363195  14.0930665
  27.6520181  22.2129297  13.3464241  31.1868501  14.7238111  51.8257999
  30.5502224  14.7919679  51.1142588  31.4010167  13.7917924  51.8671083
  37.1649146  35.1910400   0.5628274  37.1006250  35.5616808  -0.3173564
  37.0589328  34.2484713   0.4341257  43.5840034   8.0741203  22.2090101
  43.7481213   8.7588900  21.5606380  43.4923315   7.2729683  21.6932750
   2.0380406  71.2954569  30.4152536   1.8402247  71.6481638  29.5476723
   1.6832073  71.9434738  31.0238600  68.5892487  66.7273712  16.9756496
  68.9091492  67.2223902  17.7298737  69.3675327  66.5801001  16.4382339
  67.4872637  36.0601020  50.6941175  68.4395027  35.9642172  50.6774569
  67.2011709  35.4863882  51.4049196  55.1197052   6.6889846  64.6955013
  54.2527151   6.4238524  65.0025320  55.5803537   5.8648503  64.5379114
  37.8679204  21.4746618  10.1726532  38.6704874  21.0427785   9.8800910
  37.7835274  22.2367930   9.5997089  38.5011987  15.0914831  -0.2488689
  37.7089385  14.9308748   0.2637263  38.9781503  15.7554168   0.2490636
  76.1381674  72.4037361  26.1744475  75.5843639  73.1379032  25.9088802
  76.4607477  72.6485252  27.0417714  63.0959558  72.5004673  30.2996659
  63.7490368  72.6907349  29.6262312  63.1854868  73.2160282  30.9291005
  60.3452063  22.5656414  29.7493458  60.5817509  23.4174109  30.1164532
  59.5366859  22.3258615  30.2021503  33.5794592   7.9446924  28.2310486
  33.4617901   6.9989979  28.1413412  34.0726352   8.1997162  27.4513221
  72.7879381  46.0365438  11.5669918  73.3998823  46.7424965  11.3586962
  73.2813597  45.4546404  12.1450567  20.0064039  33.9260101   9.4858319
  20.3791261  34.4993353   8.8160491  19.0599203  33.9959455   9.3612868
  65.6851864   7.5949025   7.9192013  64.7751522   7.2984743   7.9333109
  65.7561302   8.1861895   8.6685872  12.7406812   7.3594064  54.7157717
  12.1284127   7.0387691  54.0535402  13.4656560   7.7298182  54.2123461
   8.2915360  49.5648861  19.1563833   7.3888534  49.2594337  19.2463660
   8.2954192  50.4266834  19.5729375  39.4370818  53.3395338  -0.0325140
  38.6346912  53.5040760   0.4627901  39.9612808  54.1308689   0.0909307
  24.7464824  67.5801229  61.2595558  24.6490693  66.6659451  60.9930515
  25.4543352  67.5676727  61.9037724  42.0197248  39.6236467  59.1859293
  41.4752150  40.0941515  59.8170948  41.5144300  38.8395309  58.9712954
  72.7254152  26.3559747  56.5693235  72.0705509  27.0480943  56.4779234
  72.7571487  25.9409285  55.7073736  38.3696914   8.2857007  25.3084970
  39.2521691   7.9150552  25.3177619  37.7960753   7.5347042  25.1561809
  11.6909707  69.2725754  58.5458565  12.3954046  68.6610413  58.7604046
  10.9710419  69.0211535  59.1244078  16.1970270  72.5263023  39.4355512
  15.3039479  72.1871471  39.3754387  16.5169799  72.5196600  38.5334325
  45.8035326  31.0800505   0.0957411  45.7852459  32.0240498   0.2530958
  44.9097729  30.7895732   0.2775325  66.9770622  37.1747351   5.0042498
  67.3314810  36.6766143   5.7407933  67.2876501  38.0686498   5.1480854
   0.6571833  61.8512630  19.7520125   0.4001462  61.0835648  20.2627039
  -0.1388630  62.3799801  19.6972215   9.9660367  44.3710184   7.7607626
  10.5523300  44.4814873   8.5092866  10.1919234  43.5118437   7.4043494
  70.2746058  62.9822350  20.8994770  70.3596687  63.0246639  21.8519449
  70.5338192  62.0884562  20.6754375  14.4577551  68.7208509  27.5418353
  13.8981557  67.9532242  27.6594210  15.3417468  68.4033108  27.7261209
  47.3617506  72.1267033  64.2874432  46.8503952  71.8674803  63.5209227
  47.8513575  71.3395882  64.5261097  15.0662577  23.4500694  31.1378837
  15.1565790  24.0133572  31.9065070  15.8394825  23.6427188  30.6075644
  77.0895147  29.8816729   7.3668814  77.0923662  30.2992606   8.2281858
  76.9772673  28.9494824   7.5530297  43.2176352  46.9717312  58.4958696
  42.7162695  47.4398851  57.8282642  44.0664196  47.4139309  58.5119438
  55.6568146  14.2100370  24.7039175  54.8201132  14.6546316  24.8399115
  55.4635096  13.2846594  24.8540497  36.4554024  15.9712470  15.3394318
  36.3413668  15.5067766  16.1685848  36.7890954  15.3067970  14.7366166
  38.4597301  16.8887925  22.1394897  37.6588869  17.3997283  22.2570753
  38.8527822  17.2400320  21.3405085   9.1194165  48.8684082  56.6229916
   8.2756442  48.7028408  57.0435476   8.9157176  49.4680595  55.9052467
  21.2352371  21.7225504  50.9246683  20.5978131  21.0170054  51.0347986
  22.0052671  21.4276934  51.4108229  77.5148630  63.0418301  12.2940922
  76.8505621  63.1534719  11.6140389  77.0299387  62.7126122  13.0508590
  34.9605966  22.6468825   1.0873219  35.7163310  23.1929040   1.3040270
  35.2282286  21.7603946   1.3296925  12.0265102   2.5052527   6.1507785
  11.7253518   2.0891866   6.9585067  11.3494599   2.2967041   5.5070841
  43.8753796  39.7241259   6.8295193  43.6878061  39.8880434   7.7537376
  44.0286255  38.7805772   6.7799079  36.1784673  24.8693180  26.5030932
  36.3390160  24.9960089  27.4381900  35.3006887  24.4899988  26.4600205
  18.6456418   8.3784401  28.3991194  17.9994571   8.0761921  27.7608991
  18.2838142   8.1203848  29.2468929  46.2821388  11.8687308  27.1710610
  46.1979771  12.2845948  26.3130355  45.7250977  11.0922241  27.1165419
   2.5413644  21.7954564   8.2101315   3.4315598  21.7071009   7.8695762
   2.3653038  22.7358150   8.1791449  23.8750291   6.4081180  28.0774307
  24.0318012   5.5114859  27.7812791  24.5989013   6.5927017  28.6759043
  75.9800196   7.4602532  13.3668995  76.5792084   7.6410329  12.6426589
  76.5437555   7.4181098  14.1393328  13.6945486  35.6254387   0.3272951
  14.4769764  35.0754976   0.3673466  13.9211357  36.3196230  -0.2915731
  16.3169229  13.1824875  24.9330735  17.0013237  13.8318181  24.7712231
  16.7251265  12.5452614  25.5192018  41.8701601  16.4240026  20.9971213
  42.2623730  16.9041336  20.2678227  42.5113630  16.4965856  21.7041016
  70.9946823  43.2635927  60.4624510  71.2720633  42.8895330  59.6261644
  71.3740349  44.1423845  60.4693413  65.9524727  17.9481006   3.0198717
  65.9700155  18.8220775   3.4098557  66.8738461  17.6979125   2.9512382
  18.9637578  34.4388938  13.5781348  19.0064049  34.0660954  14.4587207
  18.0294871  34.4569230  13.3706641  41.1164427  72.2423220  14.7524190
  41.5911865  71.7137480  14.1109657  40.4390955  72.6865721  14.2424464
   3.4673315   4.5091626  47.2255325   4.0502355   3.7536037  47.1507931
   3.8784555   5.0642222  47.8881931  17.0649862   4.7157797  12.7570808
  16.7732835   3.8195533  12.9241717  16.6057634   4.9719343  11.9572496
  77.4638700  39.9659181  60.4281092  77.6742172  39.8921037  59.4972324
  77.7914190  39.1529608  60.8128738  13.9633799  54.2415810  25.6353998
  14.1258705  53.4506273  25.1213717  13.1927097  54.0305901  26.1624503
  70.1071310  58.5105896  35.9070921  69.1885662  58.5335684  35.6388736
  70.2790070  57.5877190  36.0941577  23.1971765  40.4729605  21.5818238
  23.0765176  39.8654032  20.8520627  23.9878178  40.1629019  22.0233917
  22.1821594  61.2818098  56.5262222  21.4389443  61.6325760  56.0354853
  21.8879604  60.4208374  56.8235588  32.0976090   2.2725636   8.7688279
  32.8068733   2.5012660   9.3695545  31.5338159   1.6879742   9.2754066
  27.7400398  35.6957626  20.8968663  27.9992962  34.8183107  21.1781096
  28.5067821  36.0357475  20.4356170  49.1695642  14.5587289   1.9201382
  49.1570759  15.4569328   2.2507524  48.6696768  14.0589619   2.5655666
  26.2716222  17.4203897  18.7222433  25.9410048  18.2907510  18.4999967
  25.8858562  17.2287142  19.5770395  50.4928780  11.4130604  59.4117451
  49.9218130  12.0228171  59.8789835  50.4644203  10.6108594  59.9331808
  74.4146729  40.7584572  15.4283261  73.7385798  40.0813818  15.4018795
  74.1408634  41.3428593  16.1352432  58.7919474   2.0713694  17.7583206
  59.0291405   2.3728229  18.6353028  59.5946169   2.1693711  17.2461212
  35.5496430  27.8750920  54.2089891  35.7016444  27.9489350  53.2668257
  35.1599884  28.7140059  54.4552088  56.1452961  31.3610315   4.3096006
  56.6239643  31.8684387   4.9650735  55.2266788  31.5868020   4.4558993
  11.4143610  36.3337302   5.9529066  10.9080029  37.0193315   6.3885492
  10.9290159  35.5280399   6.1304861   9.4738394  74.5220947  11.4740133
   9.3641621  74.5850086  12.4228263  10.2610195  75.0344419  11.2894046
  35.0176382  11.7585289  17.8354728  35.0421453  11.3113606  18.6814463
  34.1905570  11.4808798  17.4416709  20.6119847  13.1002152   8.9239019
  20.8009529  13.8374639   9.5044076  21.3270354  13.1069922   8.2875949
  60.7574987  72.9626036   1.4601840  60.9931993  72.0712090   1.2031013
  61.5678406  73.4624767   1.3616785  78.8786316  16.8250084  15.6059945
  78.3017683  17.5425422  15.8679271  79.2256021  17.0948458  14.7556818
  41.5422392  19.0246427   1.8252926  40.6340694  19.3209493   1.7647974
  42.0620918  19.8181498   1.6974895  11.0574865  58.9918661  14.4993973
  10.6031382  59.2879248  15.2881610  10.8167005  59.6320438  13.8297522
  15.6183684  58.4711170   7.5035447  15.4870892  59.2172003   8.0886590
  14.8792005  58.5097551   6.8966103  65.1688910  38.5493588  60.0471115
  64.8692226  39.1173315  60.7569218  65.1745081  39.1143107  59.2744350
  44.8962784  57.4199152  59.6554852  44.0357590  57.3128366  60.0607920
  45.4775524  56.8673229  60.1779699  14.9867916  30.6343198  10.6228888
  15.5088735  29.9370623  10.2260339  14.6110260  31.1051512   9.8790139
  11.3299024  74.6443272  15.1372325  11.8941343  73.8904524  15.3091395
  11.9368207  75.3574944  14.9390554  18.1729603  63.8397884   7.1326602
  18.5174096  63.9119244   6.2425011  18.5746717  63.0439186   7.4811578
  63.6909628  61.0848761  62.8897905  64.2442131  61.0514069  62.1093893
  63.6945391  60.1881313  63.2245588  68.7530947   8.1743878  44.2353582
  68.8613892   8.7727749  44.9745703  68.5064697   8.7399393  43.5035372
  48.8317060  47.6406622   7.3162830  49.5498562  47.4006510   6.7307222
  49.1332865  47.3771667   8.1856787   9.9823946  29.3875980   3.8261724
   9.5621550  28.7601876   3.2379660  10.5242968  28.8492441   4.4030139
  50.7648897   5.2314377   1.6918643  49.9096441   5.3899342   1.2922819
  50.5633163   4.8399317   2.5417602   7.1915156   1.4307934   1.3070026
   6.4507157   0.8406173   1.1686584   7.5063890   1.2180790   2.1855462
  75.2520847  61.4793253  63.9392281  75.1711988  62.3458767  64.3377066
  74.5513391  61.4488697  63.2878733  71.7115927  16.6288948  20.2435398
  71.7497206  15.6829357  20.3847480  71.9748640  16.7455995  19.3306875
  27.0010090  11.6334057  30.2118802  27.3778319  11.4524746  31.0729837
  27.7083349  11.4422393  29.5959449  59.1652584  14.4479370   7.4431539
  59.4220018  14.7375035   6.5676737  58.8539982  15.2426004   7.8765780
  78.0262280  65.6300974  25.3220105  78.4660435  64.7818804  25.3796506
  77.4846458  65.5661011  24.5353556  69.4084454  73.8315725  20.5813074
  70.0773811  73.1802559  20.7923555  69.3759680  74.3996286  21.3510394
  71.8344164  69.3080711   0.2244396  71.3964224  68.5769701   0.6601916
  72.7576733  69.0562677   0.2038391   9.7654384   6.4272928  20.0969458
  10.5041695   7.0359731  20.1009321   9.6759945   6.1651945  19.1806841
  51.5036440  36.0409212  53.3935976  50.9266281  35.4178452  52.9519415
  51.7940950  36.6321611  52.6991129  66.0986710   1.2883627  58.9385939
  65.7969570   2.0280510  58.4112787  65.2967215   0.9028240  59.2914057
  73.3857059  68.5383272  28.5185957  73.3224058  68.7790203  29.4428754
  74.3150902  68.6323547  28.3097172  75.6076336  26.3980293  14.0301144
  75.7578850  27.3027897  13.7561297  74.7834587  26.4286232  14.5159447
  13.8128150  12.3327923  25.0461268  13.5126209  12.8808725  25.7711959
  14.7207737  12.6002717  24.9036622  12.3453212  29.5948529  25.6129646
  12.7024698  29.9299955  26.4353752  11.6867816  28.9541054  25.8812952
  26.9212270  67.2588253  38.2589769  25.9729314  67.2567701  38.1287408
  27.1023750  68.0955553  38.6871076  21.4519262  17.3674333   5.8579713
  22.2682762  17.0587301   5.4648995  21.3134456  18.2331252   5.4737401
  60.9307528  55.1357365  53.1229067  60.2407598  54.4863749  52.9869795
  60.8205509  55.7566309  52.4027824  22.5983763  60.2781916  17.8747571
  23.5486484  60.2490950  17.7635324  22.2516966  60.2430868  16.9832349
  22.4696922  73.8805008  21.3376951  21.7832851  73.2547522  21.5690255
  22.9291224  74.0471792  22.1607232  77.3956919   7.6097018  34.1378927
  76.5104914   7.9220146  34.3252611  77.2677708   6.8673968  33.5472560
  66.5837653   8.4191484   0.4637309  66.5925701   7.9089755  -0.3461293
  67.3496159   8.1118078   0.9487553  38.9336276  16.4845228  17.5002384
  38.8260341  17.4356103  17.4908924  39.8132014  16.3464284  17.8516817
  21.9507051  10.0983906   1.8879168  21.4223981  10.1748073   1.0933833
  22.0841813  11.0018432   2.1746039  43.8670015  38.8865399  46.4016438
  43.6665249  39.3496132  47.2150326  43.0478716  38.9060426  45.9067917
  29.7317028   9.4373602   3.4671274  29.7190905   9.3637103   4.4214064
  29.8968315   8.5458463   3.1602594  19.5192063  22.9750681   9.7621220
  20.0817800  22.8008652  10.5167043  20.0161552  23.5977888   9.2315620
  25.7853055  63.5699511  34.0883446  26.2591052  63.5259485  33.2577968
  26.1536884  64.3327188  34.5341206  20.0670624  71.4917231  35.4951549
  19.5021605  72.0322084  34.9428964  19.8235536  71.7276716  36.3902903
  16.6017091   4.0490273  20.3376865  16.1557651   3.2240212  20.5293369
  15.9184742   4.7146899  20.4171538  75.6624746  44.4214821   5.1257533
  75.7730961  43.8511896   5.8865154  75.2796078  45.2235031   5.4812914
   2.8449759  24.6127939   8.0452675   3.4193102  25.3679085   8.1724542
   1.9601242  24.9680161   8.1294543  79.1947412  70.4000044   7.3599893
  79.3723345  69.6543074   6.7867261  78.2410240  70.4193497   7.4392909
  72.4604416  45.9367752  36.8582916  73.3296394  45.5720234  37.0246768
  72.6276493  46.8380928  36.5827966  28.8584757   3.6836928   5.7439297
  28.3911109   2.8716385   5.5480480  28.6225247   3.8832837   6.6498673
  17.0528865  67.6878071   6.3568687  16.9743371  68.4705162   5.8115029
  16.6579485  67.9373741   7.1923155  36.6040874   4.0447086  13.6315048
  36.3434005   4.2918175  12.7442551  37.5604796   4.0821075  13.6193120
  13.4742129  50.0700474  61.3889694  13.5171485  50.7038641  62.1049786
  13.3702886  49.2238235  61.8240929   7.9249334  51.3874054   3.8982546
   8.1398588  51.1023283   3.0101275   8.6840737  51.1316395   4.4222027
  19.8386884  14.7908103  27.4750543  19.3652999  15.3876817  28.0546045
  20.7591057  15.0290990  27.5858760  35.5867362  17.2437263   8.0412996
  36.1224651  17.6024783   8.7487769  35.2610922  16.4120591   8.3855623
  49.0575409  56.4906216  21.5743160  49.2196083  55.5742025  21.3503981
  49.2039633  56.9664431  20.7567692  25.7148743  14.4123316  14.5122075
  25.8638239  13.4685016  14.5690405  25.6224775  14.6954322  15.4219031
  48.7986803   9.6122462   6.8690050  49.0499783  10.2535641   7.5336802
  49.6061373   9.1341895   6.6800588  11.9903791  66.7336559  54.6838522
  12.4406993  67.3985720  55.2047443  11.0780120  66.7833281  54.9690723
  46.1904097   7.3593944  11.0463250  46.6272545   6.5985721  10.6635046
  45.2670527   7.1103477  11.0865009  15.8763826  18.8632333  10.5190945
  15.5897963  18.9836466   9.6137768  15.5487812  19.6362364  10.9788513
   0.9937315   4.0415785   7.9993069   1.9160068   4.1520652   8.2304621
   0.9822481   4.0643251   7.0424461  34.6095181  13.0787408   4.4712910
  34.2168760  13.6430991   3.8052842  34.1059804  12.2660768   4.4237477
  53.2016039  50.3200340  61.8914223  54.0527964  50.4844761  61.4856339
  53.3301783  50.5381966  62.8145170  19.7483385  64.2943954  32.8272343
  19.6016419  64.0561199  33.7426233  20.2365303  63.5560751  32.4628353
  57.1880007  73.7161827   4.4854859  56.3779259  73.6570787   3.9790139
  57.4893856  74.6147251   4.3512374  69.6934005  42.5427448  64.3703464
  69.8529407  41.9063109  63.6734025  69.8194619  42.0479524  65.1799889
  30.8272576  20.0477433  18.2377350  30.2571011  19.6390915  17.5864613
  31.3713360  19.3306851  18.5633683  50.8037996  59.7816086   9.8111016
  50.3906631  60.3353500   9.1485894  51.5740252  59.4188356   9.3736315
  25.2243733  10.6391108  23.0812240  25.6338620  11.0288012  23.8536835
  24.3482161  10.3894007  23.3748651  64.5326996  48.5339260  41.7505646
  64.6506405  49.1692209  42.4567652  65.1732540  47.8473902  41.9365549
  45.6586981  33.2295752  12.5166118  45.0289774  33.9317751  12.6797092
  46.4703321  33.5372138  12.9201472  51.3210058  33.0220246  42.9482317
  51.8445921  33.1288815  42.1540785  50.4192543  33.1673002  42.6619339
   0.8193115  58.9434624  24.0969563   1.0126476  59.7983646  24.4816542
   0.8587336  58.3345222  24.8344278  53.8433790  51.0011244  12.3137486
  54.1469145  50.1092005  12.4827600  52.8894711  50.9278107  12.2835219
  36.8672442  31.0573554  63.4748173  37.7778053  30.7864189  63.3577442
  36.4127207  30.2593541  63.7446976  26.3308835   1.9450650  35.3260779
  25.5307150   1.6253689  35.7429194  26.6776490   1.1850259  34.8588252
  24.3885756  71.1373138  60.0195837  23.6694002  71.7668200  59.9671984
  24.2002201  70.5005598  59.3301678  63.5776953   0.5347189  60.5219126
  62.6926688   0.2159914  60.6990433  64.1187576   0.1276239  61.1984921
  66.2089014  39.4851875   2.5994110  65.9294987  40.3216743   2.2273083
  65.4128075  39.1147184   2.9804850  49.1277647  29.8678613   5.5362684
  48.8882256  30.7366776   5.8587784  49.4425344  29.4029856   6.3115358
  12.9570746   3.4095597  12.4790430  13.1433845   3.5206378  13.4113419
  13.1656873   4.2589974  12.0902395  52.2894430  26.4546704  24.6141934
  52.8227329  25.8725691  24.0729046  52.4975157  26.2025690  25.5138493
   9.8236227  25.7856917  39.8637557   9.2857319  24.9942756  39.8399711
   9.4796509  26.3304329  39.1558194  42.7257442   9.4376552   0.1087208
  43.1376648   8.7757802  -0.4466854  43.4582233   9.8793471   0.5383869
  37.1831346  72.0759535  17.8872693  36.9749904  72.9664326  17.6044989
  36.4189029  71.8006516  18.3936214  49.2260313   6.0869592  28.0399871
  48.5064459   6.6478819  28.3294702  49.5244884   6.4835161  27.2215152
  59.8953772  68.4119940  50.9207296  59.5719147  68.3847761  50.0202465
  60.8418083  68.5243464  50.8319616   8.3103585  19.7952747  14.5211256
   9.2548662  19.7248161  14.6595895   8.0161190  20.4155707  15.1881254
  65.5505610  14.5092297  57.4033022  64.8399210  15.0635648  57.7256870
  65.9502697  15.0182235  56.6980457  33.5936379   9.0025032  14.9339139
  33.6974883   8.5822600  15.7876372  34.3878341   9.5258784  14.8263919
   7.5990057  30.0507498  57.7298450   8.0691540  30.2220035  56.9138432
   8.2751894  30.0807309  58.4066820  50.8250237  21.7049909  62.4223280
  51.6670132  21.8293023  62.8603172  50.1811552  21.7275810  63.1302547
  71.9300365  61.6166687  45.6076288  71.6461086  62.4550819  45.9718895
  72.6384163  61.3322067  46.1851358  58.0886316  31.6789603  47.1987295
  58.2174206  31.6199827  48.1453896  57.3644733  32.2960186  47.0935106
  39.8918891  17.5604188   4.2867535  40.7652378  17.5763822   4.6782106
  39.2976117  17.4637699   5.0308806  13.8037431  17.5753021  35.5061984
  12.9953551  17.6631939  35.0012064  13.6540258  18.1017542  36.2914777
   1.8687621  68.0279541  27.7191114   2.6681590  67.6493359  27.3532653
   2.0769361  68.1827021  28.6404943   6.6883218   7.3973113  51.6694355
   7.1147227   6.6128772  51.3243580   7.4024153   8.0220187  51.7961025
  16.7661500  22.2518992  10.2489066  16.5228283  21.5959907   9.5956016
  17.7068770  22.3769569  10.1239049  26.8347049  16.6963696   2.1275955
  26.3208079  17.0864975   1.4205298  27.1683502  15.8787656   1.7582253
  66.7362213  15.2139103   5.6874347  67.3378468  14.5479095   6.0201764
  65.9593439  14.7227788   5.4200625  27.5336647  40.4527950   8.7179840
  27.1384788  39.7041726   8.2711929  28.0337381  40.9018278   8.0364197
  10.4331684  72.4765873  22.6224160   9.9359691  71.7641068  22.2206688
  10.6326532  72.1619701  23.5041499  73.8872099  53.0685949  56.8488979
  73.2036924  53.5427713  57.3223877  73.5585308  52.1716261  56.7884970
  49.7985268   5.1608151  11.2818336  49.6304798   5.6897664  10.5019605
  49.0316153   5.3021252  11.8369055  28.5703611  60.9478235  62.9565382
  29.4305110  60.7255745  63.3128834  28.7289643  61.7179489  62.4106598
  53.2409525  20.2983642  15.3394580  52.6747656  19.8782873  14.6919990
  54.1280985  20.1592517  15.0080240  50.8206606  58.6039019  50.4104471
  50.6541538  57.9004288  51.0378408  50.5248070  58.2513189  49.5711708
  77.8859568   3.4503832   5.9096342  77.3126411   4.2153391   5.8608401
  78.1580591   3.4131026   6.8265867  24.1115141  61.9155741  60.8623600
  24.2090011  62.0983601  59.9278450  23.7567234  61.0272264  60.8969212
  28.6671042   3.0170071  11.9396913  28.8831592   3.9448440  11.8465722
  27.7328444   2.9671666  11.7374384  59.4177771  19.4809949   8.5072565
  60.1152706  19.0673363   7.9987103  59.2987442  20.3379488   8.0977529
  52.8145599  17.5436866  51.8625307  52.7051163  17.5322354  52.8133869
  52.3504734  16.7636311  51.5586090  61.5400410  17.7963400  13.2275236
  60.9188509  18.5128784  13.3576131  61.7982912  17.5395572  14.1127348
  57.8426981  28.6825180  13.8893330  57.9614067  29.2322707  13.1147921
  56.9368267  28.3788395  13.8309526  15.4396832  23.7725210  11.8025792
  15.8064556  23.0942082  11.2354815  16.1695743  24.3704581  11.9637072
  50.1442051  68.7514114   3.1559777  50.0275993  69.3821573   2.4454904
  51.0604906  68.8491297   3.4150243  54.4944143  47.8303528   9.6094388
  54.9053288  46.9680262   9.5479721  54.7407770  48.1517935  10.4767406
  47.4164248  28.1485128  16.5949774  47.2904348  27.9053903  17.5121737
  46.5841770  27.9336715  16.1737490  43.9460278  63.3434772  47.4974346
  43.4882069  63.7715054  48.2209110  44.2862225  64.0652943  46.9687748
  29.7031975  19.6942866   5.7173395  30.5924916  19.8940957   6.0096771
  29.8220491  19.0899980   4.9845776  52.4515867  18.9267421  62.7453566
  51.6334248  18.4301877  62.7618933  52.4819851  19.3666613  63.5949326
  70.5035973  24.9697042  57.9827785  71.3722563  25.2355528  57.6811361
  70.2494860  25.6478405  58.6087084  33.7633657  70.0143766  54.2871189
  34.0909457  70.9038973  54.1541481  32.9161572  70.1328421  54.7165775
  47.5051498  27.7782369   4.6173921  48.0143595  28.5632038   4.8192841
  47.2309303  27.8979135   3.7081534  28.6841869   0.2517906  59.2438459
  28.4866714   0.1708562  58.3107471  28.2240653   1.0450667  59.5181322
  67.7878046  39.9235225   4.8676702  67.8437519  39.7683740   3.9247859
  68.6462259  40.2749920   5.1039195  49.2476988  40.6624842  19.1450667
  50.0966644  40.7051182  18.7049794  48.8412094  41.5099525  18.9639544
   5.9021419  73.0155706  62.3675537   5.3352046  73.5498428  61.8113422
   5.6208682  73.2171059  63.2600212   0.3204063  28.2376003  60.5697727
   1.1594225  28.4070611  60.9982204   0.3976396  27.3433971  60.2371120
  45.7883406   4.4172347  46.4697313  46.5954733   3.9906192  46.1820364
  45.2135420   4.3827718  45.7051039  40.9008884  22.5244856   9.2036682
  40.5061436  21.6542196   9.2588466  41.0353851  22.6675177   8.2668203
  57.4618864   8.6520296  35.3508162  58.3401155   8.8815409  35.0470567
  56.9502258   9.4520354  35.2307081   4.3010950  69.2421055  56.3282442
   4.9187297  69.8084688  55.8656502   3.4460604  69.6438217  56.1740732
  13.4159720  68.4270048  56.3112974  13.8492262  68.0038691  57.0525646
  13.9555931  69.1953945  56.1252403  44.1183805  23.4877491   1.1954784
  43.8015366  22.6013279   1.3689665  43.3235931  24.0048385   1.0644744
  41.7894506  53.1341839  21.5727663  42.0805359  53.6278629  20.8060980
  42.0245600  52.2271872  21.3770270  60.4753828  72.1774244  61.6258812
  59.9833441  72.3644972  60.8264256  60.1787567  71.3069820  61.8915367
  61.0995293  29.7961259  27.3180366  61.3830328  29.3326187  26.5299892
  60.1671696  29.5928955  27.3930788  27.0331335  17.1015835  24.1060781
  27.8475261  17.3216689  23.6537957  27.2788000  16.4072573  24.7174621
  32.7464008   4.9698418  17.6110327  33.5661435   5.3902388  17.3511875
  32.2924495   5.6319195  18.1323886  43.3206606   6.7290443  63.8334608
  42.8806543   6.1200768  63.2403421  44.1535664   6.3041633  64.0383434
  52.5422525  33.0672002  17.4379158  51.8137789  33.6828876  17.3573935
  53.2077789  33.5467887  17.9311717  20.6734109  42.8298378  56.0696983
  20.6867146  42.5967836  55.1414013  21.5215993  42.5364637  56.4024782
  69.6559954  58.6880016  13.8423085  68.9368343  58.3513641  14.3768311
  69.4103956  58.4671736  12.9438925   8.2488608  50.6944418  54.8248243
   8.2463866  50.3167772  53.9452791   7.3246163  50.8441496  55.0237989
  39.1454959  59.3124962  50.1525927  39.7611642  59.8023272  49.6073914
  38.5420179  59.9757290  50.4874992  15.2187300  26.2705112  29.3249464
  15.9828019  26.8459010  29.3617320  14.9090135  26.3410759  28.4219909
  68.7636757  47.9201031  41.1266136  69.5249891  47.5836325  41.5992928
  68.7959242  48.8669014  41.2636137  42.0073795   8.9715993  11.0563993
  42.2925520   9.4245219  11.8499792  41.8047667   9.6745515  10.4391158
  55.2752924  53.8548517  56.3730621  55.0319910  53.2927942  55.6374502
  56.2323904  53.8630629  56.3618898  61.9210672  21.4282513  14.0734088
  61.0546923  21.0216141  14.0569794  62.3622227  21.0219908  14.8194432
  50.8797979  35.1972580  17.4778497  51.0242510  36.1091423  17.2252035
  50.3085041  35.2486515  18.2441473  56.2858725  50.8929014  62.4763870
  56.4470005  51.1047697  61.5569401  56.9961452  50.2963448  62.7127361
  43.1288528  66.2417173   5.1749533  44.0397120  66.4910936   5.0188094
  43.1376934  65.2846003   5.1662076  61.5790749  25.4735398   9.7370005
  61.0118723  25.5543756   8.9702022  62.0302963  24.6383476   9.6141708
  17.7498603  10.2417243  59.8006201  17.1624219   9.9489850  59.1038752
  17.5629663   9.6552390  60.5336523  13.9898014  50.9135962  20.6344223
  13.4927237  51.2233448  19.8773241  14.4376767  51.6934490  20.9622455
  45.9836435  54.7039986  53.4724092  45.3047848  54.2060661  53.9278698
  45.6292820  54.8444128  52.5943756  54.6205139  23.6518645   0.1336423
  54.7528648  24.0193725   1.0075145  53.6820745  23.7495685  -0.0276672
  48.5530996  18.0754828  16.4947546  48.3276272  17.2029364  16.8173337
  49.3820763  17.9529858  16.0321307  41.4365816  28.6595917   4.0651858
  41.7391109  29.2964458   4.7125837  41.2009954  27.8879333   4.5802376
  11.2332165  26.4215875   2.1830529  12.1366978  26.4318085   2.4990407
  11.1038959  27.2888708   1.7992200  12.7413440  66.2380791  61.7513657
  12.0746386  65.6590128  61.3820171  13.5590744  65.7482815  61.6639185
  33.2303286  49.7159529  20.5874729  34.0958667  49.8737335  20.2103996
  33.3866549  49.6579552  21.5300393  57.8597736  20.2287722   4.9770755
  57.0605564  20.4031801   4.4800159  57.9423380  19.2751586   4.9709451
  73.3557796  19.8600388  46.6038179  72.8311110  19.3948185  47.2553730
  74.1262007  20.1597762  47.0863485  56.9818926  41.2126923  17.6423872
  56.8938732  40.6037140  18.3756185  57.9262352  41.3342524  17.5440383
  14.1875339  17.2856712   7.8899461  14.2538428  16.5570545   7.2727323
  13.6853993  17.9520190   7.4208272  62.0621777  30.5763698  19.4330394
  61.7326069  31.3572836  18.9883065  62.6390600  30.1611400  18.7919295
  46.8033075  29.6297860   9.2565966  47.7079821  29.8612881   9.4668424
  46.2748337  30.1773953   9.8371756  38.1793642  61.4452553  23.5217023
  38.8956046  61.0603333  24.0267444  38.0959845  62.3351622  23.8642597
   4.5268279  60.7497501  51.9959927   4.2006752  61.4233446  51.3992262
   5.4741132  60.7463646  51.8586159  41.7425632  60.6241751  15.4801738
  40.7855129  60.6333637  15.4657483  41.9975853  61.3580561  14.9210584
  52.3566246  65.8115673  45.9749651  52.4627542  65.8912134  45.0270033
  51.5896749  66.3478470  46.1760044  25.7279277  64.9212313  11.2182641
  25.6450653  64.5600843  12.1008384  25.6233358  64.1659403  10.6396174
  30.2887726  14.5749187  19.4763041  29.7178435  14.0271974  18.9375329
  29.8791623  15.4398251  19.4566131  40.8150959  23.0456543  11.8507433
  41.2007713  23.8980341  12.0530701  41.0140371  22.9064512  10.9248507
  65.9135914  27.2204638   9.8255944  66.8060732  26.8976617   9.7010469
  65.4057789  26.4404535  10.0490689  25.5346155  21.3021636  21.0396504
  25.2543664  21.6521835  21.8853331  25.3307581  20.3681517  21.0875773
  62.8145456  19.1821194   9.1870403  62.7600479  20.0928330   9.4766265
  63.1520271  18.7087727   9.9474883  27.4430919  37.9762959  54.5028067
  27.8916979  38.7809300  54.2429113  28.1456828  37.3360753  54.6155596
  49.0032768  21.2597156  13.6877942  49.0303326  21.3127422  14.6431410
  48.1135702  20.9677887  13.4892166  13.1256568  63.6383152  17.8981149
  14.0535271  63.4851980  18.0765665  12.8389823  62.8536940  17.4307561
  48.5555935   5.1585090   5.5106658  48.1385756   4.8034880   6.2957060
  48.1301880   6.0052770   5.3755873  32.4457502  11.3403225  29.9198842
  32.2873569  11.0567033  30.8202744  33.3408093  11.0568833  29.7334361
  62.6718283  38.7662220  22.5892091  62.8332233  38.0071330  23.1495380
  62.9535341  38.4854531  21.7185521  73.8300371   7.4892938   3.0113426
  74.2741919   7.6470602   3.8444495  73.9928246   6.5647376   2.8244525
  -0.1256255  55.9601831  61.4934206  -0.4319457  56.5912962  60.8421993
   0.8198710  56.1023998  61.5385532   2.5762349  72.1642590  57.7794504
   1.7544220  72.2949219  58.2525063   2.3215011  71.7051744  56.9790840
  69.5898151  34.7144532   1.9565323  69.5443583  33.7817931   1.7460346
  69.8284435  34.7394991   2.8831714  73.3215714  65.8209276  48.3948183
  74.2587471  65.6884289  48.5375643  73.1964588  66.7654419  48.4868622
  29.4145894  54.1684771  27.8447342  29.9261856  53.8007069  27.1241474
  28.5908151  53.6813402  27.8266597  74.8961735   8.2452309   5.3963405
  74.3338823   9.0103203   5.2750862  74.3066931   7.5634390   5.7186866
  14.2095220  46.3150549  12.2054422  13.6147726  46.8143129  12.7651250
  14.9045587  46.9341564  11.9821334  41.3138103  67.4928284  18.1218541
  41.8782282  66.8732262  17.6595116  40.8443975  67.9539585  17.4266970
  66.8979979  36.8125892  33.7724614  66.0535336  36.5625978  34.1474509
  66.6997576  37.5668955  33.2175231  54.6113014   4.4559753  12.2500956
  54.8649788   5.2065212  12.7872729  53.7563610   4.6954876  11.8923998
  76.1895943  53.9770269  20.9256983  76.7057753  53.9670658  20.1196647
  76.2677526  53.0877686  21.2711668  35.4825306  49.5386744  10.6540895
  34.5287538  49.4833946  10.5950212  35.6453681  49.9932861  11.4805543
  64.6418810  53.0121613  20.9684682  65.2754068  52.8179693  20.2776957
  63.7900066  52.8390741  20.5677390  43.8387489  72.6475000   3.8840142
  43.3067417  73.4416151   3.8332072  43.7779808  72.2621679   3.0099109
  67.0380735  55.5807495  13.1967950  67.2838783  54.9839735  12.4899244
  66.3489246  56.1276817  12.8197372  53.8199091  48.3872843  25.2004600
  53.8500929  47.8648329  26.0019350  53.3109999  49.1621876  25.4387069
  69.4635105  32.2560263  21.2270522  69.7437859  32.3466897  20.3163052
  69.9371338  32.9450059  21.6931200   7.4545717  39.1669917  26.6784716
   8.0008996  39.6816730  26.0844493   7.2498465  38.3715582  26.1869407
  58.8270521   8.4084624  29.8869801  59.1529417   9.1863334  30.3396869
  59.5048428   8.2048655  29.2424774  54.8211575  30.8089662  20.6882501
  54.7642660  31.7642426  20.7092738  55.3090382  30.5806112  21.4794898
  49.0717697  48.6044407  22.4317455  48.5543537  48.2212591  23.1400394
  49.8744440  48.9057016  22.8574061  69.4420671  47.1832943   6.2987798
  69.1572475  46.4805079   5.7146537  68.6372280  47.6518631   6.5199441
  59.6610117  19.9310935  14.2561424  59.3873119  19.7400439  15.1532614
  58.8490582  19.9151671  13.7494814  53.4562349   6.2460554  47.3619032
  54.0648079   6.5622234  48.0296707  53.2636881   7.0174170  46.8288422
  53.9269257  45.1113367   0.7027753  53.0809546  45.3432178   0.3196437
  54.2602110  45.9332848   1.0627143  10.0711393  68.7381887  60.7352972
   9.3661672  68.2557678  61.1671686  10.7033730  68.9134741  61.4322805
  60.8836412  41.4416885  10.8953333  61.7878532  41.5332699  11.1957407
  60.4708815  42.2754908  11.1203647   2.1165600  27.6092005  42.7403164
   1.2346151  27.6694775  43.1074333   2.0199271  27.0394993  41.9772100
   7.3860854  19.9251294  46.6774940   6.7862195  20.5825353  47.0299292
   7.9171711  19.6586788  47.4279499  36.8979478  26.6218066   7.9916674
  37.6532364  26.6949391   8.5751259  36.2317085  27.1811199   8.3910739
  49.7637033  15.6637037  49.8792887  48.9774704  15.9180689  49.3962049
  49.4501734  15.4717553  50.7630777  66.5771532  17.1481538  34.4195390
  65.9135485  16.6672230  33.9250016  67.4061346  16.9046319  34.0075660
  13.1184626  63.6169291  33.0045867  12.5866294  63.0543041  32.4416995
  13.2355952  64.4205618  32.4979520  17.8915918  38.7447882  15.8069789
  17.7595282  37.7971935  15.8361995  17.3671937  39.0822053  16.5331936
  45.5279160  23.1065059   4.9605146  45.6025600  23.5321569   4.1064176
  44.6478796  23.3300900   5.2634573  18.2527018  12.8669453  16.2963808
  18.2741559  11.9744277  16.6416121  17.6673651  13.3388758  16.8887448
  76.1138773  25.3952074   6.0649538  75.9584904  25.0995994   5.1679015
  76.5636921  24.6617055   6.4843225  19.8504388  51.7865562   7.1272975
  19.4812787  51.1856461   6.4801019  19.1606081  52.4337053   7.2741485
  56.0452414  61.6978931   8.0024195  56.7609501  61.7220402   7.3672730
  56.0217333  62.5811911   8.3704710  47.1071911  66.3149738  23.7558436
  46.8323755  67.0892477  24.2469692  48.0298376  66.4731121  23.5559916
  75.5333948  70.0216866  58.7559700  75.1097775  70.6887722  58.2158041
  75.0425434  70.0316715  59.5776749  60.1119518  13.3606625  60.7691813
  60.4552937  13.8846731  60.0454664  60.4562330  12.4813497  60.6126261
  22.2731352  12.3530805  58.0975676  22.9457903  12.2449195  58.7699318
  21.6280031  11.6733944  58.2926655  52.4280787  14.3054545  23.3695650
  52.4323988  15.2025485  23.7033868  51.5322685  14.1689765  23.0611444
  61.0532522  33.8989568  26.5883851  60.5505610  34.5707893  26.1277676
  61.4201832  33.3546352  25.8917451  51.5855026   0.0410336  28.5236335
  51.2316942   0.7242680  29.0930557  52.5154448   0.2534064  28.4440136
  42.5992441  49.0539026  16.3785183  41.7617178  48.6095619  16.2468398
  42.7523851  49.5240879  15.5589414  51.3935614  34.5882726  23.2094312
  52.0580482  33.9246225  23.3945179  50.8859777  34.6511555  24.0185261
  75.1518440  26.1828279  27.0552731  75.5162001  27.0451474  27.2549796
  74.2050552  26.2983799  27.1356988  43.9542866  45.9609270   8.2943714
  43.8483334  45.0143194   8.1998295  44.6180010  46.1936760   7.6451069
  56.5890837  30.4280114  11.6656446  55.8306026  30.6812668  11.1395264
  56.8708086  29.5925140  11.2930763  69.3073511  47.9372120  30.5656981
  69.0830946  48.6190748  31.1989474  69.3601131  47.1353531  31.0857606
  11.8718469  27.8457046   5.7754654  12.6432312  27.6888227   6.3200617
  11.4815211  26.9796515   5.6578785  16.9531012  72.7763891  52.5057316
  17.7378619  72.2515869  52.3477364  17.1881771  73.6547804  52.2067213
  43.9057589  15.6006241   4.8169959  44.8534489  15.4940712   4.7347680
  43.7353420  15.5128479   5.7548052  63.5764313  40.1656151  26.5161729
  63.3172703  39.2531300  26.6443682  64.4197655  40.2400875  26.9628024
  61.2259865   2.7429512  16.1753845  60.7655716   3.4770977  15.7688427
  62.0815134   3.0995718  16.4144111  38.6260295  30.6433272  55.9968233
  37.7256250  30.5211639  56.2977886  38.9346194  29.7590184  55.7993412
  22.2010016  69.7673273   1.7192316  22.6992965  69.6381760   0.9122293
  22.8171039  69.5493793   2.4186230   6.9414204  23.7795019  13.6308336
   6.4401168  24.5124984  13.9881051   6.8804896  23.0985284  14.3007565
  14.7712862   2.2191747  57.0465183  14.0302300   2.8186935  57.1339512
  14.5129704   1.4446124  57.5460768  63.3894777  42.3604774  11.8434072
  63.9913082  41.8941641  12.4235725  63.1998253  43.1786537  12.3025918
  49.6146250  50.9719515  10.6897831  48.8076305  50.6232214  10.3111255
  50.3072214  50.4185104  10.3288913  74.1829777  57.4561787  40.0858259
  74.3842745  58.1345081  40.7304764  74.5903444  56.6641140  40.4364300
  32.1581078  37.4376941   1.5607660  32.2691560  37.0264196   0.7035880
  32.1115637  38.3750343   1.3724601  60.9693098  42.4072981   4.5722216
  61.8861818  42.2214460   4.7747868  60.9994030  42.8873253   3.7446359
  60.1493979  64.4570684  63.1192017  59.3195581  64.2318964  62.6986074
  60.6110287  63.6224747  63.2002926  37.1955677  74.6201743  24.0460157
  36.6767927  74.0737191  23.4556866  36.5476223  75.0617843  24.5949960
  50.5696011  57.3194313  11.1583245  50.5864763  58.1110620  10.6204891
  50.8813763  57.6063251  12.0166481  56.7831373  26.6677403  59.7701883
  57.3914814  27.0235038  60.4179430  56.4539480  25.8617878  60.1680613
  35.6058025   6.6205239  59.4473171  34.7413683   6.4216900  59.8071098
  35.7576442   5.9354168  58.7963152  30.3364706  55.9207535  23.0708075
  29.4589496  56.2839651  23.1902671  30.7879138  56.5610981  22.5209117
  76.3706589  52.5358486  45.9686899  76.9082355  52.0082235  45.3780556
  76.7161846  53.4238958  45.8780193   9.3267727  15.8242655  50.7382536
   9.5246142  16.5761375  51.2966251   8.4229738  15.5958283  50.9555006
  63.1336546  25.8049321   3.8698235  62.3517799  25.9525847   4.4018933
  63.4376097  26.6834807   3.6417940  47.3964882  21.1145496   0.1694056
  46.6657114  21.3800335   0.7277223  48.1466484  21.6029811   0.5084048
  78.9808358  19.6939898  32.2192144  78.5334249  20.1973677  32.8994107
  79.5895682  19.1319132  32.6985335  30.5965853   1.4882180  45.6588697
  31.4174223   1.0774311  45.3873682  30.7578850   2.4275136  45.5697727
   6.7518747   6.5316600  57.0877600   6.5824229   6.8634665  56.2060452
   7.2116518   5.7038474  56.9478941   1.7217629  29.4290423  50.9522343
   0.8434983  29.0548491  51.0219812   2.1695809  28.8719821  50.3155470
   0.6462773   9.2849684  13.7487376   0.3615638  10.0134110  14.3005908
   0.0281301   9.2823011  13.0179036  14.3608999  68.7665510  59.2900133
  14.7311687  69.6437979  59.3878365  15.0096071  68.1868839  59.6892595
  37.0524502   8.0275911  61.5972805  36.5506172   7.3440909  61.1531830
  37.9011464   7.6230824  61.7770529  48.2327747  31.5398741  64.2221022
  48.6415768  32.1155810  63.5758257  48.7819719  31.6263652  65.0012922
  66.4960670  50.6193781  25.3878927  65.9267759  49.8543787  25.3047490
  66.2190104  51.2020874  24.6808434  72.5927734  16.0389602   8.0300993
  71.7825270  15.9828210   7.5235564  72.3024035  16.1727428   8.9323300
  77.5213051  50.5057621  13.6304271  78.1322718  49.7697496  13.5953808
  76.7148495  50.1309490  13.9845121   3.2421044  30.8797407   6.2177581
   3.4356830  31.8022871   6.3841015   3.1802198  30.8160639   5.2646852
  75.4165316  73.5915041  51.9220924  75.8868170  73.4234285  51.1055040
  75.0048065  74.4454718  51.7899609   1.7353541  30.4639506  14.5290971
   2.3123406  30.6313491  13.7839162   1.6112809  29.5148277  14.5274746
  16.6829944  60.0572824  49.8723984  16.9629836  60.4722357  50.6882715
  17.3756313  60.2683544  49.2463493  49.8454666  10.0193942  44.8685408
  49.4779253   9.4072056  45.5060148  49.6299648  10.8849335  45.2158642
  61.3583040  11.7716825  63.1730556  60.6451654  12.1096206  63.7147808
  61.8979931  12.5387478  62.9817963  53.0025291  37.5471544  29.0248132
  52.4167204  37.4576426  29.7765088  52.4256802  37.4881291  28.2632422
  49.0833282  58.0830622  25.0499463  48.8968611  58.5524368  25.8630586
  48.3742189  58.3365297  24.4590592  13.8926196  10.1904428  58.7213612
  13.7895131  10.7363367  57.9418755  13.7267745  10.7844424  59.4534063
  72.8277159  73.4400368  37.6449513  72.6384974  73.7743855  36.7682290
  73.7833881  73.4066534  37.6874614   1.2726131  58.5501432  26.8794417
   1.5920278  59.4338894  27.0616341   0.6777078  58.3563948  27.6038599
  22.4607396  29.0073276  62.4178171  23.0012059  29.6921921  62.0240021
  21.9820380  29.4524336  63.1170702  22.9708338  31.9151664  61.3808775
  23.5124326  32.1033096  62.1473694  23.4591889  32.2857285  60.6457424
  13.2615399  71.0704327  53.1749964  13.9973390  70.4597235  53.2182264
  12.4871516  70.5096245  53.1297398  61.5841484  36.4439082  18.6956871
  62.1920395  36.9967437  19.1866851  61.7179537  35.5656290  19.0519917
   6.7047922  65.1884275  64.5728872   7.2983639  65.4418116  63.8659922
   7.0726196  65.6014710  65.3541226  23.2153463  68.4166861  59.1679621
  23.8550782  68.0791473  59.7948933  22.6029801  68.9243174  59.7004557
  68.3707714  57.4150419  17.8815544  67.9041195  57.8184700  18.6134803
  69.2057705  57.8814888  17.8435946  14.0500450  10.0280118  51.1304426
  14.4148743  10.2307618  50.2690315  13.5881662  10.8256316  51.3887072
  73.6142349  54.2126036   5.0377899  73.7059498  53.6571789   4.2636305
  73.5330868  53.5968161   5.7661146  51.4802170  50.9397602  16.4706111
  51.6594315  51.8651867  16.3041806  51.8439341  50.4849672  15.7109380
  51.1766195  44.0576267   5.0989276  50.4158068  43.6017990   4.7389039
  51.9137096  43.4751129   4.9155974   9.7982335  45.0142765  11.8224025
  10.1717150  44.5803261  11.0553110  10.2793825  44.6464300  12.5636280
  52.4308729  28.7793064   5.0797462  52.3561192  28.1909490   5.8310652
  51.9085693  28.3611798   4.3952012   3.3920956  24.8752499  55.7679605
   2.6826534  25.2407885  55.2394676   2.9523984  24.4919682  56.5269041
  24.5148444  23.3832145  45.2171373  24.3104196  23.5257554  46.1413288
  25.0956750  22.6223826  45.2148914  64.5872545  69.5257235  41.3736248
  63.9266157  68.8377333  41.4539766  64.8642111  69.4860935  40.4582214
  75.8100700  59.3975258  46.9292068  76.0227585  59.6899271  46.0429239
  74.8854160  59.6192551  47.0391369  63.5540390  26.2248635  37.7875018
  63.2695436  27.0055509  37.3122978  63.1813097  25.4946423  37.2934532
  54.3907022  47.6174164   1.6138671  53.5700321  47.8757048   2.0334122
  54.8230219  48.4451151   1.4035067  16.6297734  10.0852740  44.1191959
  16.3637841  10.9829807  44.3182039  16.6896927  10.0593472  43.1642246
   4.7930589  62.4750853  13.1661344   4.1962057  62.3130512  13.8967121
   4.7305200  61.6870070  12.6264524   2.6601976  39.4052887  24.8414397
   3.2710737  38.6910892  25.0230455   2.1361256  39.4808054  25.6388593
  23.3057928  44.6454287  27.0997405  22.4404645  44.7197962  26.6973615
  23.1262779  44.4507408  28.0195785  76.1804676  63.5430336   0.9168521
  76.3420868  63.9811373   0.0812835  76.5848637  64.1148901   1.5692869
  51.8710327  50.3654003  19.0499187  51.8597078  50.4761839  18.0992186
  52.7995634  50.2964592  19.2719769  38.6596274   6.8295884  38.9921093
  37.9783320   6.2246370  39.2855382  38.2223463   7.6799595  38.9486742
   5.9377623  17.1881270  53.0393171   6.1638284  16.4009202  52.5439072
   5.5037427  16.8592966  53.8265467  53.3459759  31.3704729   5.1257956
  52.6366711  31.7405033   4.6002552  52.9816437  30.5609441   5.4837835
  43.9091921  14.5628488  18.7016857  43.6318874  14.1011119  17.9103994
  44.1319275  15.4433799  18.3995485  70.6651258  27.1601796  36.3119936
  70.1037359  27.3413563  35.5581713  70.1952028  27.5359917  37.0564151
  67.7444935  58.7358332   7.3542446  67.6877737  58.5162449   6.4243019
  67.8133249  59.6904087   7.3711717  10.9194195  17.9631400  18.5826635
  11.3942099  17.2157049  18.2191443  10.1165998  17.5852668  18.9417243
  58.8136864  25.5206060  14.3279481  58.4786034  26.3057232  13.8948882
  58.9146090  25.7772589  15.2445590  53.5631752  25.5114698  32.3191381
  53.6267090  26.0957718  31.5636325  52.9327726  24.8424721  32.0521784
  16.3705945  15.5984092  53.5747099  16.3207042  16.4044964  54.0884876
  16.0086191  14.9247122  54.1503334  47.1008968  16.8147445  14.1905367
  46.3694906  16.8858135  14.8039067  47.7873850  17.3620045  14.5719481
  22.6460123  35.8039832  56.8542576  23.5499692  35.5180621  56.7225599
  22.3377395  36.0348296  55.9779549  42.6157188  16.7205703  64.0680122
  42.4371719  15.8218193  63.7912464  41.9020033  17.2339952  63.6895466
  68.2288170  74.0830660  51.2862444  68.5377502  74.8713923  51.7327166
  69.0001726  73.5185385  51.2357807  78.9103460  58.4883404  14.5775473
  78.6773205  57.8365326  15.2386630  79.8645020  58.4394979  14.5189309
  68.1121159  34.4430494  45.9557009  68.7899399  33.8068295  46.1837673
  67.5829411  34.5240641  46.7492008  31.7569280   6.3237506  47.6428509
  31.7589355   6.6880709  46.7576981  31.6768956   7.0864910  48.2156134
  43.8421965  35.0358248  13.2311749  43.1063604  35.2105761  12.6444542
  43.9985323  35.8697772  13.6742449  63.4341192  37.4585962   6.5428197
  63.5006237  38.2886338   7.0148849  63.8950348  36.8296933   7.0980412
  72.9824781  55.9782314  30.5503273  72.7396297  56.0179853  29.6253014
  72.2028255  55.6366777  30.9881759  72.5164843  24.8661089  24.0109181
  72.8761959  25.7239461  24.2366481  73.2047462  24.4459629  23.4951639
  58.5348892  44.8604345   4.9803892  59.3807077  45.0889111   4.5948726
  57.9945946  45.6400204   4.8516944  57.6805210  26.3340116  26.2661910
  58.5815048  26.5522051  26.5046239  57.3130322  25.9375358  27.0561242
   9.9349397  44.6346855  35.4307151  10.2383208  44.0765715  34.7146869
   9.5708978  45.4056931  34.9956846  42.9242277   8.4646881  44.4633007
  43.4868526   7.7105427  44.2873859  42.4280596   8.5873133  43.6539745
  74.3334198  67.5537586  14.7915268  74.0881634  66.7108727  14.4099140
  73.5374546  67.8608656  15.2255332  53.4380722  40.5741119   8.0585879
  52.9851246  40.9222221   7.2905457  53.6134768  39.6591187   7.8389293
   9.8592301   0.8410658  64.3493015   9.9149843   0.1264276  63.7149380
   9.1045376   0.6189551  64.8945880  59.4748163   9.7981578  52.7604151
  59.8527765   9.5820737  51.9079542  59.5108843  10.7537246  52.8031254
   6.6299033  35.6214428  59.8599005   6.9141120  35.0675964  59.1327715
   5.7445079  35.8953118  59.6205187  21.5015364   0.9215915   9.1172945
  21.0087585   0.2003235   9.5086700  21.2674284   1.6854599   9.6444857
  51.9684649   9.3369335  43.3529282  51.1865807   9.4415820  43.8950872
  51.6393232   8.9963067  42.5211382  76.5887165  59.1746187  28.5734439
  76.2663031  59.3847704  29.4498658  76.7219639  60.0259876  28.1567311
  66.2460089  60.6519604  25.3611016  65.7740307  61.3794184  25.7664061
  67.0172739  61.0577631  24.9652410  40.8230543  53.9295435   6.9908530
  40.5340481  53.2064199   6.4342576  40.0467157  54.4806576   7.0898646
  63.5061264  48.6533785  20.2514338  62.7219868  48.2954836  20.6676936
  63.3425474  48.5607338  19.3128753  42.3337841  59.0165186   6.1094952
  41.6918755  58.3117723   6.1962038  42.2453070  59.3108845   5.2029908
  60.3239918  17.9593420  60.2913523  60.5774498  17.3892879  59.5653868
  59.4639778  18.2972753  60.0415373  68.3785601  36.2920589   0.1012202
  68.9248200  35.6822843   0.5972119  67.7642377  35.7318611  -0.3731374
  65.5604649  67.5993252  35.1148176  65.1841021  67.7476835  34.2473102
  64.8431921  67.2249031  35.6262445  51.7554760   2.8829154  21.6306257
  52.5712109   3.3328286  21.4106417  51.0748100   3.5427773  21.4983296
  66.7588997  46.4918423  15.9074974  66.0320377  47.0199776  15.5773759
  67.4467659  47.1276331  16.1045706   5.3147018  71.5082169  44.5859480
   5.2772242  71.2028837  45.4923677   5.6664181  72.3963785  44.6467447
  19.8959661  73.2526159  59.9352789  19.5029318  73.1107950  59.0740919
  19.1960144  73.0466604  60.5548573  32.6245379  26.1167121  63.9341307
  33.0494881  25.5847430  63.2613325  33.2781816  26.1903572  64.6295118
  58.6895561  69.8903084  26.4744902  57.8852463  69.7980213  25.9638047
  59.3897581  69.8833656  25.8218765  31.5543103  67.0127630  38.7338948
  31.3207436  67.9065418  38.4832168  31.9449925  66.6370726  37.9449391
  18.1672406  46.2695551  28.6758709  17.9934585  46.6494703  27.8146529
  17.3476696  46.3825369  29.1572952  19.4281685  17.2190809  63.8210297
  19.4351578  17.7453530  64.6205425  20.0740981  16.5311360  63.9814663
   8.3125806   5.6944054  13.9411747   9.1118103   5.3916693  14.3722367
   8.1369478   5.0338554  13.2710564  54.6178102  26.7413330  21.3520741
  55.5140114  26.4411426  21.2006164  54.7183847  27.5617886  21.8347406
  63.1706762  48.2567215  17.1078432  63.5747766  47.9535532  16.2948108
  62.4238300  47.6720381  17.2366452  21.5929246   5.1270294  54.7438812
  22.2724628   4.6017331  55.1664019  20.7825565   4.6430227  54.9028444
  54.9957132  65.0402641  64.5691586  54.1025686  65.3615046  64.6929789
  54.8899460  64.1109371  64.3656969  74.7836828  23.1647849  23.7936926
  75.0087833  22.2345233  23.8069725  75.4470396  23.5796189  24.3451524
  50.1783371  31.3990164  34.6147275  50.7959843  32.0975065  34.3982577
  49.3500423  31.8521023  34.7724581  27.9362822  73.8246965  60.3658628
  27.3467112  73.7157869  59.6196842  28.8115835  73.8427258  59.9788809
  61.1138153  52.5772047  26.6649914  61.4530182  52.1946621  25.8557725
  60.3889561  52.0043468  26.9152713  46.8910074   2.9393923  63.8288736
  47.1863937   2.4267477  63.0764294  46.6306067   2.2850470  64.4771481
  14.3503535  51.7817211  63.5109901  13.7890780  52.5249004  63.2898855
  15.2389538  52.1366119  63.4850264  71.7739773  36.1423588  24.8582935
  72.4505758  36.4388895  24.2495918  71.9382668  36.6393876  25.6596708
  30.6602979  67.9528093   4.0164426  30.5688763  67.2912121   4.7021267
  30.7276320  67.4492455   3.2051942  30.9052873  52.9812241  16.4231217
  30.4994559  52.4532986  15.7354987  31.7646408  52.5812578  16.5564251
  75.6908941  31.4105201  14.5141196  76.4177179  31.0327244  15.0093246
  74.9190998  31.2403917  15.0541461  33.0549836  65.3651762   5.3779137
  32.5053859  65.3208876   4.5954731  32.8165698  64.5874405   5.8824098
  37.0612359  53.0068302  32.5673676  38.0023336  53.1605434  32.4840689
  36.9125271  52.1785784  32.1111679  71.6891289  22.6207423  21.7723632
  71.0478878  22.2771955  21.1502552  71.1628246  23.0561066  22.4429560
  11.4273870  74.3726540  36.7907238  11.0931599  73.5009766  37.0021534
  11.1242509  74.5352364  35.8974671  69.4658136  65.6668806  48.0231380
  70.1091576  65.1898479  47.4989462  69.1432333  66.3536549  47.4396038
  66.4636564  20.1031756  33.0783200  67.1679401  20.1204395  32.4303079
  65.9659004  19.3125427  32.8700662  74.7153378  35.1652026  31.4959073
  74.2997599  35.7053161  32.1680737  74.2064905  34.3544698  31.4916849
  19.1332972  43.8341761  27.5655341  18.8659644  42.9352903  27.7573037
  18.7047505  44.3606472  28.2403708  69.8448372  16.0076988  47.3562431
  70.2594662  16.7378354  47.8158283  69.2749500  16.4242554  46.7097569
  71.3556099  55.9250021   7.3097461  72.0769310  55.3779984   7.6207286
  70.6627178  55.3034878   7.0864761  54.4615269  20.0808001  60.7008123
  53.6592436  19.7669649  61.1180401  54.4186449  21.0332966  60.7853222
  57.3614645  39.3698668  46.7093897  57.7081537  39.4348216  47.5992298
  57.2568560  40.2782106  46.4261961   2.3492780  45.1032257  12.4887156
   2.0848766  45.5445480  11.6815245   1.7060386  44.4032812  12.6007485
  56.9689226  26.4511967   2.0068179  57.5638628  25.9504175   1.4486961
  57.2479486  27.3604751   1.8991666  39.6906543  60.8846807   5.6605941
  39.7069049  61.2893438   4.7932911  40.6016970  60.9088135   5.9532630
  31.3205242  43.0523539   5.9351444  31.6093731  43.9496183   6.1016071
  32.0583844  42.6431799   5.4830730  37.2599387  34.1833186  57.9961634
  36.9155574  35.0762939  57.9810333  37.8552222  34.1434717  57.2476435
  60.2327108  38.2926512  17.3948693  59.4741631  38.6590600  17.8493857
  60.4436827  37.4972367  17.8837824  16.5864718  49.8763037  62.3210716
  16.4256978  49.2501450  63.0269814  16.7107725  50.7138348  62.7675200
  48.6666775  30.1161981  15.0913930  48.1249619  29.4831061  15.5625248
  48.6413527  30.9040761  15.6343842  27.3410964  21.5334296  52.5915480
  27.8154206  21.6593647  53.4133720  27.1290302  20.6001139  52.5780010
  51.9168568  28.6713052  27.3933220  52.4194336  27.8765607  27.2143531
  51.5541792  28.5333800  28.2683516  25.7899165  43.0951166   2.8185692
  25.3211951  42.3706341   3.2328868  25.1020932  43.6297989   2.4220330
  50.8815479  57.7697277  28.0929112  51.7327166  57.6687050  28.5189795
  50.5075312  56.8886232  28.0930948  44.4871759  53.7510061   2.8760794
  44.0847158  53.2241058   2.1856934  44.4749784  54.6446276   2.5332570
  65.9839869  13.9593184  42.4308395  66.9229794  14.1367018  42.3755312
  65.8426905  13.2275450  41.8301916  10.1682353  64.4974709  61.5771914
   9.6070218  63.8333082  61.9773865   9.6199340  64.9002504  60.9038639
  15.0078034  45.1571178  38.1032348  14.1761112  44.8512506  37.7413464
  15.6589961  44.5481777  37.7548480  43.6826324  12.6170051  33.5264540
  44.1023016  12.0731568  34.1930413  43.6708403  13.4954011  33.9066029
  14.7488916  56.0952854  21.3772130  15.6255162  56.4473820  21.5314388
  14.5969319  56.2320948  20.4421067  42.0490456   4.6573162  56.4640760
  41.7656279   4.8967704  55.5817080  41.4781666   5.1612759  57.0440292
  11.7592001  66.4514828  33.9214349  12.2764409  66.4468718  33.1160331
  11.7287612  67.3722363  34.1812706  16.5716529   4.4379905  56.8426657
  16.0509193   5.2396995  56.8909359  15.9280682   3.7310934  56.8909073
  70.4173565  46.0385466  45.1158381  69.5597076  45.7566452  45.4339600
  70.9687281  46.0570669  45.8980656  57.0981169  49.9040365   8.9607209
  57.3225069  48.9813042   9.0809029  57.7026701  50.3742886   9.5348394
  45.1244402  40.7546854  42.3781443  45.2506590  40.0494337  43.0129051
  44.1908407  40.9594393  42.4301004  75.5604982  40.0824022   8.8953340
  75.1593113  39.6652794   9.6577585  75.8997345  39.3542695   8.3747786
  67.1386623  27.0270991  37.7000213  66.7143822  26.6798306  36.9154048
  67.8527212  26.4147377  37.8771186  52.3823595  42.9661608  57.9611206
  52.7784252  43.3255291  57.1672583  52.9968023  42.2919989  58.2512856
  60.9794426  39.7104812  24.4293761  61.5940094  39.8489952  25.1500344
  61.4792919  39.2157173  23.7800765  20.3668046  26.9029737  60.9254503
  20.9615874  26.6779280  61.6408682  19.6512103  27.3770261  61.3490438
  58.6413193  52.2909594   5.2633452  58.3652401  52.6263046   6.1163139
  57.9255486  52.5229788   4.6716756  16.9357514  11.4274883  54.8121119
  17.2454882  11.2027884  53.9347219  17.6930952  11.2798917  55.3785706
   7.1455109  54.5225477  23.4114218   7.6378721  53.8017511  23.8041854
   6.5671104  54.8266411  24.1108584  45.0061369  18.7394226   0.7635469
  44.8673296  17.9449546   0.2480051  45.9447956  18.7423325   0.9510262
  61.5889072  62.5067806  33.1206870  60.7176304  62.6561117  32.7535224
  62.1905756  62.7671099  32.4232244   1.1788508  46.5801668  22.0840812
   1.7152023  47.2942400  22.4285460   1.6219451  46.3151026  21.2780786
   0.4680911   5.4833734  17.3726177   0.0095972   6.3189870  17.4607384
  -0.1520075   4.8338252  17.7039731  79.1034794  55.7477617  15.9585488
  78.7892818  56.1649036  16.7607343  78.3190155  55.6424427  15.4202604
  33.1618118  69.1448164   4.8485485  33.5611749  68.5997868   5.5265492
  32.3134637  68.7346315   4.6803701  11.6507864  31.8564534  62.5244188
  11.0034132  32.3172808  61.9907761  12.3438025  32.5005770  62.6695538
  66.0033798  41.1853361  24.3068886  65.7381678  40.6285524  23.5748458
  66.3101292  40.5724430  24.9750948  61.8041515  44.6911383  29.9626756
  62.3365784  43.8991976  30.0373912  61.0773039  44.5491838  30.5691195
   9.2949295  67.0474005  55.0544596   9.0870613  67.2655249  54.1459179
   9.0060711  67.8098392  55.5559349  35.1364064   5.8187997  62.6956558
  34.6153998   5.3942931  62.0140553  34.4896269   6.2132484  63.2807350
   1.1215455  64.4862270   3.0272460   1.5984541  63.6856222   3.2459372
   0.6325760  64.2648220   2.2347046   7.1831059  12.8065872  63.8557482
   6.7482108  13.6289370  63.6302662   7.1782923  12.3021996  63.0422354
  55.3259230  61.4997149  21.0516810  54.8220396  61.2063980  21.8108249
  54.8476362  62.2626400  20.7270002  10.0927111  74.0891828   7.3386729
   9.9485584  75.0286306   7.2251397  11.0107203  73.9573788   7.1017754
  53.7195253  71.4435577  23.6048055  53.4557056  71.1302996  24.4699645
  54.6670723  71.5616035  23.6715007  47.9149580  43.4280777  15.5554330
  48.4212685  43.2281685  14.7680843  47.7496195  44.3693352  15.5013084
  18.8681066  50.2515030  39.6709299  18.8206720  49.5854759  40.3567743
  18.4874701  51.0338354  40.0700569  56.2281227  63.2232428  24.9502230
  56.1324739  62.5055838  25.5763626  56.1688948  62.8023195  24.0925813
  12.2225881  46.5929890   9.2226040  12.7672911  47.3250866   9.5116681
  11.7440641  46.9341850   8.4670699  68.8418722   0.3374824  34.4074869
  67.9438448   0.6624420  34.3428063  69.3010664   1.0029489  34.9198604
   7.8910422   4.3303934  36.3802958   7.8472394   3.5713524  35.7987714
   8.4013867   4.9767467  35.8924341  72.7887106   7.4905062  15.3191280
  73.6079121   7.4606103  15.8133471  72.4539948   6.5944886  15.3558552
  53.4272242  70.5953121  50.7200193  53.8748455  69.9109697  51.2175560
  53.9997911  70.7601786  49.9708748  13.3868778  33.2947183  18.1244099
  12.8755343  34.0872765  17.9612803  14.1455984  33.5976315  18.6232269
  71.0116529  36.1023450  34.0218186  71.8310595  36.3231587  33.5790467
  70.4541254  35.7460260  33.3301282  26.5543604  67.3234940  34.1541409
  25.8485818  67.7252817  34.6607733  26.9884825  66.7357683  34.7724843
  61.6918087  66.9387150   0.3742849  61.5592718  65.9907770   0.3656669
  62.5626612  67.0553541   0.7540745  14.6463418  54.2978859  44.8276329
  14.9335492  53.7383890  44.1060305  14.7456169  53.7523270  45.6078529
  31.5278482  68.4560251  51.4880610  32.4395728  68.6789751  51.6759014
  31.5060616  67.4992990  51.5088415  61.3913774  63.7189293  25.0345135
  61.6435385  64.5425749  25.4519510  61.7736721  63.7676048  24.1583228
  60.4363585   5.3292751  20.3864956  61.1352110   5.9429204  20.1600575
  59.6571016   5.6857449  19.9599791  46.1723042  59.5471668  61.7466688
  46.6128254  60.1962948  62.2951269  45.2474976  59.6230698  61.9816208
   1.7804971   9.6873462  60.6269693   2.3863848   9.0515071  60.2463913
   2.0505652  10.5273533  60.2559137   8.9135450  72.3385382  37.0041561
   8.8969833  72.9346752  37.7528763   8.6186475  72.8723669  36.2663913
  57.3123598  45.7258797  12.3217475  56.9006777  44.9008131  12.5786912
  56.6973782  46.1174393  11.7014933   6.4126682  59.2869568  14.1160035
   5.8546567  59.3854332  14.8874676   6.9531655  60.0769234  14.1089380
   1.2046836  43.9656878  22.6947570   1.0347619  44.9065399  22.7411747
   0.6760748  43.5917616  23.3997297  18.4918857  46.8615627  38.0403399
  18.2107317  46.5711451  38.9080048  19.3684220  46.4913225  37.9362202
  17.8603351  10.4373407  52.3170948  17.4942803   9.5585871  52.4172401
  18.8081884  10.3062046  52.3417521  67.5094748  38.9716530  25.4622722
  68.1014442  39.1550159  24.7327662  66.8408442  38.3969951  25.0895262
  60.5811882  68.4267378  60.1210499  59.7401237  67.9728413  60.1741076
  60.5473709  69.0765619  60.8230591   9.8721725  36.8287349   2.8316572
   9.7852516  37.7486277   3.0816057   9.2912441  36.3614893   3.4320199
  70.9748411  60.1058149   2.4375603  70.1467705  59.6361017   2.3380414
  71.0849047  60.5750847   1.6105747   4.6023369   5.9859866  16.8172300
   4.1339585   5.3679401  16.2560952   4.9714190   5.4440671  17.5146067
  60.1869535  15.1308334  58.6957073  59.6249723  15.0250721  57.9280996
  61.0171652  15.4505622  58.3425093  66.2720823   2.9436287  17.6827455
  66.2587309   2.8943643  16.7269075  65.7685947   3.7311387  17.8890443
   6.5625316  14.6158171  23.4798098   6.2479222  14.6013415  24.3837142
   7.1162564  15.3950965  23.4313846  14.5635033   5.5321169  51.7846155
  15.2999115   5.4483420  52.3903513  14.1907203   4.6517465  51.7375803
  11.2334716  46.0775280  28.2286596  12.1313035  46.3537312  28.0446959
  10.7444167  46.3118696  27.4399018   2.9395106  50.9783936  13.0219817
   3.5733330  50.6006002  12.4122512   2.2770818  51.3806152  12.4601638
   7.9464432  74.5646105  28.5088444   8.7733003  74.2525053  28.1412435
   8.1941553  75.3081407  29.0584183  73.9779806  52.8867292  15.4459500
  74.8916006  53.0048323  15.1859879  74.0215492  52.6447105  16.3710248
  64.5964956  73.9544439   4.9974304  64.8245001  73.6994505   5.8914238
  64.2273760  73.1613302   4.6089053  16.6986394  54.6208429   0.7122754
  17.1497273  53.7767124   0.6982188  16.7202580  54.9191332  -0.1970038
  57.3758793  27.9740620  41.5372849  58.2651186  28.0863404  41.2013102
  57.2294903  28.7424517  42.0889902  19.0648997  19.4468486  61.1599350
  18.5786593  18.6387026  60.9965277  18.8143694  20.0266957  60.4407358
  15.3631747  23.6898470  61.6335583  14.7159970  23.7250876  62.3379374
  16.0662568  24.2703247  61.9250202  45.4097509  32.1912479  56.1020517
  45.5651712  33.1236553  55.9514093  44.7897577  32.1664691  56.8309069
  36.2307882  54.3956709   3.0531415  37.1462226  54.6596432   2.9607692
  35.8714271  55.0005245   3.7021777  50.3741407  28.0410051  17.0900202
  49.7619152  28.1492877  16.3622236  50.6365967  28.9331031  17.3169768
   3.2461765  74.3289804  63.4559250   2.8167406  75.1670361  63.6276102
   3.0444214  73.7946701  64.2240667  66.7636776  54.0837908  53.7902069
  67.5134087  54.5618677  53.4358406  67.0148611  53.8777256  54.6905851
  26.0528946  20.0233173  47.7401924  25.8918405  19.5593023  48.5617685
  25.1865435  20.1166153  47.3440075  31.1257005  45.0979471  17.1024215
  31.2520289  45.8738661  17.6485205  30.6803989  45.4250860  16.3208079
   3.9765307  11.3087571  10.0516045   3.3251011  10.6462288  10.2816653
   4.7658369  11.0424352  10.5230916  55.6177425   5.2164704  41.3372993
  56.0863447   5.3253996  40.5097866  54.7245407   5.5026788  41.1462212
  10.2326298  55.7533932  26.2039852   9.8886198  56.0723305  25.3696203
  10.8814406  56.4083099  26.4615965  54.3683386  41.8794632  10.1927102
  54.3794012  42.6544285   9.6309805  54.0256643  41.1827421   9.6328980
  75.8495760  50.3824997   6.2189078  76.4459658  51.0637903   6.5293783
  75.9455252  49.6726513   6.8538415  65.8203173  48.3538389  18.1361187
  65.2086210  48.5340786  17.4222720  65.7422686  49.1117525  18.7155235
  45.0868607  64.6492004   2.6178148  45.4138327  64.9285793   3.4729582
  44.1364431  64.7427130   2.6825690  61.9404650  59.2506695  48.9873457
  62.5210476  58.5755396  49.3385696  61.3286591  59.4349051  49.7000742
  53.3125210  34.1572022  31.1671686  52.6676416  34.7831345  30.8376646
  54.0136433  34.1702986  30.5156398  58.9723253  48.1517982   1.4236470
  58.6252117  47.8010130   2.2438270  58.5215902  47.6549339   0.7408601
   6.0245866  49.3440723  11.1326480   6.8438607  48.8798571  11.3044906
   6.2295449  50.2631903  11.3042450   2.2431517   7.2429770  46.7124891
   1.7032556   6.5609384  47.1119452   1.6132683   7.8517032  46.3265705
  73.5087013  59.5568848  51.4360476  73.6789608  60.3589678  50.9421825
  73.3844137  58.8848066  50.7658958  52.6767111  54.2910814  21.6445422
  53.3682013  54.9523640  21.6165900  52.0858812  54.5320511  20.9310389
  24.1368532  10.5127370  11.4110994  24.2998624  10.3287506  10.4859996
  23.4641314  11.1936474  11.4049625  -0.2901405   7.3755789  59.5651960
   0.2287791   7.2074765  60.3517675   0.3568609   7.5856823  58.8917875
  53.9160109  64.1688585   8.1232482  53.5251284  63.8882923   8.9507282
  54.6254492  64.7575331   8.3809108  66.3453197  51.4589500   7.4924254
  66.2838221  50.6016445   7.9137039  65.7822132  51.3880014   6.7216426
  56.6314030  54.3421030  24.3149090  55.9556246  54.2232847  24.9823189
  57.4567509  54.2718458  24.7945929   2.5996485  40.5634737  43.4751129
   1.8582118  39.9849772  43.6535740   3.1273499  40.5295801  44.2729950
   3.9699063  30.5099607  22.9518700   3.3827478  29.8708296  23.3555865
   4.0860012  30.1956391  22.0552325  56.5857744  61.9643927  28.1493187
  55.8799028  61.3437796  28.3304715  57.3037052  61.4219570  27.8228736
  33.1456542   3.5259482  42.1806860  32.4690247   4.0879199  41.8030691
  32.9548788   3.5185534  43.1186485  12.3331642  38.1393862  31.6873264
  12.0618308  37.3066688  31.3010693  11.5898228  38.7245488  31.5415168
   3.8105381  72.5468063  19.0373230   4.1139463  73.2672119  19.5897686
   2.8571957  72.6325941  19.0340471   5.1756781  30.3157115   8.4657490
   5.7256413  29.6530509   8.0478346   4.5540556  30.5747700   7.7855235
  73.8224697  72.7206516   1.7083181  73.4377909  73.4693098   2.1641275
  73.3184195  72.6489353   0.8977474  73.3401871  48.0352592  31.9424200
  72.8100252  47.9629993  32.7361035  72.7149677  47.9256773  31.2259531
  54.8941898   5.9850490  61.1294174  54.5244122   6.7872131  61.4982414
  55.2306366   6.2481987  60.2728033   5.2386791  66.1067009  17.0023394
   5.8260423  66.7782307  16.6555214   4.6639967  66.5790558  17.6047122
  68.1674814  48.8099241  16.3254297  68.0369329  49.6345425  15.8572507
  67.9795504  49.0213346  17.2398794   7.5930685  73.9587021   4.8674160
   7.3170477  74.1583061   5.7619566   7.5797248  73.0027533   4.8203155
  41.9150066  25.6009269  12.0459890  41.9624615  25.7937217  11.1096072
  41.1052656  26.0208154  12.3362398  52.5113106  66.5986252  23.1647897
  52.7269077  67.4463892  22.7761436  53.3588791  66.1753845  23.3016443
  73.0782509  57.1113205   5.1854509  72.4547482  56.9088411   5.8829296
  73.4265232  56.2598801   4.9209097  25.0885558   4.9054614  49.7856331
  25.7725286   4.7319037  50.4323864  24.5014024   5.5252779  50.2184248
  54.1534662  40.0570154  16.2031925  53.9146090  40.9168816  15.8570623
  55.1057386  40.0189972  16.1139655  48.6829472  67.9584217  15.0151384
  48.4810019  68.8859749  15.1379955  47.9254341  67.4984264  15.3768110
  76.4888525  74.1364098   8.0887592  75.6913519  74.6469355   8.2287234
  76.4568281  73.8908005   7.1641600  28.1700063   9.6307397  41.8088865
  27.3445153   9.8847020  42.2215605  27.9482913   9.5070237  40.8859730
  51.4641666  48.2817793   2.7849647  51.0018158  48.8029385   3.4413585
  50.8418655  48.2000160   2.0622702  43.9738417   4.7328153  44.4808292
  43.2455111   4.7427726  43.8598108  44.6726465   5.2144301  44.0381670
  68.9051580  43.8438416   7.5088650  68.7273026  44.1717577   6.6273481
  69.7933149  44.1443205   7.7015227  21.2910128  14.9219501  31.2233186
  20.4718685  14.4860649  30.9882879  21.1464572  15.2388239  32.1149063
  77.7163649  61.6429043  32.1818399  77.2998714  61.0228157  31.5832996
  76.9905758  62.1528006  32.5416613  11.6421866  29.1100121  62.3383093
  11.8195474  30.0489116  62.3952246  10.7946038  29.0526795  61.8972301
   4.3238041  38.0921364   2.5790095   4.4098622  38.2905626   1.6465652
   3.8959709  37.2362137   2.6032507   6.3696676  18.7881017  16.8450797
   7.0440567  18.7716103  16.1659920   6.8529528  18.6868012  17.6650822
  11.1284661  50.7797003  22.4204707  11.5927625  49.9620008  22.5994372
  10.2332294  50.5075788  22.2186446  56.2557459  63.2590294  17.3820567
  56.7155743  63.0935335  16.5590143  55.5291080  63.8328600  17.1392584
  17.8654742   6.8855619  30.6562591  18.2330644   7.2304571  31.4699888
  18.4041739   6.1202180  30.4555559  26.0568118  56.7224884  32.5322413
  25.7883978  56.3225746  31.7050433  26.5291643  57.5138140  32.2735500
  34.6206307  26.4236975   1.1283663  34.0158868  26.4061737   0.3866046
  35.3761292  25.9152532   0.8335116  41.3240242  35.8723760  64.3289518
  42.1522856  35.7630730  64.7961426  41.2338877  35.0725412  63.8109016
  13.4282935  53.4616041  51.0667849  12.7575970  53.0146790  51.5831709
  13.6618471  52.8339195  50.3829050  21.0283756  12.6124632  24.7871351
  21.3093853  12.6901722  25.6988502  20.6631446  11.7299759  24.7234631
   9.4307691  14.8062718  40.1492500   8.5622162  15.0762808  40.4474831
   9.8672944  14.4884193  40.9395933  34.6156740  14.9177206   9.0521401
  35.0245452  14.3376827   9.6944880  33.7985873  14.4775808   8.8178825
  30.6711054  15.8030808  26.4399052  30.7351470  15.4242790  25.5631828
  30.0284266  16.5067756  26.3504148  39.3651986   0.9996240  50.3524923
  39.5021963   1.7657349  49.7952366  38.4198880   0.9776390  50.5012751
  72.3497438  51.2299585  20.3951669  71.8623018  50.8001328  19.6923995
  73.0340481  50.6032324  20.6300735   1.1527937  69.4798279  45.8819103
   1.1636651  70.4315996  45.9830999   2.0767514  69.2317152  45.8507109
  53.5293102  46.2079096   6.5327805  53.8375521  45.7860184   7.3347926
  52.5806141  46.0811949   6.5448868  47.0097303   1.2111174  61.5228796
  46.7926073   0.7086121  60.7376575  47.3030710   2.0595768  61.1907625
  16.8825066  29.1625190  23.8338923  17.4780405  29.7161651  23.3288693
  16.9679499  28.2952809  23.4378719  69.3428278  73.6648846  29.3496132
  69.3527269  73.6982107  28.3930445  68.4502459  73.9145613  29.5887494
  31.4247513   5.1753592  10.9966958  31.2493277   5.1289856  10.0568521
  32.3743129   5.0781173  11.0681903  23.2029819   6.1331624   4.0076891
  22.9069400   5.3968871   3.4724408  23.3783937   6.8320608   3.3776075
  57.0824385   4.2969692  56.8751383  56.3219118   4.3140081  57.4561214
  57.6485538   3.6176208  57.2415113  60.1129627  59.0126848   6.0977644
  59.5606518  58.2624817   6.3177234  60.7750320  58.6570501   5.5049586
  58.4542847  66.0526466  16.0461724  58.5672569  65.7235098  16.9378781
  57.9578114  66.8642139  16.1515260  52.7588654  20.5467176   9.1863638
  52.1502781  19.9312663   8.7776172  52.7589417  21.3061333   8.6036783
  21.7793941   4.3603620  13.4557474  20.8659029   4.1333359  13.6296022
  22.0776081   4.7858867  14.2596316  33.0157495   1.5939598  37.7402449
  32.5529790   0.8746199  37.3105645  32.7210140   1.5587065  38.6502552
  27.0531106  48.8616705  23.7725544  27.4668550  48.2390308  23.1747532
  27.3055458  49.7212553  23.4354758  26.3369942  43.2126236  30.2369022
  25.5197716  42.9281139  30.6460929  27.0155334  42.6981163  30.6740546
  45.4276848  48.6514568  59.5773506  45.5205584  49.2693853  60.3024530
  46.0916758  48.9238596  58.9439917  60.2494860  20.6351542  61.5304232
  59.8072290  21.2273550  60.9221935  60.6964588  20.0033331  60.9671783
  56.0248375  18.5266614  31.1194277  55.6851292  17.8550839  31.7108822
  55.4035473  18.5411382  30.3914022  55.8657122  16.8694293   9.9155682
  55.1657200  16.3816631   9.4816005  56.1819935  16.2779653  10.5984795
  42.5020266  40.5857706   2.7093500  42.5326300  39.6982813   3.0666429
  42.1437502  40.4770851   1.8284100  13.3534873  66.7555428  18.9634168
  12.7055109  67.2107983  18.4257340  13.7446094  66.1114836  18.3731282
  77.2708702  30.9052277  16.8026686  77.5159740  31.8019724  17.0307112
  76.5843010  30.6777811  17.4296629  77.6230145  64.2520428   5.6728303
  76.7881680  63.9238358   5.3388590  77.7797890  63.7427044   6.4679581
  33.5779476  68.6410284  44.0896797  34.5261955  68.5718632  44.2004681
  33.2948613  67.7494621  43.8866901  27.6898909  70.6722593  24.7094464
  28.5858321  70.7399368  24.3793821  27.1662307  71.1752272  24.0857196
  36.3899612   5.9445262  18.4025490  36.6024923   6.8773568  18.4323943
  36.1092734   5.7915747  17.5003004  65.2646780  74.3988085  62.7548409
  64.3324089  74.3467999  62.5441313  65.2967072  74.8777723  63.5829687
  22.7482176  53.2960367  17.6656461  23.1613088  52.8773546  16.9104671
  21.9247246  53.6454439  17.3250544  11.1592138  48.9953089  58.6182356
  10.5130565  49.3563843  58.0113268  11.9904470  49.0568256  58.1475973
  79.1963343  71.0740995  16.3882113  78.5769811  71.3409996  15.7089484
  79.7852102  71.8227530  16.4829504  42.0467663  57.3818302  25.5262995
  41.1404991  57.6307154  25.3447151  42.1815681  56.5814018  25.0189805
  64.0240765  36.0854983  44.9994469  64.2650700  36.9488239  44.6635580
  63.9070225  35.5478787  44.2161894  47.4245787  64.5758295  28.6172652
  46.5106106  64.7354841  28.3818746  47.5494576  65.0590181  29.4340658
  19.4131351  24.5300508  60.1897955  19.7163379  25.4025316  60.4409552
  20.0003028  23.9306355  60.6504154  75.7034588  62.0780849  40.8392143
  75.8966732  62.5516844  40.0301409  76.4719915  61.5258598  40.9828615
   0.7465451  43.4933043  50.1971531   0.2194096  43.1054449  49.4986391
   0.1051281  43.8582277  50.8067846   2.0448321  37.5937104  50.5978775
   2.2918145  38.5080814  50.7362843   1.1688337  37.5222087  50.9770155
   9.6934760  21.0873079  50.6942272   9.3295729  21.8960118  51.0545111
   9.6348774  20.4574180  51.4125824  60.5143356  25.4297590   7.2998726
  60.9308863  24.6214104   7.0010537  60.7126570  26.0686541   6.6152447
  53.6394787  22.4104571   3.9885828  54.1320944  21.5905452   3.9524585
  54.1596365  23.0253839   3.4713480  34.3037963  20.7664680  21.4502382
  34.4044971  20.5948114  22.3865199  33.3623815  20.8903837  21.3293481
  31.9726801   7.1802956  19.0142214  31.6147542   8.0510610  18.8413358
  32.5764465   7.3103780  19.7455060  64.3341255  52.5982904  46.7696285
  65.0757408  52.8050470  46.2008667  64.2272758  51.6505098  46.6888523
  25.5642915  12.0066035  15.6946099  24.9840474  11.5143406  16.2753236
  25.5101824  11.5474010  14.8564947  29.1364408  47.7478456  18.7195015
  28.6102462  48.4061718  18.2656741  29.9539804  47.7107954  18.2230282
  38.9816236  13.4888411  29.5534134  38.1327653  13.2148802  29.9007130
  39.1711688  12.8579783  28.8589239  56.1957312  14.0042436  38.3633614
  57.0683765  14.2363381  38.0457854  55.8942890  14.7851360  38.8276553
   4.2187890   9.3371809  56.7523909   4.5976427   8.9402592  55.9680748
   4.9407837   9.3631381  57.3803091   2.3235896  36.1272693   2.5979283
   1.4846206  36.5232348   2.3621881   2.3490565  35.3079605   2.1036422
  38.6437011  13.0073214  11.8108833  38.9942884  12.2231901  11.3884413
  39.3732476  13.6269927  11.8088162  37.1885896   8.9947397  35.0876498
  37.4871659   9.8963636  34.9686646  36.8733168   8.7307972  34.2232609
  46.5746021   2.8724027  11.3198352  47.1185207   2.6813951  10.5557001
  46.8936491   2.2750272  11.9962847  10.8259928  71.3512087   3.3304825
  11.5971971  71.6844845   3.7891778  10.8961642  71.7154169   2.4480659
  61.9342327  23.3873606  21.8653369  61.3337469  24.1292048  21.9382620
  61.5217447  22.6938176  22.3801970  73.9359808  30.2976918  21.2949157
  73.0149031  30.3141522  21.5548801  74.4031477  30.6657243  22.0449400
  60.0007439  18.8147557   2.4423130  59.5874834  19.5967412   2.0763314
  59.3040848  18.1584144   2.4530122  40.6583309  14.2469370  21.9672155
  41.4773655  13.7577021  22.0451236  40.9325647  15.1452482  21.7826486
  69.1258526  69.0244913  56.3371325  68.3001900  68.9119291  56.8081331
  69.2689610  68.1847525  55.9005642   4.2627573  66.3679218  51.6241789
   4.7787604  66.4025879  52.4296427   3.4446043  66.8132448  51.8445110
  71.1718845  39.8103619  26.0567904  71.3393307  39.1044807  26.6812301
  71.3514185  39.4207668  25.2010942   7.0106240  36.8747200  64.6652720
   7.5805756  36.2423338  65.1028519   7.3376699  36.9100107  63.7663690
   0.9597747  39.5142603  54.7833252   1.1431357  39.8866796  53.9208174
   0.6371349  40.2529669  55.2995062  54.8062134  26.4568114  57.7138424
  54.1351366  25.8660579  58.0557489  55.4004478  26.5965700  58.4511232
   5.1422966  25.1952386  11.1972857   5.2000028  24.2625332  10.9900117
   4.8150378  25.2209759  12.0964360  76.7436743  41.9147921  18.2366323
  77.3549461  41.3737822  17.7367485  76.7817736  42.7725554  17.8135133
  21.7021251  73.6499214   4.1169310  21.2268710  74.3317223   4.5918110
  22.5591087  74.0364361   3.9368841   5.2665859  48.3193398  49.7131491
   5.0378847  48.6428738  50.5844975   5.0336564  49.0359306  49.1228294
  11.2987995  46.5141153  64.0443325  10.4462719  46.9425058  64.1212082
  11.8191409  46.8867302  64.7561121  67.2076559   6.6847163  27.4112487
  67.1654940   5.8653736  26.9181657  66.7853498   7.3285067  26.8425441
  63.5158205  16.0516655  35.7183123  63.5076094  16.9080949  35.2908874
  62.6198769  15.7282448  35.6238604  21.2557912  45.3260136  56.3605595
  22.0563364  45.3571129  55.8367348  20.7864141  44.5578289  56.0352802
  11.7174304  19.4078732  52.2011662  10.9002781  18.9942265  52.4793530
  12.2465026  19.4525683  52.9976034  29.7264576   5.8952051  58.1165934
  29.8934102   6.3719559  58.9296532  29.4725871   5.0173581  58.4014893
  46.2244463  68.5999441   2.2150272  45.8450031  68.7262058   3.0846906
  45.5158663  68.8200474   1.6102934  78.3373833  37.6770449  46.0758400
  78.3384228  37.2403073  45.2240849  77.4327898  37.9661512  46.1956644
  62.7969074   8.9711165  33.2257366  62.4974155   8.0734825  33.0815578
  62.1674824   9.5129657  32.7498651  20.6713271  64.1105938  48.3769608
  20.3695202  64.5698023  47.5932026  20.0846577  64.4106865  49.0712166
  55.0338888  30.1663637   7.3686975  54.5922089  30.4648852   6.5736896
  55.6671238  29.5175481   7.0616430  54.7778749  45.8271217  61.2300253
  55.6359720  45.5211449  60.9362888  54.4352388  46.3268566  60.4890156
  64.6161127  21.1671233   6.8372399  63.9231062  21.0692978   6.1842424
  65.3651476  21.5007639   6.3434178  46.6245985  14.1261017  11.1339176
  47.2537947  13.8310146  11.7921507  47.1654701  14.4632769  10.4197693
  22.5002313  36.6893554  49.3354750  23.0928326  37.2002006  49.8869228
  23.0707836  36.0700917  48.8802719  36.4960217  55.3853130  12.1149361
  37.2321200  55.9967756  12.1373868  36.1340737  55.4784536  11.2337148
   5.5007732  58.5240746  62.6695919   5.4481220  59.4622135  62.4869776
   5.8491552  58.1424093  61.8638706  35.0018334  20.2933717   8.7611413
  35.7519507  20.4191303   9.3422973  34.9341631  21.1157632   8.2760376
  67.9919434  10.0167084  60.6082106  68.4889841   9.2345488  60.8478117
  67.3974514  10.1577532  61.3450384  73.2608652  63.6246252  27.0927095
  73.7188244  63.0184984  26.5103722  73.0959034  64.3973351  26.5523982
  10.1018870  23.6932158  18.6737013  10.2668834  23.8808727  17.7496922
  10.6215656  22.9102230  18.8555956  63.6236954  43.1230307  27.1672893
  63.6973667  42.3607111  26.5931177  64.0837336  42.8662968  27.9664683
  69.1766644  42.1680641  11.2874973  69.5738363  42.9617643  10.9289849
  68.5916376  42.4831724  11.9764662  14.2515159  30.5209064  56.0560703
  13.4772849  30.4395580  55.4991293  14.5777607  31.4044094  55.8851385
  16.6457760  13.8647389  48.3013010  15.7428670  14.1809320  48.3330774
  16.6447687  13.0815029  48.8515520  37.1421305  71.4017091   0.4506894
  37.6187018  71.9336138  -0.1866416  37.5109819  70.5237923   0.3535290
  13.8465607   2.2326876  15.8929861  14.4415426   2.9468051  16.1216009
  14.1535044   1.4896089  16.4124584   2.5358233  52.1359301  51.7150593
   1.7728774  51.5609121  51.7742157   2.7406564  52.3563385  52.6237392
  48.2928562   3.8112703   2.3953269  48.0435514   4.4576126   1.7347816
  47.7417850   4.0160096   3.1507289  71.6796875  23.9353156   5.0306952
  70.7268524  23.8718081   5.0963122  71.8566847  23.9179492   4.0901625
  49.8129177  27.6837397  51.7414284  49.9062490  26.8874454  52.2643423
  50.2542830  27.4816346  50.9164572  16.3632429  39.1189027  59.0472889
  15.4395807  39.3202806  59.1973734  16.8369317  39.7449899  59.5948887
   5.2290004  37.5829363  11.6362214   5.0992972  37.5888801  10.6878686
   5.3360397  38.5051823  11.8691087  11.4849901  33.6567140  48.4712553
  12.3376751  33.9466572  48.1470776  11.4637375  33.9477754  49.3828821
  29.4055891  52.8037071  30.3944826  29.3208385  53.3966303  29.6478271
  29.2717767  51.9313335  30.0239635  62.1928358   6.8397719   2.9123005
  63.0819654   7.1905762   2.8611609  61.7106581   7.4839276   3.4307593
  20.4821444   6.5317959  22.0447731  21.0246325   5.7523882  21.9245124
  21.0703373   7.2639066  21.8596458  15.2278101  62.3526478  29.0100193
  14.4850945  62.0311546  29.5211411  15.9982312  62.0410681  29.4849944
  21.0785055  34.3033814  50.1476479  21.0241127  35.1728439  49.7510290
  20.5466580  34.3682599  50.9408426   4.1715428  45.3151226  30.7370996
   3.2363567  45.4290104  30.9064746   4.2138678  44.9835682  29.8401546
  76.6557264   5.0997925  17.5597405  76.6415119   4.2701390  18.0369246
  75.7411861   5.3818446  17.5424421  70.7702017  69.0528011  50.5300903
  69.9897575  69.2585707  50.0155115  70.4367971  68.8717985  51.4089060
  79.2173719  28.6733127  20.3504539  78.3422184  28.9821291  20.1160026
  79.7754574  29.4460440  20.2629304  57.6385036  74.9450944  23.1022978
  56.8759501  75.1978990  23.6227131  57.7739591  74.0204403  23.3094168
  13.4478986  61.2086201  30.9841919  12.5001359  61.1349154  31.0961962
  13.7329030  60.3214741  30.7651711  19.1259801  55.9807587  29.6766019
  19.3524182  56.4797068  28.8917398  19.9200153  55.4884291  29.8848057
  56.4957285  15.3909624  12.2115183  56.5989304  16.2213945  12.6762390
  56.6077423  14.7226453  12.8875625  16.7325783  33.2622147  61.6501427
  16.7096317  34.1788769  61.3754845  17.4400806  33.2226348  62.2936535
  40.4185152  47.2211790  18.3192778  40.8910751  46.3988447  18.4484649
  40.3753614  47.3258543  17.3687971  74.6999073  57.3754168  58.5430241
  75.0369787  56.4798403  58.5194206  73.8297415  57.3142910  58.1489325
  61.1077976  45.8262491  47.6343918  61.2018442  44.9142885  47.9095554
  61.6961241  45.9119701  46.8842220  21.7354083  61.9494390  64.8600054
  21.7313218  61.0186911  65.0834322  21.3051224  61.9926548  64.0060616
  42.0850945  26.7180228   9.6669322  42.4599314  27.5514245   9.9518383
  42.5280190  26.5263104   8.8403136  12.6473081  47.4088144  14.1563940
  11.9142759  47.8813601  13.7619424  12.2860920  46.5515423  14.3818760
  72.2623444   0.1963233  17.7436399  73.0056524  -0.3273231  18.0428374
  72.4664974   0.4027778  16.8315375  59.4383526  57.0796156  24.9534869
  59.0912342  57.2509813  24.0780568  59.9926615  56.3069248  24.8443246
  76.2397766  55.3107452   4.7904959  77.1597147  55.0468159   4.8073760
  75.7699490  54.5240927   4.5135927  20.5654502  12.6044512  60.7732677
  20.6487894  11.9675255  60.0636148  20.7513022  13.4480822  60.3609848
  14.9922740  71.4416218  31.5794921  15.9429622  71.3338566  31.6079402
  14.7051573  71.2730265  32.4769163  27.5059867  58.6871815  62.0158863
  27.7961659  59.4502974  62.5155687  27.8533077  57.9378605  62.4997425
   9.3229103   2.3953283  15.1569974   8.6801767   2.8878397  15.6674457
  10.1544261   2.8374586  15.3282738  18.0971861  13.6677563  58.0374908
  18.8032961  14.3139923  58.0330753  18.3889484  12.9900360  57.4277353
  65.7089567   2.2430244  63.8803768  66.2908888   2.7599180  64.4375181
  65.1388979   1.7797670  64.4940996  27.0901155   7.7456892  61.9925261
  27.7847695   7.1948004  62.3533726  27.0323730   7.4866378  61.0728550
  18.2630312   6.1771476  36.7494202  17.9711461   6.4636457  37.6148415
  18.7425447   6.9273007  36.3978982  66.2519121  53.1871748  31.9008827
  65.7610798  52.4212551  31.6030788  65.6064653  53.8938379  31.9170666
  60.0013351  31.7339277  17.6973796  60.4203558  31.9393539  16.8616438
  59.6306562  30.8604884  17.5711596  47.8788090  19.7601771   6.1085051
  48.3787537  20.5187201   5.8070081  46.9825125  19.9345231   5.8213067
  31.3814974  59.1272926  38.2030416  31.2306619  58.8324165  37.3049712
  30.6809711  58.7174892  38.7105393  57.1983576  71.8961382  31.2646961
  57.4793959  72.8057528  31.1654735  57.7102375  71.4150190  30.6145144
  37.2523665  14.9659920  60.9707260  36.7720032  15.7916832  61.0316896
  36.7779160  14.3695545  61.5498590  55.7981777  36.8011594   8.0222541
  55.1704454  36.5910268   8.7136507  56.5993118  37.0373726   8.4898198
  54.0534830  35.1485443  18.2394409  54.2323637  35.7500458  18.9622355
  54.8473358  35.1732945  17.7051938  77.4201727  67.9615211  58.3698893
  76.7781162  68.4903812  58.8434935  78.2632780  68.2153463  58.7453556
  24.6961784  71.0999918  48.5323000  24.5749545  70.2153969  48.1872988
  25.5088425  71.4051151  48.1289244  52.3030853   3.2749650  57.6487398
  51.6557837   3.2579553  56.9437981  52.9134083   2.5706017  57.4305391
  49.7268295  66.5636301  10.5922103  49.3579245  66.4895773  11.4723575
  49.4677305  67.4363804  10.2965641  50.0273085  39.8470902  12.3077619
  49.2424107  39.9145198  11.7640531  49.9433470  39.0000391  12.7455807
  23.0237412  38.4467149  19.7161579  23.2884741  38.1138039  18.8586509
  23.0332446  37.6771092  20.2852345  76.1794138  40.8985376  45.4253721
  75.4281473  41.3586712  45.7996845  75.9667444  39.9707603  45.5265427
  79.1608810  43.0652142   9.3113548  79.5367765  42.6059628   8.5603410
  78.7949038  43.8688755   8.9420003  29.5293379   2.2147734  61.7322540
  28.9380240   1.6741209  62.2559690  30.0339270   1.5865073  61.2156248
  75.8084106  72.9698992  43.2667923  76.4482355  72.2917366  43.0501080
  75.5789471  73.3608389  42.4237347  51.5366364  42.9286194   7.9455316
  51.4879036  43.4872246   7.1697623  51.1943913  42.0835495   7.6540524
  71.2930584   9.7477114  14.7500706  70.4834270   9.3363190  14.4476020
  71.8709946   9.0138793  14.9591458  78.3209515  42.3549891  61.4976692
  78.5259867  42.1655703  62.4132633  78.0343199  41.5155983  61.1378098
  77.6818991   3.5546219  57.6929426  77.9067898   4.4390553  57.4040985
  77.1709299   3.6861640  58.4915924  69.3871832  26.8740582  28.0817366
  69.1012001  25.9765816  27.9115057  69.5562696  26.8969774  29.0236044
   1.7821375  12.9677832  34.9311137   2.4686179  12.3399043  35.1563787
   1.1608658  12.4647617  34.4045949  51.9007111  56.4361668  61.6996002
  51.0951805  56.1396694  61.2760019  52.6026678  56.0410070  61.1825466
  62.6418972  27.5489211  11.1287832  62.3152781  26.7721915  10.6746459
  61.9517040  27.7683926  11.7546368  76.9315004  52.6659536   9.8997170
  76.4179945  53.3956051  10.2463508  76.7653418  52.6825762   8.9571953
  25.4062366  23.5335612  56.0109949  25.7509375  24.2400289  56.5571785
  24.5741177  23.8712287  55.6796503  45.2731228  52.6600742  18.6194909
  44.6385002  52.5878000  17.9065657  45.3357410  51.7736244  18.9751911
  78.2278299  27.0762873  11.3049686  77.5008869  26.9771409  10.6901836
  78.0924988  27.9381037  11.6989124  44.6013451  37.3013353   9.3140799
  45.2589607  36.6888165   8.9845520  43.9206791  37.3068976   8.6411041
  58.6851072  41.2376547  13.9154708  58.6087942  42.1755838  14.0906775
  58.9890051  41.1872435  13.0091953  19.3294561  26.0724235  56.3055038
  18.8495779  26.3419604  57.0886374  20.0096726  26.7376590  56.2006140
  58.4468985  22.4550271  23.6272764  58.9360666  21.7724681  23.1678653
  58.1977749  22.0524335  24.4591951  37.4124694  17.6625347  47.4304628
  37.5044084  18.3189535  46.7398882  37.1830654  18.1666899  48.2111263
   3.8610610  38.1864429  56.7714453   3.0693185  38.6079431  57.1056795
   4.5547342  38.4753227  57.3644018  66.3853264  37.8156734  54.6844482
  67.2148323  37.4871325  54.3377352  66.6394091  38.4891558  55.3153992
  51.0418749  34.2415380  25.9803677  51.7548561  33.7340689  26.3681436
  51.0624743  35.0777912  26.4456511  74.7988939  40.3775835  41.7636013
  74.2421579  40.3013659  42.5384998  74.6352911  39.5732856  41.2710857
  26.4638162  68.9953041  56.7932272  27.0480251  68.8797522  56.0438395
  25.9487009  68.1890392  56.8219042  72.2425842  23.9037681   2.1364668
  71.3666105  23.6071992   1.8895869  72.1757889  24.8584509   2.1552700
   2.7498242  58.2177496   3.1765112   3.4063649  58.6292171   3.7385464
   1.9583221  58.1892633   3.7140471  12.6692104  31.1435127  19.5952296
  12.9598188  31.9280601  19.1301858  12.9525709  31.2820292  20.4989719
  58.6025620  27.4697280  33.7974501  57.9421711  27.3021793  33.1251121
  58.2353258  27.0873904  34.5944333  26.5632963  15.3275228  63.5297298
  26.6358495  15.0435352  62.6185083  26.1196685  16.1743736  63.4820747
  15.7069135  10.0758910  48.7738228  16.1035824   9.2858666  48.4067440
  16.4503670  10.6376863  48.9926720  14.5203269  72.5426388  33.9134598
  14.1074443  73.3988333  34.0261054  14.2671180  72.0500565  34.6941519
   9.9809498  63.9243412  24.1004109   9.4607669  64.1618299  23.3327913
   9.3366981  63.8011503  24.7975469  16.6014826  20.8751464  57.7744484
  16.8192351  20.4430676  56.9485378  15.6595123  20.7382226  57.8753138
  43.5842419  37.0047116   5.7695693  44.4524670  36.9691801   5.3681296
  43.5302734  36.2061930   6.2946254  68.8817406  58.6110878  11.2730837
  68.2025099  59.1885948  10.9247100  69.1961813  58.1243467  10.5112171
  -0.0728969  42.5864887   4.2391953  -0.2117185  42.8103876   3.3189613
   0.7722541  42.9798365   4.4565347  75.7933521   4.1906908  10.3471398
  75.2153206   3.9983556  11.0854614  76.6416407   4.3773529  10.7493770
  16.8641782   6.4008671  40.9995890  16.8474901   6.7493027  40.1082182
  17.5323129   6.9199765  41.4472008  44.4077873  10.9782505  23.5702944
  45.0876904  10.7268322  24.1953969  44.8230934  11.6409004  23.0183458
  43.3243799  60.9810257  36.0589671  43.8169956  61.2619448  35.2878332
  43.9803839  60.9208775  36.7534256  56.3045883  34.8932695  13.6676133
  55.5992603  34.9833870  14.3084121  56.9020891  35.6142592  13.8661146
  59.2879772  35.2602005  21.2501454  59.3233347  34.6633172  20.5026746
  59.2297506  34.6852589  22.0132208  58.0688667  15.3578007  25.3331637
  57.2026587  14.9537849  25.2813244  57.9211950  16.2726271  25.0933290
   0.5809405  44.7579193  33.6731815   0.9732646  44.3934870  34.4665933
   0.8923148  45.6626463  33.6458182  38.7070584  50.4918194   7.8514910
  37.7566099  50.3807926   7.8280187  38.9045095  51.0286903   7.0840186
  59.1296339  53.1865788  64.0771961  58.8670588  53.4407711  63.1925106
  58.9002609  52.2592545  64.1379738  18.1513894  74.9520445   8.7804323
  18.3133888  74.3052149   8.0937016  17.2946143  74.7150421   9.1353947
  69.5019817  51.8963003   3.6808327  68.5976219  52.1163654   3.4573683
  69.4263697  51.3013458   4.4268548  49.7586155  20.5924129  57.7319670
  48.8702965  20.7404280  58.0563354  50.2992105  20.5584455  58.5211658
  70.3898954  37.6642585   1.6588987  69.5999908  37.3695946   1.2056237
  70.3823757  37.1865463   2.4883366  72.4429369  33.8747835  21.7045617
  72.3383999  34.8262477  21.6997457  72.5385904  33.6490226  22.6298261
   7.8143132  30.7570148   4.7473273   8.6746955  30.3408432   4.6946558
   7.6463860  31.0730839   3.8595587  75.0567961  28.1233335  17.1996343
  74.1977310  28.4840989  16.9803393  74.8631525  27.3091149  17.6641572
  19.9605155  43.4824705  53.0089140  20.3159118  44.2517138  52.5637293
  19.2581618  43.8278341  53.5599613  31.9319320  13.7580001  59.0071487
  32.4878955  14.5306027  59.1082525  32.3941565  13.0666304  59.4810581
   8.1498486  64.7417164  50.9361219   8.6836147  64.2800856  51.5828276
   7.2604102  64.4220114  51.0875177  43.7569809  57.8794432  13.3621216
  44.1165257  57.7657509  14.2419124  43.7612009  56.9992161  12.9860628
  13.5135317  39.1429472  47.6753283  13.5900664  39.1160917  46.7215729
  14.1463768  38.4948659  47.9847336  11.1025476  72.0830631  39.4541955
  11.2383008  71.2875080  39.9688792  10.1799107  72.3001862  39.5877218
  30.9736681  70.8297539  37.2246146  30.3483701  70.2151251  36.8406010
  30.4335189  71.5521622  37.5449228   3.0896235  29.1100597   1.0035253
   3.2415423  29.6998572   1.7419645   2.5046352  28.4368515   1.3511042
  48.8889360  38.7859368  52.0581770  48.9177322  39.2037487  51.1974621
  48.3008289  39.3384385  52.5730610  77.7928925  73.7292671  47.4729300
  77.0044136  73.5861301  46.9494343  77.6243305  73.2636213  48.2920694
  36.1549306  30.3376961   3.8970718  36.8184233  29.9641395   3.3170176
  35.3602791  29.8403549   3.7036419  61.0282183  58.0864763  14.7821987
  60.2652264  58.6469030  14.6408010  61.1618090  57.6473427  13.9422309
  35.9586000  36.6598630   7.6014251  36.3357806  37.3563719   8.1388623
  36.7159343  36.1900854   7.2521579   5.2534932  60.0963449   3.2209298
   5.3629130  60.9126186   2.7331224   5.8555752  59.4829845   2.7995986
  11.1068320  63.7286602   0.3098698  11.0022950  64.6799670   0.2919360
  11.6272568  63.5596572   1.0952540  78.6173773  64.1267014  34.9780560
  79.1143656  64.6450806  34.3451905  78.4694910  64.7226763  35.7123423
  70.6596804  22.8061247  15.2980840  70.8165979  21.8660355  15.3866339
  71.3950396  23.2156730  15.7538831  12.2481561  50.7881641   4.2282984
  11.5955687  51.2756395   3.7255800  13.0757785  50.9643316   3.7808195
  47.5716114  62.3045444  32.5464201  48.4883738  62.5641537  32.4548817
  47.4304628  61.6716290  31.8423414  42.9486465   2.0455492  60.3633499
  42.3590851   2.0190296  59.6097279  42.8634834   1.1806989  60.7646179
  33.4154248  58.4941864   0.6998198  33.7652183  58.5417080   1.5895489
  32.4654531  58.5207033   0.8142059  47.5655890  69.2151117  10.2455032
  47.8839684  69.2691755   9.3444228  47.1539116  70.0643349  10.4054248
  49.0917063  38.6247921  21.4356899  49.4551134  39.1009760  20.6890893
  49.5167971  39.0157461  22.1990275  28.5218668   4.2696673   8.3485103
  28.0417967   3.4658015   8.5474133  27.9214931   4.9739221   8.5930645
  32.9530740  55.8572292  63.0517673  32.7990913  55.5886650  62.1460104
  33.5625553  55.2038145  63.3950090  56.9980049   3.5142660   9.2254674
  57.5396490   4.2212415   9.5762414  56.2120962   3.9534223   8.9003223
  28.5887742   9.3951094  49.0033579  28.0053067   8.9249867  48.4077215
  28.4174418  10.3200150  48.8260794  66.1656904  29.4509411  56.6680288
  66.2224102  28.7200165  57.2834682  65.9654999  30.2101088  57.2155905
  64.3777132  66.2249184  16.2384081  64.8145533  66.1441135  15.3905451
  65.0470924  65.9794521  16.8770838  47.1371078  62.1229506  18.2252085
  46.2157583  62.2089672  17.9803681  47.3340416  62.9283810  18.7034678
  77.8752470  61.8879366  46.4585114  77.6600599  61.1789942  47.0645857
  77.0826626  62.0039225  45.9345007  14.8467708  40.8406019  33.5036635
  14.4628251  39.9744320  33.6399150  14.7195339  41.2928724  34.3376279
  46.3921928   9.0496558   0.6536183  46.1020851   9.7163790   1.2761533
  45.6510305   8.4478837   0.5844481  46.1562538  17.9008806  22.7632499
  46.8382502  17.3878527  22.3297596  46.5041399  18.0704927  23.6387134
  36.5707159  65.5635309  49.5061398  36.9262123  66.4473724  49.4129848
  36.5051842  65.4301548  50.4517317  50.1705503  67.4855280  46.3192987
  50.2300692  68.0230474  45.5295134  49.3066311  67.6847887  46.6800880
  66.8563366  59.8772907  13.4762585  66.9029808  59.3713808  12.6650178
  66.7369175  59.2200756  14.1618526  76.5309858  49.4803667  50.4461765
  76.8971300  48.7702799  49.9189711  75.8999634  49.0496874  51.0228539
  34.6119022  46.5098143  61.0830116  35.4686117  46.1161280  61.2482119
  33.9940429  45.9396362  61.5405893  78.3117533  56.3981199  40.6920671
  78.6558723  57.1319389  41.2013054  79.0038586  56.1986303  40.0616455
  38.0639124  34.9267936   7.1259558  38.8633776  35.0776267   6.6216367
  38.0868030  33.9935970   7.3377359   2.1648391  35.0105739  14.9533749
   2.2554059  35.4583693  14.1122401   1.8343498  35.6834435  15.5485678
  75.5799913  34.7469497  42.8560686  76.1400986  34.1314340  42.3831511
  75.0684071  34.1975832  43.4499598  16.2014759  33.7002754  50.4436684
  16.4153051  34.5528650  50.8226109  15.6247270  33.9033461  49.7072220
  57.5193882  43.5111427   2.0105308  57.2579861  44.3918228   1.7416386
  56.7873764  43.1952858   2.5402710   4.3610579   1.7426659  47.3618507
   3.7956244   1.6132927  46.6004181   3.8204479   1.4842442  48.1083059
  39.3759656   2.7076027  24.5957541  40.0573444   2.0456493  24.4784141
  38.6887264   2.2591795  25.0885558   0.6239600  13.8080096   6.6809696
   1.1492418  13.2156861   7.2189879   1.2667784  14.3104291   6.1803794
  57.8139973  37.1065784  14.2547214  57.3468208  37.9360199  14.3547380
  58.7353563  37.3572206  14.1875744  57.5593519  46.0642195  51.4614391
  58.3569288  45.6253910  51.1655807  56.9939899  45.3541565  51.7654181
  71.9348478  31.4553118   3.6667040  72.6272583  30.9277511   4.0647972
  71.1662245  31.2939835   4.2138955   3.3433357  14.7177434   1.6542286
   2.8932068  14.3812418   0.8793851   3.3369765  13.9861941   2.2715025
  16.9097817  53.9838982  29.8906064  17.6685727  54.3833017  29.4652319
  16.6402888  53.2859707  29.2935276  74.0485477  45.4082060  33.7502861
  74.3717241  44.5113516  33.8365293  74.6612597  45.8264542  33.1454015
  64.9732494  69.9850416  38.6921763  64.4242144  70.2212954  37.9445267
  65.6639957  69.4377232  38.3186197  22.8084946  15.9567094  54.8740339
  21.8586874  15.8497691  54.9256086  23.1610131  15.1722836  55.2943182
  59.7087193  50.5842447  53.2455635  59.7204447  50.6256294  52.2893286
  60.1306868  51.3964796  53.5256433  37.1132827  52.9984760  58.4973812
  36.6507745  53.6839581  58.0152655  36.4176726  52.4664259  58.8837481
  66.5369940  72.3542166  60.9561682  66.8235064  72.0388222  61.8132973
  65.7018805  72.7893114  61.1279440  34.4999170  71.3746643   6.0783374
  33.9384747  72.0395803   5.6797135  34.0233588  70.5536985   5.9552878
   4.2681396  62.0462942  44.6451712   4.4287744  62.9886913  44.6932793
   3.8687578  61.8281078  45.4872608  26.5528178  11.2188208  62.6080990
  26.8159056  12.0247686  63.0524683  26.5699482  11.4419091  61.6774178
  38.3798289  55.6751394  20.8262420  37.5947714  55.8409643  20.3043056
  39.0968752  56.0270834  20.2987838  65.6069851  26.1122298  39.6997023
  66.3135815  26.3194489  39.0881348  64.8053026  26.3069534  39.2142963
  39.7633195  20.8181119   4.0839738  39.2984867  20.6868958   3.2575685
  40.0592661  19.9427950   4.3339092  58.6003208  27.4516916  61.8409777
  57.9990673  28.1808019  61.9930458  59.2397308  27.5165915  62.5503206
  74.8874426  11.6519964  18.4748483  74.8065233  11.1706579  17.6514423
  75.7704592  11.4502931  18.7844098  67.8588867  34.7497439  63.8274097
  67.1137428  34.2560625  63.4849548  68.5501623  34.6213007  63.1778955
  73.1129837  48.9184189  50.3969193  72.3245144  48.8101673  49.8651075
  73.6905193  49.4620848  49.8610926  62.0115852  32.1159387  41.1177874
  62.8329182  31.7818427  40.7571936  62.2672176  32.8913403  41.6174221
   6.5921503  40.8646107  21.5283751   5.9257710  41.3003063  22.0597291
   6.9734144  40.2091408  22.1125245  69.6397781  57.4936008   8.6834437
  68.7977505  57.6862431   8.2710022  70.1357460  57.0286608   8.0095899
  46.0736752   1.1859136  43.5609770  45.3369570   1.1064156  42.9550409
  46.8045855   0.7681561  43.1054783   4.9397665  26.9146633   0.2977611
   4.0651169  27.0322967  -0.0728895   4.9308690  26.0268855   0.6555378
  65.0073195  17.1937513  26.8722630  64.3243790  16.8050253  27.4188113
  65.5006504  17.7562451  27.4693012  74.4226646   7.5157034  17.7810872
  74.2273283   8.1181979  18.4987748  73.9863062   6.7001683  18.0275130
  68.6962509  20.5580235  11.9241643  69.1741753  20.1758814  12.6602292
  67.8639746  20.0855017  11.9077682  76.3123655   4.2804199  47.2654581
  76.1093998   4.8984718  47.9676294  75.4818583   3.8390952  47.0873451
  47.8808355  21.6736197  54.4926500  48.4977198  21.4078140  53.8107157
  47.0215464  21.6123533  54.0753984  25.3193808  60.6179142  25.0325179
  24.5926428  60.0557232  25.3008986  25.8985329  60.6407070  25.7942891
  75.4121637  21.3357615   5.8416194  75.8049107  21.5080547   4.9858773
  76.0679197  20.8153486   6.3057142  77.1942425  59.6939421  63.2390261
  76.5055799  60.3415728  63.3892059  77.8537607  60.1603413  62.7254677
  68.4209824  33.2203603  57.5506496  67.6019716  32.8582454  57.8887653
  68.1746054  34.0705252  57.1863031  54.8578882  29.3608952  56.2073135
  55.3715181  29.8915410  55.5983496  53.9483166  29.5195246  55.9548378
  36.3960481  54.9405956  44.3693495  36.6300726  54.0206814  44.2459726
  35.5310535  54.9148989  44.7784376  13.0509579  59.5505381  33.5732532
  13.3539605  60.3129625  33.0801749  12.2485113  59.2801142  33.1269550
  31.4161992  55.4596901  17.1024477  31.2488937  54.5719719  16.7858994
  32.3684907  55.5086899  17.1859622  69.3983698   8.6037284  34.9818873
  70.0658560   8.4153759  34.3221760  69.8156118   8.3829516  35.8145928
   2.0294701  55.1083755  43.0651474   2.5162864  55.3872395  42.2895956
   1.7916264  55.9246111  43.5049486  61.1861753  21.1416578  17.6984429
  62.0852947  20.8220410  17.6232350  61.2442780  22.0727944  17.4843466
  38.0301952  70.1830196  59.0851736  37.1905756  69.9623442  58.6819696
  38.1605959  71.1079407  58.8760138  67.5314569  64.2917871  35.4674673
  67.8210640  63.3918238  35.3177404  66.5757847  64.2380333  35.4732823
  20.4291415   6.1413801  25.4704165  20.2702093   5.3156734  25.0130534
  19.7867692   6.7472923  25.1010132  53.4712839  69.9488163  17.1419811
  54.0729713  69.2085648  17.0630491  53.2846117  70.2031565  16.2382686
  14.3367648  69.2136908  13.0975962  13.4433150  69.5372868  12.9824209
  14.6400440  69.6297693  13.9045227  73.2661247  34.7050667  59.6452332
  74.0399599  34.4232965  59.1573715  72.5280190  34.4499040  59.0917683
  71.3689041  61.2009239  54.7006464  72.2464371  60.8410406  54.5716095
  71.3626528  62.0075083  54.1852713  43.4682846  20.8675861   1.2617153
  44.2038870  20.2646732   1.3694981  43.4132957  21.0118723   0.3170517
  35.2398968   3.0931330  44.6436501  35.1044178   3.2925284  43.7173033
  35.5983162   2.2055800  44.6476793  20.2791095  56.5369354   0.3332730
  20.3119158  55.7408093   0.8636876  20.6112838  56.2679718  -0.5232028
  32.7335691  17.0221925  23.4242749  32.1309328  16.3253510  23.6840296
  33.4050965  17.0247090  24.1063857  52.3981380  43.1142807  54.5689201
  51.5591955  43.5723782  54.5184040  52.1691656  42.2238493  54.8352480
  10.1864564  47.1961069  15.9330189   9.8260498  46.5983629  16.5880287
   9.4219631  47.5148821  15.4532659  30.8466339   5.2438670  34.5585012
  30.9316492   6.0139829  35.1205730  30.3459167   5.5525768  33.8033772
  64.0896177  11.3271034   3.1509030  64.9916220  11.2292683   2.8458652
  64.1067314  12.1094310   3.7021768  50.9821510  53.3157825  14.8241961
  50.5008268  53.3385992  13.9971292  51.5206909  54.1069841  14.8098123
   3.7051979  37.9991817  38.4212422   2.7729958  37.8033948  38.5155749
   3.7358323  38.7226963  37.7952862  35.9711099  17.7916646  22.6143527
  35.7043266  17.2214425  23.3353972  35.2238894  17.7868617  22.0161295
  23.4628701   9.4080156  57.8087234  23.3497977   9.0175110  58.6752987
  24.0594101   8.8133526  57.3540306  29.8537898   7.5025308  14.8488605
  30.3677654   8.1389093  14.3517864  29.7684693   7.8911859  15.7194352
  22.1787763  37.4990797   2.3922563  22.5385880  37.7911973   3.2297736
  21.7762136  38.2827878   2.0181188  48.4224749   7.9388255  38.6642742
  48.8335609   7.7047014  37.8321505  47.4853373   7.9609638  38.4705949
  21.1071706  64.3553066  19.5665026  21.8505836  63.7707376  19.4186831
  21.2504792  65.0828171  18.9611709  41.0858679  12.8652394  14.4595146
  41.1435556  13.1192565  13.5384393  40.3437281  13.3649373  14.7997499
  12.3312616  44.2303276  37.4984145  11.8228233  43.6653805  36.9165611
  12.0885515  43.9467669  38.3798432  67.5252390  74.9823332  17.4131370
  67.9248476  74.4406319  16.7326188  67.6880264  74.5041943  18.2262266
  26.6420269  48.7275124  59.7155190  26.5481234  48.0619287  60.3969955
  25.7785225  48.7735367  59.3050671   6.6490912  55.7385111  17.6429796
   6.4773250  55.3604364  18.5054111   5.7938462  55.7534647  17.2133696
  12.6146340  50.6724691  44.4971895  11.9776511  50.6340504  43.7837410
  12.1671164  51.1552525  45.1920843  39.5372224   1.5921843  14.4862640
  40.1064110   1.9166364  15.1841092  39.7459459   2.1426974  13.7315440
  46.4889765  59.8812008  14.8286307  46.0767889  59.8792696  15.6925344
  46.1195660  60.6468582  14.3887079  31.6138172  71.6001844  28.5669470
  30.7333922  71.2334871  28.6482882  31.8742323  71.4006758  27.6677179
  19.5006263  70.8716440  13.1201994  20.4339910  70.6706238  13.0520058
  19.3961596  71.6910982  12.6366580  26.2519479  47.8133488  14.7223544
  27.0330548  47.8786659  14.1729546  26.1282444  46.8730736  14.8519897
  17.4122834  64.8908806  24.8336267  17.7717853  64.0116549  24.9517536
  16.6045129  64.7548199  24.3384266  23.7547803  51.4399910  62.2494745
  24.1803122  50.5916548  62.1250391  24.4219255  51.9833660  62.6688623
  28.0252171  58.3955765  42.9251289  27.1923637  58.6706114  42.5417995
  28.5109186  59.2104864  43.0526161   1.7567778  22.0923090  40.0563574
   2.2037819  22.6076937  40.7277727   0.9039210  22.5155735  39.9577951
  44.5912027  58.1864214  27.0249343  45.0946236  57.9259729  27.7962732
  43.7438393  57.7550554  27.1350956  48.1847000  43.0894184  18.3053911
  48.8576508  43.7698984  18.3232057  48.0674362  42.8928041  17.3759687
  18.5241592  54.4005537  57.6329803  18.6466837  54.6681261  58.5438156
  17.5948930  54.5531225  57.4614620  59.4178534   9.6392369   3.5806179
  59.3495274   8.7489653   3.2356828  59.0628624   9.5803374   4.4676030
  71.4190340  46.4681196  28.9877653  71.3734150  47.4220467  29.0523863
  70.9428787  46.2594604  28.1840444  74.1471243  31.8759394  16.8769348
  74.5863628  31.6363645  17.6929653  73.4281349  31.2488842  16.7988968
  11.3576329  50.8234024  27.8956890  11.5141010  51.7630005  27.8013301
  10.6735969  50.6289721  27.2549701  71.0814047  59.0099049  61.3959360
  71.8399334  58.6405468  61.8480921  71.0934877  58.5978651  60.5320454
  28.3557415  22.9696417  23.5714650  28.5172224  23.8803315  23.8180470
  27.4097943  22.8595328  23.6678505  13.4769118  48.3436394  45.5932426
  12.8393793  47.8847122  46.1402082  12.9487109  48.9250708  45.0462723
  58.3620358  66.7149448  60.9881210  57.5882530  66.2229252  60.7135057
  58.0724621  67.2077847  61.7558956   8.0726951  32.9771376  52.4804974
   7.1474707  33.2224774  52.4804735   8.1019193  32.1528363  51.9947958
  36.9420338  13.6711168  14.0103042  36.2477279  13.0158794  14.0798354
  37.6132441  13.2525778  13.4712923  77.5342226  21.9710326  63.3060265
  77.4255753  22.0992637  64.2483568  78.0823374  21.1897826  63.2322407
  30.8051085  52.7867794  25.9874153  30.7620430  52.8615093  25.0341105
  31.7216182  52.5799036  26.1702871  70.8443546  33.7016082  30.6268692
  71.7456579  33.4317160  30.8030605  70.9041119  34.6424651  30.4611897
  60.5406427   6.4559788  35.6306219  59.9934673   5.6864595  35.4735494
  60.8165884   6.7358446  34.7578335  72.8519678  64.2386007  16.4659739
  73.6249971  63.8834763  16.9047761  72.1535778  64.1680479  17.1167481
  78.1828165  47.4919510  10.4285014  77.9059505  48.3772421  10.1922083
  78.0037355  47.4273586  11.3665795   0.6474720  63.8739395  62.9859304
   0.4981205  63.6438751  62.0688725   0.2239535  63.1725740  63.4808588
   3.8107026  40.8839178  46.0054970   3.0641705  40.9474087  46.6012239
   4.5372695  41.2767029  46.4892864  11.3765931  40.8391237   2.6660615
  11.8691385  40.0190687   2.6998487  10.5045712  40.6081200   2.9861352
   7.6608437  27.3557734  53.4111691   7.4220884  27.6164412  52.5216293
   7.0186436  26.6855550  53.6448669  25.1200008  64.5706654  44.8840809
  24.1933894  64.5839787  44.6444082  25.2685881  63.6856222  45.2170181
  64.8419905  43.8682032  49.6292114  64.4157410  44.7194099  49.5292950
  64.1821384  43.3179760  50.0512075  41.7641163   1.3684557  55.2048206
  42.4262810   1.9508728  54.8325872  41.1500072   1.2142175  54.4869661
  36.1810350  24.2283750  16.3432932  36.4891076  23.4048939  16.7217135
  35.7810760  23.9748764  15.5114257  16.2195683  59.8679018  58.4272623
  16.0950720  60.7286024  58.0273533  16.6038442  59.3340302  57.7318907
  60.4418564  24.3742347  11.9470990  60.7577848  24.8830175  11.2003994
  60.5771828  24.9472308  12.7018130  16.5432763  47.6759720  50.4292965
  17.3557651  47.6888704  49.9234056  16.6932297  47.0163107  51.1064911
  76.9128704  65.9050751  22.6163745  76.7613029  66.3036203  21.7593908
  76.1103630  66.0808897  23.1075954  13.8096178  40.3310156  23.8746691
  13.2051957  40.3535366  24.6165586  13.3861148  39.7551227  23.2380962
  15.5163527   7.9980034  28.0683184  14.7989571   8.2283795  28.6586595
  15.4787588   7.0435250  28.0067563  11.1736190   2.3146835  24.6720433
  10.6829488   1.7719752  25.2892494  11.2222564   3.1726465  25.0936651
  71.0045338  16.0231638  10.2295470  70.9268093  16.9770908  10.2441788
  71.2178326  15.7863653  11.1321330  16.5391767  72.6956797  36.7413902
  15.7270277  73.1837559  36.6056442  16.6796207  72.2303152  35.9168029
  19.5700526  48.9228725  17.2836649  20.0299096  49.6324635  17.7322698
  19.4853604  48.2363749  17.9453135  65.1572895  67.6295757   8.1709176
  65.4205036  67.4065924   9.0637946  64.7062111  68.4694386   8.2568705
  26.5736127  67.4805546  63.1918240  27.3759127  67.8586578  62.8318501
  26.8625879  66.9990110  63.9669609  11.2579262  40.4658937  41.6799593
  11.6280091  39.8881578  42.3474121  10.9795725  39.8755312  40.9798002
  28.8833757  35.1975836  64.5875768  28.0787846  35.5618634  64.2185661
  29.5838543  35.7210459  64.1982909  52.5492907  13.5264695  59.2919207
  53.4048700  13.2117009  59.5836973  51.9197845  12.9823685  59.7651100
  59.3194532  49.7318220  56.5147972  60.0489712  49.9473381  57.0958185
  59.5732069  50.0957298  55.6666183  -0.0493401  48.7919855  14.9983883
   0.6004738  48.7998486  14.2955995   0.4120532  48.4139013  15.7469881
  55.7771778  20.7642269  37.5683284  56.5965033  20.7952690  37.0743847
  55.1994848  20.2137899  37.0396304  19.1910040  18.5149479  27.0147276
  19.8606431  19.1982687  27.0445371  19.4857490  17.8628612  27.6504469
  63.2460737  11.6104174  40.2437401  62.6795673  11.3852334  39.5057726
  62.7265120  11.3962293  41.0186052  11.3292789  60.7174826  56.9913673
  10.6063366  60.1503944  56.7230463  11.9509757  60.1275253  57.4176025
  68.3865738  71.1313105  42.2795630  68.5530710  70.2232265  42.0267916
  68.8334179  71.6515732  41.6118145  71.4174700   9.0576845  51.2248755
  72.0081711   8.4054655  51.6015816  70.5650711   8.6228961  51.2001228
  40.5952072   1.8650036  34.5003724  40.1199722   2.5767872  34.9290299
  40.4243755   1.9909582  33.5669994  54.0813971  12.6073027  22.1340847
  53.8167381  12.5076163  21.2196159  53.4342718  13.2060885  22.5068021
  77.7588987  68.7455797  37.9629087  78.6650801  68.9673615  37.7487111
  77.2594595  69.5285225  37.7309632  15.1697111  51.7006540  43.2114506
  15.2878249  51.4228773  42.3030901  14.3025100  51.3738489  43.4510183
  61.7571831  51.0183239  44.6843052  62.3374939  50.4589653  45.2006245
  61.0471630  50.4380798  44.4096851  64.2164707  47.1880484   6.0459846
  63.7635422  48.0135345   6.2182051  63.7792110  46.8317556   5.2726185
  19.1337001  50.2306795  34.8261905  18.8167191  50.0895023  35.7182789
  18.3399272  50.2626610  34.2922115   2.5301155  66.1761999  42.8172541
   2.7941939  65.7320023  42.0115376   2.0359829  66.9397688  42.5188780
  14.1428578   3.0544609  28.6460185  14.0154815   2.1072987  28.5922551
  13.3178151   3.3874220  28.9991117  61.0997248  10.4060698   8.0922949
  60.8403683  11.1938131   8.5702336  61.0708141   9.7083318   8.7469387
   5.1792431  23.2318115  40.8784151   4.9527401  24.0705609  40.4766321
   5.0988013  22.5961208  40.1673174  77.1729279  29.3295121  61.3040686
  76.6963100  28.7336206  61.8819809  78.0342388  28.9249682  61.2005758
   8.7333649  32.8522468  55.8151960   8.4120464  33.7286186  55.6031609
   8.2344538  32.2692680  55.2429581  32.6035357  62.9295301  39.9733615
  33.1062794  62.8134251  40.7795906  32.1953177  63.7901831  40.0675011
  19.8912179  13.8929725  54.9656010  20.8284807  13.6986744  54.9697208
  19.4787335  13.0899024  55.2836657  16.1069715  61.1111975  26.7880678
  15.5462074  61.4895010  27.4653101  15.5760002  61.1427641  25.9922624
  61.1844778  11.8145132   3.6514813  61.7415047  11.5087557   2.9356149
  60.5770254  11.0914838   3.8078865  77.7721548  52.3218489   6.4825475
  78.0679274  53.2322025   6.4860660  78.4930706  51.8373394   6.0803562
  54.7918844  28.3368683  63.3393049  54.4426012  29.1409874  62.9550791
  55.6525517  28.2318354  62.9337740  18.8288295  54.3437004  32.8280020
  18.4070253  54.9294233  32.1993184  19.4767308  54.8927927  33.2695389
  62.3747587  12.9260159  13.2986963  62.4335909  13.7142015  12.7587569
  61.7245054  12.3805237  12.8561580  50.3782654   1.3379858  12.4466014
  50.2332020   0.4772643  12.8394723  50.4304409   1.9359015  13.1922603
  20.8796573  40.8711100  34.1443944  20.1396608  40.2675343  34.0785241
  20.5895209  41.6571665  33.6816120  10.9160757  48.2294226  19.1534877
  10.0090182  48.5251713  19.2310297  11.2957990  48.7951231  18.4811604
  69.2920971  52.3613453  53.7370110  70.1953173  52.5623465  53.4920120
  69.1452456  52.8601933  54.5406389  18.2458961   3.9483300  44.1354513
  17.6285219   3.2225290  44.0443850  18.9483964   3.7440977  43.5181904
  15.8122683  39.4756794  20.6411695  16.4946842  39.1405225  21.2227297
  15.6468630  40.3651810  20.9536695  27.0362258  72.6414108  45.1580620
  27.2668123  72.9736376  44.2904854  26.4002657  71.9467068  44.9872589
  57.5544977  50.9279346  13.9741254  58.0892611  51.6726208  14.2492712
  57.4069786  50.4291201  14.7776496  78.2017136  44.8070097  51.7828703
  78.7116575  45.6142998  51.7160606  77.3288727  45.0963688  52.0486736
  38.8336444  60.5481052  42.4882793  38.9261365  60.1242304  43.3415127
  39.5739698  60.2213669  41.9770098  14.4082546  62.6435280  38.7964225
  14.0362072  63.2641411  39.4230437  13.8773155  62.7524376  38.0074525
  35.7492781   8.6765194  37.6547742  36.1617208   8.9495564  36.8352795
  35.3318667   7.8408051  37.4460149  20.6036067  72.5564575  27.6883650
  21.3126850  72.9745388  27.1998477  19.8232317  73.0594254  27.4553967
  32.1450305  58.9964962  28.0122066  32.2936988  58.3846140  28.7331295
  32.7169514  59.7390509  28.2065034   3.5786206  47.9805040  40.1173735
   3.6883071  48.0417204  41.0662937   4.4705939  47.9106474  39.7771740
  63.8188267   1.4130425  39.8090672  64.1695976   1.3034269  38.9252234
  64.5645905   1.7163908  40.3268051  67.3055410  38.6734295  46.9841242
  67.7312756  38.9381504  46.1687088  66.4236069  38.4115791  46.7198133
  14.2876303  71.3570452  63.3866978  13.9917755  71.1632109  64.2761517
  14.5865273  70.5144548  63.0447388  69.7650051  51.1469126  49.9926710
  70.2305126  50.3612614  50.2795267  69.0562868  51.2506390  50.6276464
   8.4962708  26.2360334  12.5351226   9.0452552  25.9069562  11.8233943
   8.1443000  25.4484391  12.9499042  75.3670025  27.2209501   1.0414854
  76.1594629  27.4491835   0.5555346  75.0006056  26.4755654   0.5656851
   3.7662476  26.5908909  22.6980352   3.6804742  25.7304382  22.2875500
   4.5324513  26.9814491  22.2777653  27.8615093  55.2806377   4.2515925
  27.3165321  54.5095682   4.4087058  27.3077416  55.8635139   3.7321413
   0.1672383  67.1710587  30.3767800   0.5988141  66.3287926  30.2333808
  -0.0641898  67.4741459  29.4988227  68.7057829  49.3016672   1.3829064
  67.9832363  49.8611307   1.0980180  69.4940042  49.7689486   1.1061680
  21.3841343   2.1498546  17.1127093  22.1020675   2.7825868  17.0913875
  21.0154438   2.2354841  17.9918945  45.4817963  65.1278162  13.5056591
  45.6515169  65.8338499  12.8820074  45.6540489  65.5184460  14.3623781
  43.1165648  69.2109680  26.2091112  42.6009130  69.9492693  25.8847046
  43.3016348  69.4308805  27.1221399  13.4578145  17.9446542  23.3185363
  13.1484008  17.0413244  23.2515216  13.1868923  18.3522725  22.4959302
  39.9716353  16.3001299  62.5819540  40.4349041  15.4644060  62.5255919
  40.1897907  16.7504203  61.7659378  66.6554880  24.4518995  30.9795356
  66.5750742  23.7852335  30.2973890  67.4181461  24.1809034  31.4905620
  53.8567591  61.3711643  28.8856268  53.6635447  61.6097975  27.9790092
  53.0197001  61.4622927  29.3408799  10.4643488  72.8857899  64.0852213
  11.0517776  73.2450438  64.7501278  10.8898914  72.0766354  63.8016558
  17.4788785  62.2004795  30.5636716  17.0818174  61.8499088  31.3609648
  18.2104194  61.6107655  30.3811431  70.3127527   9.4772583  47.1738005
  70.8508301   9.9283987  46.5232801  70.0534391  10.1640606  47.7880383
  42.4900627  69.5904541  43.9058399  42.4211931  70.5248165  44.1019440
  42.7576685  69.1910887  44.7335625  56.4411879  55.4759169  18.0666435
  55.9081316  56.0269260  17.4935222  57.0422506  56.0859919  18.4941566
  20.5806184  56.3400936  27.0699906  20.5307603  56.4740610  26.1235237
  21.2495446  55.6645441  27.1813583  15.6976533  48.5225439  40.8862209
  16.5180135  48.6351156  41.3663960  15.9161711  47.9177141  40.1772308
  13.8336527  40.7021379  30.8207726  12.9457235  40.3736830  30.9619570
  14.1147327  41.0105705  31.6822195  34.1029191   6.2760431  37.2040129
  33.2245564   6.6404343  37.0947766  34.1343808   5.5396438  36.5933108
  67.6220608  66.4099598  20.8527589  67.6469564  67.1525192  20.2492499
  67.7835226  65.6459188  20.2992249  58.6462927  25.0538421  64.0686750
  59.4620180  24.8347807  64.5190477  58.9092112  25.2172995  63.1629229
  77.2780275  70.7012892  34.9313712  78.0063534  71.2431812  35.2349091
  76.7149973  70.6047297  35.6994247  68.0027246  68.0438566  61.9333315
  67.3673582  67.3995733  62.2454834  68.8344145  67.5703907  61.9144964
  62.3856449  10.7502043  14.9210262  62.7267551  11.4722943  14.3933332
  61.8677902  11.1764181  15.6039619  16.4494836  74.4684601  56.9185448
  15.9150374  74.3011570  57.6948261  15.9209466  75.0644112  56.3877678
  35.9390593  49.3514585  19.8735905  36.4768219  49.9552679  20.3858924
  36.3893676  48.5098457  19.9453318  24.8170805  69.3524981  41.0108137
  23.9174366  69.0386963  40.9191513  24.7325516  70.1950741  41.4570761
  29.9712133  69.5090389  33.9740181  29.0463471  69.7187567  33.8441253
  30.4379845  70.2897882  33.6760521  78.6185360  65.6942749  37.1696782
  78.9211369  65.4349804  38.0399823  77.7119350  65.9705353  37.3037815
  30.1293278  56.1029387   5.4151136  30.1966906  57.0473385   5.2743828
  29.2465973  55.8792019   5.1202208  15.2386904  66.0294914  44.0331411
  16.1092627  66.4001131  43.8883018  15.3991926  65.2294540  44.5335484
  59.7249222  25.3312206  23.0107045  59.4446659  24.5230818  23.4403586
  58.9245176  25.8500791  22.9309344  16.6314113  46.5066290  43.7310982
  17.2129738  45.9483099  43.2150602  15.9026313  45.9349632  43.9725637
  62.0939255  17.8695035   6.7866498  62.7727509  18.2199645   7.3633718
  62.5773954  17.4293780   6.0875207  13.7047756  34.5435596   7.1380341
  14.0460539  35.4368639   7.0960081  12.8454673  34.6345758   7.5497818
  59.9621296  29.5130491   4.3290374  59.9781275  29.7212362   3.3948889
  59.1336584  29.0510821   4.4573155  58.7854862  10.3212070  48.6989164
  58.0213976   9.7450721  48.7206793  58.9402914  10.5484581  49.6157742
  32.1908927  12.6442707  46.9084167  31.9367623  13.4264898  47.3980904
  32.9553437  12.9171336  46.4010811   4.2820200  36.0875082  58.7126255
   3.8782316  35.6813788  57.9456520   3.5434127  36.4031768  59.2332411
  63.3273792   4.7805664  28.7527871  62.3741817   4.8577851  28.7938547
  63.5708284   4.3743393  29.5846176  45.3716278   7.6898390  30.3388906
  45.7194710   7.4582982  31.2000680  44.4233084   7.7230632  30.4646444
  66.4655590  57.3716307  32.1195292  66.6402340  56.9859028  31.2610817
  65.9774351  56.6963720  32.5906873  45.7960796  13.6804986  53.6613655
  46.0817242  13.0660164  54.3374205  45.8655643  13.1868649  52.8442192
  55.1721144  50.9073210   4.0086278  54.3188715  50.5691433   4.2803621
  55.7847643  50.5607128   4.6572840  42.9058313  69.2564392  21.2115216
  42.1713877  69.0116787  21.7744756  43.4192038  69.8676825  21.7397881
   0.7935321  58.4320879  41.8915510   1.4884904  58.1920195  41.2786627
   1.2479079  58.5894251  42.7192068   6.1364305  57.9795408  47.3793411
   6.5579480  57.6507759  48.1733608   5.7214373  57.2089195  46.9918394
  32.7356625  64.0921259  44.8359108  32.0326805  64.0575027  45.4846430
  33.3418274  64.7510147  45.1745367  27.0288157  43.5914755   6.2879872
  27.0566297  44.5104790   6.0217351  26.4308834  43.1794262   5.6643510
  38.6347580  52.3882198  53.5053301  38.0345321  51.8267488  53.0147076
  38.5649252  52.0812988  54.4092941   1.9257781  41.5286779  34.2089605
   1.5652342  40.8456135  34.7743511   1.9949986  42.2969198  34.7757459
   8.4932584  74.1350698  39.2749047   8.2716793  74.9817133  39.6626282
   7.8308219  73.5344696  39.6165085  64.4372634   0.2258857  43.7960958
  63.9157967  -0.3112379  43.1996059  63.9120297   1.0149893  43.9290524
  16.9494605  28.2511950  11.3666606  17.1034324  29.1505027  11.0772324
  16.4855433  28.3435106  12.1988201  75.5419111  49.4678259  55.4327965
  75.5539560  49.8259926  56.3203764  76.4655066  49.3844366  55.1956129
  30.3689861  70.5860186  23.5909724  30.5030155  69.6600962  23.3886456
  30.9776282  71.0477448  23.0142593  50.3471041  33.0729127  13.1185687
  50.8827209  33.1298280  12.3273003  50.2962923  32.1357203  13.3064985
  55.2996826  33.7198019  20.5739570  55.9113216  33.5229468  19.8644662
  54.9948549  34.6078873  20.3878951   6.3824173  74.1071948  45.5201578
   7.2067495  73.6349358  45.4031897   6.5954967  74.8135391  46.1299992
  21.9144201  71.5978193  58.0339098  21.2298989  71.5963984  57.3648310
  22.1411586  72.5214005  58.1426287  23.3646131  66.6771650  31.2735796
  22.9582953  67.5093555  31.0314989  24.3053293  66.8498373  31.2352610
  63.4257317  12.9178083  31.6010189  62.8912306  12.2886109  31.1166143
  63.7500143  12.4259102  32.3554134  15.8242524  48.0716562  53.9013863
  14.9760282  48.4005022  54.1990614  16.3725376  48.0785275  54.6859694
  39.0370369   9.5150203  12.6102948  38.6827016   8.6482257  12.4119341
  39.2717266   9.8789281  11.7566407  27.4344993  69.2241716  29.3417716
  28.2661724  69.0169239  29.7679186  27.2657061  70.1365519  29.5769238
  57.8090763  20.5057335  12.4295735  58.5999775  20.9421206  12.1129119
  57.3017120  20.3256083  11.6381371  27.7627754  38.7511516  17.1151686
  27.4741912  38.6634541  18.0236077  27.1222091  38.2495475  16.6108882
  78.4262037   2.1431574   8.3333832  78.5623932   2.0483030   9.2760849
  79.1426277   2.7079052   8.0435133  18.3840191  62.6578760  62.9309750
  18.5083020  63.4982395  63.3720875  19.2561567  62.4220753  62.6147413
  30.0765944  64.5623159  45.9184837  29.2366648  64.1051579  45.9604120
  30.4889035  64.3838024  46.7636824  45.4582644   6.5833080  43.1091166
  46.3708830   6.3383609  42.9562664  45.1219320   6.8075913  42.2414684
   2.1915825  63.4287786  27.1011162   1.3705152  63.9170885  27.0408678
   2.8723577  64.1013241  27.0797563   7.4024606  50.5855465   7.5808328
   6.7001468  51.0238552   8.0613244   7.2929204  50.8786440   6.6762185
  57.2861958  29.4883227   2.6443222  57.4643469  30.0542808   1.8931991
  56.8527603  30.0603104   3.2777238  70.6337261  71.3823938  27.4698162
  70.1139927  72.1743393  27.3322248  71.1823320  71.3171339  26.6881466
  36.1988091  12.9410017  62.4161196  36.5592694  12.2821403  61.8226528
  36.2780333  12.5489843  63.2857609  24.3908787  11.1715150  26.5386367
  23.8479519  11.7172885  25.9697843  23.7944412  10.4972613  26.8640208
   9.6197850  64.3226719  35.5844736  10.3793693  64.8319101  35.3017378
   8.8686752  64.8803949  35.3819656  10.5494153  41.2523937  27.8928638
   9.8281109  41.8338013  28.1335211  11.2818086  41.8415594  27.7119899
  48.8699150   2.8100008  19.6903670  48.7125349   3.1755888  18.8198459
  49.8041821   2.6018485  19.6974051  19.9629176  67.0372295  37.6999497
  19.5968354  67.3954964  36.8913317  20.2824736  66.1690712  37.4541521
  27.0099187  33.1666636  16.1205220  26.3502860  33.4323072  15.4797816
  27.1251011  32.2283030  15.9707141  38.4321904  72.7575254  58.5505629
  38.3177924  73.2934141  57.7657270  38.4047222  73.3835554  59.2741394
  38.3343911  22.8298950  56.5938282  39.1131401  22.9744935  57.1313000
  37.7286482  22.3640466  57.1702719  21.0263753  42.9085970  29.8067927
  20.4544616  43.0266619  29.0483665  20.7841015  42.0519161  30.1584077
  33.4793806  11.9297349  60.5156708  33.7340021  11.0595441  60.8225393
  34.2225504  12.2251749  59.9897051  34.3524814  40.0378466  60.2907991
  34.3843198  39.3715906  60.9773302  33.4447885  40.3416824  60.2938175
  33.0560565  10.8511317   4.6947479  33.1633902   9.9293834   4.4600338
  32.6292610  10.8320403   5.5513179  52.8689623   4.5164341  42.9976940
  53.2655525   5.3870314  42.9659367  53.6120319   3.9136311  42.9711390
  56.8302059   3.5418305  51.0755205  57.3029041   4.1437948  51.6503525
  57.2284174   2.6877764  51.2435961  36.9833469  62.6565599  42.2178555
  37.5142193  63.4529924  42.2079515  37.5860023  61.9705629  42.5049877
  22.3848343  53.8209581  64.0785170  22.7004337  53.0525112  64.5540333
  23.1166244  54.4373322  64.1067791  73.0297184  50.1188803  29.0611196
  72.8305578  50.9741259  29.4420695  72.2271347  49.8675108  28.6040545
  20.2417183  64.8253679  42.9717255  19.6503687  65.2011967  43.6238670
  19.7338080  64.8240137  42.1603918  43.4165859  12.3332477  55.8524179
  42.9592609  12.9758739  56.3947439  44.3450928  12.5035739  56.0108328
  58.2751322   4.4694701  48.3932543  58.2592201   3.6329246  47.9283142
  58.1391048   4.2357823  49.3114710   1.2708023  57.0260239  38.9858937
   1.4117683  56.9347286  38.0435419   1.9601154  56.4942932  39.3838096
  22.4954128  64.8171282  44.3415833  21.8912578  64.9572039  43.6124706
  22.3791742  65.5858088  44.9000168  29.3735838  61.9752312  20.7021284
  28.9050627  62.3100281  21.4667392  29.1559982  62.5887203  20.0003338
   8.4509915  61.2541628  59.6880436   9.3771458  61.1324549  59.8969889
   8.1965286  62.0378351  60.1752186  31.1845374   5.1550436   8.1606621
  30.2530527   4.9350336   8.1734818  31.5386510   4.6549889   7.4252832
   2.8619394  68.4630156  30.0475264   2.7517787  69.3986797  30.2167439
   2.5470898  68.0367613  30.8446503  18.0948782  52.4085999  21.1257124
  18.2085168  52.3205137  22.0720530  18.4258878  51.5851736  20.7670569
  48.6326742  63.2464552  51.3199377  48.7911654  62.3387861  51.0606146
  48.1629324  63.1795073  52.1512604  52.0182657   1.4752021   4.3560138
  51.5614653   1.1142227   3.5962379  51.7799664   2.4022539   4.3605787
  43.6259460  55.2862549  13.0043983  44.1067123  55.4514647  12.1933460
  43.5272932  54.3346405  13.0347502  16.0088968  72.6308298  27.7222490
  15.7025456  73.5367203  27.7639818  16.5886998  72.5390005  28.4783101
  32.2099304  68.1421280  47.8539467  32.7108192  68.9120197  48.1233978
  32.3542356  68.0809450  46.9096661  73.2336569   6.5490258  30.5601811
  72.5419235   6.3206643  31.1811399  73.5902739   5.7066041  30.2784371
   9.2112011  67.8240347  47.7726173   9.5814294  68.3280039  47.0479250
   9.9482495  67.3167944  48.1127644  49.0289068  23.9195585   3.0353132
  48.1840181  24.2161560   2.6970398  49.5133877  23.6405540   2.2583550
  13.3664751  62.8374529  58.2429934  12.9277003  62.3957634  57.5159311
  14.2858756  62.8767824  57.9795742  10.0354064  19.2087662  11.0339081
  10.1873565  18.4012997  10.5428481  10.6902122  19.1914463  11.7318773
  45.2652788  72.1846533  18.8768137  44.8119974  72.9433441  18.5091805
  44.5660210  71.5638018  19.0813231  75.0717878  58.6059475  13.2150388
  74.8236227  57.7082300  12.9942465  75.9723139  58.6894989  12.9015052
  37.6778674  51.1920691  21.3237715  37.0255399  51.7748117  21.7125034
  38.2361412  51.7703295  20.8039832  72.4921751  56.0683393  27.2046256
  73.3196831  56.4633179  26.9299555  72.6892519  55.1357269  27.2919369
   3.8372681   2.6334020  42.8173876   3.8066366   3.5255951  42.4720097
   4.6597824   2.2753964  42.4834204  14.1784406  67.6752329  50.4762316
  13.9403975  68.6022329  50.4609776  14.6721709  67.5413847  49.6671915
  48.5210180  14.9673629  62.8944635  47.5765705  14.8686182  62.7740288
  48.7165308  14.4590461  63.6816216  55.9579659   6.6875446  27.1956205
  55.4711533   6.0238278  26.7070270  56.1928749   7.3436898  26.5394783
  35.9885335  58.5120153  18.1046283  35.1790452  58.1128836  17.7857947
  35.9744263  59.4000959  17.7477670  79.1012669  73.9032650  55.3996801
  78.9399576  72.9986811  55.1314735  79.2446375  74.3744898  54.5789337
  11.7848170  68.4354925  52.1788406  11.9097853  68.1139088  53.0716991
  12.2619033  67.8123331  51.6308498  32.1594405  65.9502554  36.0198426
  33.0963254  65.7643127  36.0823536  32.1016645  66.6879892  35.4126835
   5.7716447   5.2724588  21.7718792   5.6900817   4.3744701  21.4506388
   5.0841260   5.7545769  21.3124108  11.5429831   0.4169069  19.7843754
  11.5244961   1.1210541  20.4325008  12.3130858  -0.1020569  20.0164342
  45.2498865  11.3875079  17.5228918  44.4279671  11.4959776  18.0013454
  45.7023191  10.6795108  17.9814494  50.1341295  32.2548056   0.3809926
  50.9182978  31.7061591   0.3984487  49.7578526  32.1627164   1.2563005
  41.8094635  22.6669645  61.2111998  42.4404478  21.9638824  61.3653755
  41.4686346  22.8777838  62.0804644  68.9536476  10.2261221  39.2447472
  68.4427881   9.4170755  39.2711091  68.9902925  10.4561031  38.3163071
  66.6892385  17.9169834   6.0264212  66.9054127  16.9845963   6.0388499
  65.7939911  17.9508102   5.6893498   3.9422962  45.3698921  18.8713276
   3.6714095  44.8679447  19.6400273   3.7048203  46.2735081  19.0794456
  23.8361335  58.1051302  54.6586847  24.3906569  58.8640881  54.4778061
  22.9900551  58.3288240  54.2709398   8.7177759  62.2989893  44.2343140
   9.2620212  62.0647812  44.9860954   8.3839709  63.1715250  44.4428396
   7.3497826  33.4150791  12.1554041   6.5316904  33.7802267  12.4924874
   7.1585679  33.2019997  11.2420225  31.7310596  47.2726536  52.4886465
  31.9517446  47.3657322  51.5618992  30.7890224  47.1030569  52.4946690
  71.9959927  70.8940840  32.1569300  71.7550945  70.9214020  33.0829167
  71.2782192  71.3421345  31.7093968  40.9797573  65.4431868  56.5487385
  40.5914450  64.6178389  56.2584877  41.9097042  65.2447987  56.6586208
  31.1955285  55.0119495   1.5295625  30.7583976  54.3710327   2.0902532
  31.9927144  54.5701218   1.2371369  34.4831586  66.2405777  57.9438496
  34.3081093  66.5867138  57.0687628  35.3869557  66.4974308  58.1266403
  79.3386201  73.2151794  30.3871369  78.5270477  73.5606384  30.7589436
  79.4795191  73.7345314  29.5955253  21.2067676  60.1240921  15.4280186
  21.2902999  60.7770681  14.7331250  20.3383017  60.2792978  15.7993841
  69.0614080  10.4770362   6.3547695  69.4949102  11.3282526   6.2936324
  68.9639235  10.3248608   7.2947544  14.9406493  68.2925844  62.7557468
  15.6651115  68.1680918  62.1426535  14.2296398  67.7612734  62.3974180
   7.2797805  23.9683676   4.8857918   7.6973718  24.8210669   5.0072438
   7.1238095  23.9101458   3.9431810  72.1185398  14.8034263  40.1246548
  72.0574856  14.1604614  39.4181871  71.2290287  15.1452482  40.2149534
  20.0410295  25.9112477  13.8013208  19.7066319  26.5331984  13.1551099
  19.8478460  26.3169193  14.6465087  65.0827483   0.8445772  32.4604750
  65.2545933   0.1397403  31.8360496  64.6223287   0.4175743  33.1829119
  44.0895891  48.5405636  63.7358809  44.1007280  49.4966650  63.7803793
  44.9082422  48.3117199  63.2957983  52.5131512  40.2505541  54.7976065
  52.5272655  40.0982904  55.7425117  53.4185028  40.1125050  54.5192051
  49.7099543  69.3343639  36.6666293  48.9415884  68.7838650  36.8176246
  49.7643280  69.8884964  37.4452257  14.5494938  11.1409843   3.8130403
  13.7769294  10.8193743   4.2777365  15.2167118  11.2336612   4.4930860
   1.7632331  44.4481850  63.5128450   0.8573449  44.5598030  63.8011837
   1.7879002  44.8444128  62.6418543  27.5772190  49.8263597  17.7296400
  26.8009949  49.7179747  17.1801281  27.2677994  49.6515036  18.6184132
  21.0699177  37.0719433   5.9455973  20.3068900  36.9551969   6.5116292
  20.8612275  36.5723920   5.1562113  75.7307339  47.6289320  30.8744931
  76.0277033  46.8272877  31.3050818  74.8069715  47.7016354  31.1145163
  28.3542848   9.0433055  58.5440731  27.9190564   8.2960933  58.1336021
  28.8213205   9.4720411  57.8269291  25.1029110  53.7168932  44.5780611
  25.0652432  53.7265778  45.5344725  25.9961510  53.9914417  44.3707514
  47.5024223  60.0266552  55.1958370  46.6930771  60.5205297  55.3273153
  47.2863007  59.1353321  55.4698133  55.3444338  11.9707751  40.0592709
  55.9878826  11.3031852  39.8215055  55.3839159  12.6066673  39.3449044
   5.0295645  68.3160448  32.9685378   5.8513558  68.5937500  33.3732247
   4.6941683  69.1045856  32.5419927   9.4339037  44.4186354  55.6472683
   8.7740159  44.8240137  56.2098074  10.2703404  44.6873522  56.0272646
  23.3036947  52.5852156  40.6431103  22.5828242  52.4393940  41.2557364
  22.9495120  53.1970215  39.9977517  25.3885365  61.0944557  35.5384231
  26.2781167  60.7414961  35.5555677  25.3844810  61.6976738  34.7952199
  76.6662073  43.4764433   0.0291058  76.4805508  42.5515270   0.1912775
  76.2317896  43.9373541   0.7467908  14.7960353  28.0113816   9.4406587
  15.5238247  27.8422093  10.0389349  14.0158439  27.9642248   9.9932081
   3.5996684  14.0781999  27.9999161   2.9837286  13.8609397  27.3001695
   3.3999726  14.9878848  28.2208848  43.8818121  65.9957838  34.4717216
  43.2176161  65.3378868  34.2661786  44.5371437  65.8984995  33.7808514
   3.7577069  44.2912054  21.3863993   3.8725147  43.5049152  20.8527303
   2.9808882  44.1101933  21.9155693  21.7032146  52.8596592  22.8151155
  22.1314931  52.8609037  21.9590712  22.1094346  52.1314192  23.2851005
  59.1172981   6.1531067  32.1556449  58.4511423   6.5499771  31.5944266
  59.9494600   6.4200026  31.7651320  15.9073520  15.5724120  38.3563638
  15.2113843  16.1057496  38.7403059  16.7048085  16.0833621  38.4950113
  73.1206465  48.5912609  60.1429939  73.8634586  47.9900503  60.1978445
  73.4373474  49.4005060  60.5443048  45.9138155   8.6513293  37.7722025
  45.0265121   8.6960471  37.4159408  46.3945341   9.3340170  37.3041415
  48.7895155   5.1932257  58.8578558  48.4765720   4.5486033  58.2232237
  49.0555239   4.6731836  59.6161604  52.9137373  16.4954031  10.1660252
  52.2755051  15.8797383  10.5263770  53.3507395  16.8640912  10.9337032
  49.4735336  11.8657815   0.6708423  50.2932453  12.3329198   0.5093246
  49.1431952  12.2374594   1.4887446  14.3645406  26.7775464  61.7189312
  14.2853701  26.5089655  60.8036041  15.2693594  26.5697789  61.9521046
  29.9154139  13.4598887  32.4071980  30.7281518  13.8521481  32.0881033
  29.2610812  13.6963940  31.7498183   1.0054459  42.0287371  11.4618862
   0.9033716  42.7179146  12.1182752   0.4101541  42.2803831  10.7558179
  44.5845175  57.5963449  15.8874285  45.5275488  57.5040817  16.0231173
  44.3711138  58.4509468  16.2620592  67.1620893  46.0261011  23.0385280
  66.2799597  45.6620598  22.9640603  67.0232153  46.9480896  23.2550430
  28.3585095  56.6219139  63.7157869  28.9325452  56.9386053  64.4132233
  27.8123212  55.9587049  64.1377687  25.6267095  25.1108313   6.8009007
  25.9725642  25.0313807   5.9119105  26.2093687  24.5697832   7.3338234
  50.3108883  67.5422144  32.9924083  50.3404188  68.2699728  32.3713422
  49.4318008  67.5840902  33.3688188  59.0923357  22.8342843  15.3964841
  59.1017580  23.6677313  14.9258363  59.7825098  22.3169994  14.9813890
  60.8364058  26.4425182  25.7937217  61.6189241  26.0617566  26.1923695
  60.6242704  25.8519149  25.0709367  65.9302807  45.1290989  12.9703033
  65.8750772  45.2569103  13.9173245  65.0210238  45.0275755  12.6889169
   6.1263472  32.5969243  22.4935246   6.0011107  32.2756028  21.6006088
   5.3015506  32.3990917  22.9371524  18.1672311  22.8399515  46.7247581
  18.0885017  23.2595682  47.5814676  17.4239516  22.2382283  46.6835690
  20.1190257  64.8854828  52.9783726  19.4847119  64.3250179  52.5314331
  20.0610423  65.7245636  52.5214148  23.7847972  37.2869587  62.4531364
  22.9152298  36.9822884  62.7124834  23.8849926  36.9849968  61.5503550
  47.4724770  73.7196922  19.7097421  46.8037796  73.0737591  19.4820404
  47.2892141  73.9426184  20.6224036  60.6323624  59.5106077  56.9113541
  60.5918741  58.6166906  56.5714979  60.5466700  59.4105053  57.8594398
  56.8542433   6.8376869  37.0317864  57.0308638   7.3787606  36.2621927
  56.7038345   7.4667263  37.7374196  62.8800344  42.0054483  50.1919317
  63.2312298  41.2044573  49.8029470  62.5305748  41.7273045  51.0385418
  40.8239794   7.3252177  25.6514192  41.5122938   6.6705054  25.7689166
  41.2701797   8.0732501  25.2544498  71.7195702  63.7447596  60.7085466
  72.6168871  63.8352299  60.3878212  71.8098211  63.2963181  61.5493727
  31.3445425   7.3241365  45.2505589  30.8796382   7.3491424  44.4142151
  31.9789672   8.0386060  45.1933813  28.2440519  17.5770724  47.5237751
  27.4576735  17.0465827  47.6519203  27.9523635  18.4769464  47.6699781
  27.0960999  42.7401781  21.0791111  26.2884808  42.7223206  21.5925956
  26.8129683  42.9753160  20.1954937   4.2774925  13.9089882  40.1965284
   4.2765215  14.6745121  40.7711601   3.3942330  13.5487485  40.2759790
  76.3822603  28.4014654  20.0926137  75.8676672  27.7578187  19.6056390
  76.0514259  29.2484260  19.7935486  69.9647903  18.7003446  28.6852908
  70.0865221  17.9596090  28.0913854  70.8106041  19.1484869  28.6857414
  24.5557833  67.1261406  57.2699404  24.2690778  66.2148905  57.2095299
  24.0666008  67.4824762  58.0115318  74.7872925  19.4476390  59.9303055
  73.9820480  19.3256819  59.4273806  75.4865408  19.3985701  59.2784739
  28.5801864  53.3281231  12.0337725  27.8277707  52.7364349  12.0362794
  28.4178400  53.9251328  12.7641499  53.9020538  20.1803350  22.7631211
  53.9991379  19.7228467  21.9279504  53.1276274  19.7855091  23.1638813
  64.4400978  26.5646386  16.9801879  63.7509394  25.9317017  16.7784858
  64.9349880  26.1608171  17.6931000  76.0127497  29.8470879  34.2081046
  75.8718395  29.1165924  34.8103905  76.6033363  30.4351521  34.6788740
  30.7472801  32.1219540  14.6444404  31.6893029  32.0882273  14.4780385
  30.4846478  31.2047029  14.7213054  60.8966446  72.1763706  17.9816139
  61.2683296  73.0176163  18.2469285  61.4758015  71.8677235  17.2847998
  14.9544597  43.7493849  51.5087080  15.0736880  44.6927738  51.6184330
  14.0733504  43.5790014  51.8416452  77.7232504  31.8278694  46.6260576
  77.8991985  32.7082586  46.9580030  78.5196543  31.3343763  46.8221188
   7.3785502  33.6203861   8.8328677   6.4478856  33.6867714   9.0466148
   7.6643097  32.8107190   9.2559648  67.9206228  22.1373510  17.5350642
  68.6284924  22.7084470  17.8333926  67.1218681  22.5638318  17.8454387
  48.2722759  68.2250643  52.3083687  48.8539362  67.5299692  52.6161814
  48.8627481  68.9137840  52.0030212  47.1293974  20.8839393  58.6609125
  47.1200562  21.6014171  59.2944479  46.4782906  20.2646685  58.9907551
  67.1340132  14.3293715  12.6084077  67.0208645  13.4988463  12.1461761
  66.7511511  14.1767573  13.4723270  63.5956860  19.9074721  16.7409813
  63.1163883  19.1825998  17.1423113  64.3630457  19.4961452  16.3432372
  26.2051892   9.2161882  26.4141798  26.2174177   8.9556533  27.3351598
  26.0327530  10.1575232  26.4338303   6.0043913  28.3438444  51.1980677
   6.0977989  28.6009598  50.2807903   5.2648467  27.7361536  51.2023592
  71.0061312  20.6945777   8.2090402  71.2775517  19.8135686   8.4666944
  70.2794218  20.5534577   7.6022398   4.6797836  17.0526636   2.2582640
   4.2690453  16.2042463   2.0917889   5.5766976  16.9511747   1.9397086
  62.6978254  61.4679098  37.4464440  62.3916960  61.3574934  36.5462637
  62.1867514  60.8362246  37.9524159  61.6666985  11.8018472  29.8392701
  62.3383188  11.9671440  29.1775823  60.8911610  11.5530407  29.3364096
  61.7288065  11.0680807  21.9315672  60.8534765  11.4496481  21.8649387
  61.5744781  10.1564753  22.1793413  73.5890961  30.1003551  41.9666100
  72.9126358  29.5166850  41.6231537  74.4017410  29.6019077  41.8806267
  50.7016850  20.6028104  50.9982061  50.0752544  20.1717353  51.5795755
  51.5529871  20.2540398  51.2625408   9.4179547  62.7006054  29.9977469
   8.6053723  62.9230690  30.4521179   9.4109571  63.2480955  29.2126107
  51.0099077  58.6487770   0.5560128  51.2079144  58.8161230   1.4774352
  51.8338013  58.8186169   0.0993039  53.6281538  51.8505192  23.2224965
  53.3236027  52.4851322  22.5738478  54.5729446  51.7959166  23.0789208
   5.9481686  22.6608229  21.9205117   6.5496653  22.6486230  21.1760092
   6.3184839  22.0300746  22.5379705  71.4589024  54.8380613  16.3993526
  72.0904493  54.1689968  16.1352789  71.5908146  55.5516148  15.7751155
  45.3063107  14.3119335  13.8989377  46.0493851  14.7258186  14.3379915
  45.2707100  14.7330201  13.0400717  12.7397609  31.0689569  33.4339356
  12.1792912  30.4506612  33.9027834  12.9550004  30.6233406  32.6145887
  75.7326603  32.2399616  39.4835424  75.5775356  31.3489342  39.1701126
  74.8773098  32.5369620  39.7940207   5.7838863  40.0413752  62.3006535
   5.7232469  40.0545740  61.3454628   6.7194945  39.9480486  62.4799824
  20.5711102  37.3209620  35.7239795  21.4371967  37.2248602  36.1200738
  20.0374365  37.7227068  36.4095616  28.7470770  31.1393642  12.2423303
  28.0151534  31.3671732  11.6690743  29.0408802  31.9771767  12.6000762
  23.6565852  55.5163431  33.7286210  23.2904625  56.1942530  33.1606197
  24.6026182  55.6570101  33.6903405   6.3277990  38.3914924  57.9833651
   7.2765625  38.4813762  57.8939152   6.1118859  37.6114178  57.4723864
  55.2434444  36.3627338  48.2265902  54.8511934  35.6886578  48.7815666
  56.0714960  35.9810853  47.9351997  71.5019512  27.2941542  32.6693392
  71.6852093  26.9169664  31.8088865  71.1425447  28.1607366  32.4793601
   6.4814216  27.7536011  29.3485260   6.4676100  28.0929255  30.2434564
   5.7944858  27.0871544  29.3344402  30.1899767  46.8166590  35.9229302
  30.0476265  46.3909292  36.7683434  29.5822477  47.5561810  35.9218240
   1.2090956  15.9581804  10.5259418   1.8247801  15.2265108  10.4832375
   1.3399002  16.4296067   9.7032142  60.4642057  57.9917240  46.8771553
  61.0053349  58.3633471  47.5737953  59.7232914  57.5949526  47.3352480
  15.3126955  44.6579313   9.6877581  14.6207821  45.0574732  10.2148795
  15.7393956  45.3963900   9.2532033  45.2355194   3.7970847  52.4726820
  45.4956341   2.8788757  52.3987532  44.3654919   3.7682542  52.8707457
  75.3031969  47.2121763  60.4111052  75.1468420  46.6179323  61.1450386
  75.8587599  47.9014206  60.7751417   9.7396719   9.4194961  22.5094461
  10.1268673   9.1778904  21.6680551  10.4592717   9.3406892  23.1357026
  65.0219393  34.2786145  43.0522966  64.4564676  33.5606456  43.3368874
  65.8981657  33.8947296  43.0192709  49.3838596  60.1744843  21.6094446
  48.6971092  60.0573683  22.2658706  50.1960754  59.9723768  22.0738649
  71.2496090  35.6766367  53.7937260  71.6662645  34.8175788  53.7255859
  71.9760513  36.2988210  53.7562752  11.0299897  40.0661802  13.2840943
  10.3347969  40.7022762  13.1158102  10.7385206  39.2697811  12.8402126
  71.2633801  18.3677232  34.3081927  72.0186758  18.9549673  34.3383265
  70.8551502  18.5458469  33.4609318   4.5589989  11.2318659  29.5149779
   3.6978659  11.2907958  29.1012025   5.1439190  11.6987622  28.9182281
  66.5952730   9.2609608  53.9680529  67.4988317   9.5684749  53.8956213
  66.0692549  10.0606692  53.9665604  17.0103729  17.3041582  25.7809496
  16.5243363  17.7990901  25.1213717  17.6831698  17.9115772  26.0885525
   2.2025786  47.9142714  58.6180210   1.2554857  47.9870605  58.4999180
   2.4195009  48.6042929  59.2449522  20.7116246  40.2597380  30.7577944
  21.5747380  39.8654842  30.8836222  20.2263808  40.0320339  31.5508389
  65.4907799   3.0733749  41.7462873  64.9111128   3.8052496  41.5351534
  65.6048918   3.1242797  42.6952934  73.5439777  41.1233902  46.3926554
  73.8173437  40.9533119  47.2940826  73.5253906  42.0779514  46.3240671
   0.9222630  44.1380739  38.7271452   1.1285394  44.4180870  39.6189260
   0.5850486  44.9258947  38.3006954  13.5119116  59.3769550  22.2893190
  13.3449495  58.6882639  22.9327917  13.0206525  59.1047335  21.5142107
  24.7978592  29.8497725  53.6665821  23.9286017  30.2287698  53.5362673
  24.6546412  29.1260839  54.2764950  70.6490135  24.3214321  33.2227945
  70.9073257  24.8243856  32.4504328  70.1658535  24.9454856  33.7644124
  13.0649650  27.8287697  11.4889216  13.7128043  27.4551797  12.0863891
  12.5487268  28.4212613  12.0354402  67.8370953  35.1939845  38.5587978
  68.7288666  35.0312781  38.8662100  67.9496336  35.5720830  37.6866698
  27.0006037  15.1311982  26.3703012  27.2185254  15.6124604  27.1685052
  27.6063299  14.3900549  26.3645673  33.3907580  18.5056281  26.2126303
  33.5736108  19.4015491  25.9295678  32.7486753  18.6029518  26.9158292
  68.1785965  38.8370156  56.9392300  68.8943911  39.3680334  56.5901136
  68.1060791  39.1052365  57.8552151  23.9290643  74.1111279  60.7486916
  24.0978503  75.0475025  60.6440687  24.4412994  73.8598347  61.5172625
  57.9399061  17.4372363  36.6141415  58.3877516  17.6657045  35.7996058
  58.0047560  18.2260275  37.1525049   2.7275774   3.5604635  34.6465755
   3.2977799   2.9746705  35.1445198   3.3105081   4.2509937  34.3309951
   5.1445764  53.3545971  19.9662936   5.7550591  54.0539551  20.1996231
   5.6016421  52.8530359  19.2911935  73.2504988  15.2963948  48.6703682
  74.1795301  15.4650640  48.8274670  73.1541014  15.3535378  47.7197504
  67.6341248  54.6956635  34.3870902  66.7044020  54.5314074  34.5447826
  68.0642366  54.4404125  35.2032280  57.2599554  31.9777346  55.9053946
  56.3349199  32.1044111  56.1163235  57.2623634  31.7209053  54.9832964
  16.5670109  30.0908852  13.5789871  17.4352634  30.4834747  13.4882092
  16.0006559  30.8187342  13.8353240  11.2141573  25.6227517  31.3612342
  11.4052486  24.6962738  31.2151027  12.0743799  26.0357094  31.4368296
  55.1774645  24.5107222   2.6191789  55.4027224  25.4410386   2.6172906
  55.9657860  24.0740681   2.9418489  14.1648769   1.9841616  20.3840017
  14.0315938   1.0725562  20.1243019  13.6628497   2.0784386  21.1935139
   9.7515541   5.7146227  17.5114167   8.9837706   5.2493542  17.1793544
  10.3606379   5.0211763  17.7651501   1.3178739  32.9066086  37.4873829
   1.0807973  32.5705862  36.6230249   1.8826462  32.2299600  37.8607631
  21.5167332   1.3670118  45.3088808  21.4817619   2.2742857  45.6119680
  20.6447339   1.2002485  44.9510527  72.8342915  43.9089441  26.0940194
  72.9221344  43.5384464  26.9722271  71.9910812  43.5827255  25.7796812
  26.8956947   6.2615311   8.8087428  26.6010690   7.1459609   8.5914594
  26.0878205   5.7590264   8.9139074  11.3837171  18.5717523   8.6578345
  11.2055027  19.1025054   9.4342184  11.7446434  17.7553654   9.0034908
   3.7335610  55.9273338  17.2699356   3.0922955  55.2303123  17.1314597
   3.6256009  56.1730337  18.1887436   3.9460811  63.5313606  41.5218401
   4.3088886  63.8019848  42.3652649   3.4541100  62.7339220  41.7175102
  67.8921938  34.8082447  29.5793653  68.5348368  34.2775297  29.1086435
  67.6601124  35.5043650  28.9647222   3.6623907  18.2337999  30.8947182
   3.1020311  18.0246103  31.6420245   3.7955862  19.1799164  30.9526515
  19.8863816  44.9025583   9.3226314  20.6729317  45.0752211   9.8400843
  19.6101677  45.7647038   9.0117550  57.3294973  12.8807664  60.2319479
  57.1723843  13.8187850  60.1239300  58.2016039  12.8274488  60.6228685
  14.2376041  30.9189558  22.0127439  14.6867740  31.3526964  22.7382421
  14.1347742  30.0124359  22.3023677  10.1115298  37.3110247  62.5350571
  10.7929945  36.6481924  62.6468277   9.3158507  36.8090820  62.3584795
  63.1833172  19.5477545  35.0013518  63.7260485  20.2157807  35.4201746
  63.4285069  19.5849872  34.0768385  24.1358328  20.0656819  31.7162633
  24.5449495  19.2006874  31.6909695  23.8384843  20.2163243  30.8189774
   7.0779383  32.9507637  45.5980778   6.2274027  32.8630042  46.0283327
   7.6383781  33.3609462  46.2567806  48.3005953  72.8593731  14.1539657
  48.7133026  73.3407497  13.4369016  48.4272289  73.4174824  14.9212384
  55.1696968  68.0576515  28.7251353  54.2397118  68.0519772  28.9516926
  55.6150198  68.2660770  29.5464015   6.9491410  53.5088253  34.1397142
   6.8057746  52.5727606  34.0002036   6.1350751  53.9214373  33.8511300
  23.9114046  22.9484773  50.8218145  23.6593366  22.2280264  51.3994360
  23.5523462  23.7296724  51.2425852  26.5688396   4.8595807  29.2090702
  27.0509458   4.8173031  28.3832264  27.0685363   5.4737687  29.7469449
  24.9377489  25.7576609  16.8180692  25.6349611  26.3222742  17.1517408
  24.5280147  26.2696528  16.1207783  52.4682760  14.5750034  37.2929072
  51.8942404  14.4078815  36.5453887  53.0407429  15.2845860  37.0013499
  71.1679173  11.4157975  17.5282800  71.1454296  10.5705643  17.9769528
  71.7998314  11.2940836  16.8196881  74.6938086   3.3921537  38.9967346
  75.2197599   3.8481176  39.6537781  74.2026806   2.7385348  39.4945359
  30.3181219  34.0240288   1.6436577  29.8532653  34.8249793   1.4015490
  30.9777951  33.9136696   0.9589069  50.3862810  37.2971702  14.1369152
  50.9338903  37.7435803  14.7827280  51.0064507  36.8184423  13.5869682
  31.6056395   9.7432649  25.3585887  31.5349793  10.4591227  25.9900832
  32.1292377  10.1052964  24.6437359   0.8859719  41.6465616  29.4498873
   0.0180427  42.0432806  29.3754339   1.1784310  41.8741322  30.3324461
   3.7497246   6.1777925  34.9481511   3.4638897   6.5190572  35.7955408
   3.9737526   6.9570065  34.4393611  64.7282410  28.2535315  49.6482325
  64.1127539  27.5349808  49.7934723  64.5194864  28.5740423  48.7707806
  72.1855783  28.0471945  40.5138922  71.5823460  27.4072075  40.8917189
  72.8186607  27.5205994  40.0258970   3.4544075  45.9580517  36.1359835
   4.1895875  46.1360025  36.7225623   3.8025749  46.1209393  35.2593541
  55.4179335  73.5049009  21.5601826  55.7825851  72.6300097  21.4266372
  55.5391741  73.6748838  22.4943328  62.3657370  11.7767847  25.2374911
  61.6525841  11.1478436  25.3473997  63.0252743  11.3046408  24.7292399
  17.7542758   3.5391083  35.4890370  17.7967536   4.3654811  35.9702182
  16.8431675   3.4752932  35.2026105  28.0002189  49.9597645  29.7294331
  27.3005724  49.9711800  29.0762877  28.7960505  49.7911358  29.2250037
  60.3770447  38.3061671  40.0566673  59.6460676  38.3311510  39.4391918
  60.5102777  39.2203355  40.3072166  59.4841051  31.4618778  13.8717413
  59.6986341  32.3256278  14.2240822  58.9332342  31.0593939  14.5431435
  10.3768635  53.3957863  41.7077923  10.7326317  53.7182379  40.8797312
  11.1033416  53.4718466  42.3264027  16.8143058  33.0741882  22.5019002
  17.6896000  33.2802558  22.1738315  16.3097596  33.8746762  22.3573852
  78.8190515  54.2781115  27.0064878  79.2187636  53.4320545  27.2081041
  78.6676728  54.6812820  27.8613377  30.1654768  56.4132595  37.4668527
  29.2512536  56.6442633  37.3023415  30.1447678  55.9250069  38.2899022
   4.5214388  54.4146299  32.3798704   4.7532034  55.3181982  32.1652055
   4.1731089  54.0562963  31.5634799  70.7971954  70.2837515  16.7890787
  70.4359674  69.9057388  17.5908577  70.1399803  70.9199286  16.5069807
  35.0692344  56.1212587   7.4479467  35.0468183  55.5565882   8.2205272
  34.2553854  56.6229868   7.4942952  29.6644759  57.1940994  15.4703200
  28.9558315  57.2927141  16.1061919  30.2903628  56.6095972  15.8979380
  12.6708817   8.3178800  49.7307539  13.3389878   8.6729282  50.3171062
  13.1655324   7.9538828  48.9965487  16.6678806  74.4138608  29.7069216
  16.3550087  75.2907808  29.4847608  16.5068098  74.3331192  30.6470108
  48.3560133   0.5730866  55.1307631  47.6394224   1.2022898  55.0481176
  48.3680725   0.1122666  54.2918777   2.6653907  42.2465563  25.2118421
   1.9964033  42.9063129  25.0290561   2.2201610  41.5990210  25.7583785
  15.3658223  50.0007105  37.1388888  15.1800847  50.6771755  36.4876366
  16.3214278  49.9586582  37.1746969  43.1154823   2.1203683  44.4806480
  42.2293043   2.2695370  44.1509914  43.5409117   2.9756442  44.4194746
  29.0848804  41.8858051   6.9222838  28.3956003  42.5131607   6.7042220
  29.8708844  42.2391367   6.5056509  40.4110575  50.6075287  52.5341606
  40.4241562  50.1911545  53.3959579  39.9744701  51.4467478  52.6802349
  11.4329112  61.7136097  24.4394803  11.1555719  61.1823082  23.6931324
  10.9429801  62.5307131  24.3470454  33.1465173  47.8001738  28.9903522
  32.9110551  47.4166965  28.1455231  33.0429268  48.7431335  28.8625741
  74.2260265  52.0703554  24.7220206  73.8254499  52.8235054  24.2878151
  74.8618698  52.4527740  25.3267431   9.0931964   8.7744129  29.2819715
   8.3355403   8.3757424  28.8538933   9.5516187   9.2337739  28.5783601
  73.5735464  68.1023073  60.7393122  74.1419935  68.0786037  61.5090752
  72.7922344  68.5709238  61.0328817  26.9193172  12.2442305  24.7554255
  27.8570986  12.2319591  24.9468613  26.5002775  12.0788109  25.5999804
   4.3192258  11.9599926  21.6960311   4.9891222  11.7343056  22.3414278
   4.6875322  11.6762924  20.8593154  78.1026316  49.7355747  22.4196076
  78.5090590  48.8693142  22.3942447  78.5820818  50.2443171  21.7657447
  17.5077975  59.3530083  45.3307390  16.8024862  59.9385834  45.0552940
  18.0534029  59.2517900  44.5508051  13.9008486  47.3688412  29.7628021
  14.8240972  47.2355127  29.5481658  13.4520364  46.6237736  29.3632150
   1.0525288  64.0984821  44.2136574   1.5490985  63.9156675  45.0112963
   1.6150495  64.6877432  43.7110901  35.1214647  28.6387110   8.6453176
  34.2339301  28.5017991   8.3140051  35.5404210  29.1921973   7.9862577
  57.1049023  68.6902046  15.9564471  57.6644278  69.1228914  16.6013849
  57.1915150  69.2247868  15.1671755   8.8584358  67.0100164  27.6432276
   9.2062414  67.6942968  28.2150865   8.6611044  67.4612188  26.8224311
  27.1197796  53.8018322  39.6623635  26.4751124  54.2396927  40.2181625
  27.0156002  54.2136669  38.8045931  65.0743866  12.0703995  60.6671906
  65.4419518  11.5440702  61.3771963  64.5442057  11.4541066  60.1619005
  18.5519278  29.5558786  28.4371829  19.2966378  29.6744704  27.8476286
  18.6015522  28.6379862  28.7041020  65.2425480  31.3336396  50.5761814
  65.7409048  31.9182420  50.0051165  65.8650541  30.6483889  50.8193970
  38.7481022  69.0759659   2.6490232  38.3747458  69.8003864   3.1510636
  38.0486250  68.8137722   2.0505106   1.1843717  40.6700373  26.7616200
   0.2823494  40.5073071  26.4857435   1.1031897  41.0351706  27.6427102
  62.6879168  73.0205393  62.7241850  63.2400656  72.2923183  62.4394703
  61.8233299  72.8199577  62.3657370   4.5205867  28.1009650  10.9317374
   4.4925138  27.1451116  10.8894765   5.4516649  28.3101726  11.0062861
  23.3897948  37.1833801  36.8275428  23.2399321  38.1106877  37.0115852
  24.0438080  36.9138551  37.4724150  56.4722395  37.7852535  44.5926285
  56.7570686  38.3412433  45.3178740  55.6245565  37.4406767  44.8735857
  79.2887497   4.0612891  54.9681711  79.9674273   4.4452885  55.5233049
  78.5362339   4.6436134  55.0723600  10.4499054  60.5376720  28.7489176
   9.7582358  60.2839899  28.1377959  10.0174809  61.1233902  29.3703461
  13.5110521  45.9237909  32.6810598  12.8282976  45.5623913  32.1158457
  13.0328333  46.4000225  33.3598423  66.8025017  20.3623056   4.1071025
  66.1777496  20.9926367   3.7484995  67.1969128  20.8139753   4.8532027
  56.5761566  69.0509987  44.2490768  56.4588022  69.9999380  44.2046595
  55.7713127  68.6923647  43.8751221  60.0258255  35.8185053   7.2804308
  60.8469820  35.6519127   7.7432257  60.2440023  36.4979982   6.6425276
  47.5796318  72.5100899  52.1500397  46.7693281  72.9296970  52.4391270
  47.8129005  71.9202805  52.8669357   9.7532493  34.2392850  17.2815073
  10.5645406  34.7126055  17.4659121   9.6733785  34.2633247  16.3279486
  22.5745535  29.8959327   8.4329194  22.1699047  30.6513858   8.8592786
  22.1597624  29.1378903   8.8446862   0.9280701  44.4312477  18.6155045
   1.5422070  44.5368671  17.8889287   1.2252013  43.6414719  19.0673876
  21.5697479   3.4255880  35.7393742  21.8812823   2.7388257  35.1498508
  20.7919621   3.0513719  36.1531854  21.2316275  67.5579357  44.9044561
  21.2839437  68.1271505  44.1366720  22.0468235  67.7204466  45.3790903
  22.4913716  15.7627177   1.4646097  23.0793381  15.1380098   1.8891875
  22.1210122  16.2713814   2.1859473  73.2972527  57.8211927  62.4601698
  73.3565331  57.9893208  63.4006214  74.1111517  58.1752539  62.1017885
  13.6073172  68.7542009  45.3097820  13.3712280  67.9832983  45.8257294
  12.8581846  68.8932371  44.7303820   9.7667068  38.2104278  45.7365894
   9.1396296  37.5280094  45.4971933   9.2246652  38.9712930  45.9451771
  32.7681279  57.2076082  14.2877877  32.6580024  56.2657213  14.1575956
  32.1104312  57.6066446  13.7181938  23.8401771  18.9420378  21.3590312
  23.1971741  18.2740998  21.5970159  23.5277605  19.7387874  21.7877698
  10.3541183  68.4153318   2.8932199  10.2651215  67.9073763   3.6996251
  10.7020533  69.2599154   3.1793255  31.7299223  42.8228140  12.0727229
  31.8442869  41.9293594  11.7488539  30.9815216  42.7682018  12.6669836
   8.1056201  28.3508205   8.6790830   7.8684497  27.4413586   8.8603550
   8.9435214  28.4733415   9.1253358  47.7325106  68.9081717  58.7760115
  47.9799318  69.8328400  58.7768126  47.3911047  68.7508202  59.6563053
  20.3930855  29.3076038  15.6200004  19.8868954  29.7305465  16.3136303
  21.0306334  28.7658668  16.0850656  76.7621326  35.4020953  49.3467331
  77.1427774  34.6949530  48.8258743  76.8947744  35.1290512  50.2545214
   7.8157598  70.2367544  48.8040495   8.4137666  69.4998693  48.9290380
   7.3254985  70.2891731  49.6244955  66.3011646  35.3971744  48.4307909
  65.8190203  36.2022805  48.2421780  66.4792490  35.4391742  49.3703413
  73.4576464  60.4517317  39.4816089  74.1002226  59.9374914  38.9928508
  73.9234781  61.2533045  39.7197485   7.2028488  30.5791354  13.5326505
   7.6700485  30.8212781  14.3322265   7.3879606  31.2924147  12.9217517
  18.3626556  40.4781008  24.4367194  19.0598500  41.0987520  24.6487260
  17.5611007  41.0007238  24.4613051  77.7963924  36.9025016  15.8430767
  77.1003962  37.4209929  16.2467945  78.6028290  37.2378659  16.2347698
  17.3682201  44.1070461  24.1458869  18.0105567  43.4556484  23.8642597
  17.3051941  44.7152472  23.4094405  23.5495663  43.8283253  19.1285431
  22.9141736  44.4592237  19.4668877  23.1830287  42.9738283  19.3559551
  75.4087162  24.2090726  39.2544413  75.1100111  23.5312462  38.6481762
  75.4722881  23.7636304  40.0992918  37.9223228  23.3739543  13.2331324
  37.6504660  24.1586471  12.7571249  38.8762450  23.3646083  13.1545591
  15.1046228  36.8264413  16.5098298  15.3272593  37.5410986  17.1064270
  15.9091854  36.3124633  16.4409924  52.4958754  69.7234011  19.7039509
  52.4982262  70.0263929  18.7959743  52.1872091  70.4769230  20.2070999
   1.6167331  47.4015856  33.2493639   2.5692055  47.4086475  33.3441210
   1.4533490  47.8799629  32.4365354  78.8216448  34.4490314  47.8256369
  79.0692139  34.3138266  46.9109440  79.2873430  35.2441382  48.0847979
  28.4309956  73.8186309  22.7426291  29.2890116  74.2429435  22.7421737
  28.1286665  73.8906394  23.6479712  23.8814282  51.1138344  44.6979189
  23.0041885  51.2779427  44.3518639  24.3389273  51.9484854  44.5964909
  36.4520216  46.2671614  20.4291105  36.4946771  45.3182745  20.3106761
  36.0067058  46.3840055  21.2683201  25.4246402  72.1674776   4.4349846
  24.6083117  71.7280722   4.1967255  25.2235246  72.6181364   5.2551621
  25.8085871  59.1186857  29.1469169  25.9173155  59.7605228  28.4451675
  26.1515832  58.3033752  28.7810516  21.7150521  51.1140108  30.8147907
  21.9774413  51.8917561  31.3072324  22.5361037  50.6558514  30.6353521
  16.9797134  74.4780445  24.0211487  16.1784840  73.9886856  24.2076731
  17.6476550  73.8043547  23.8937616  13.4550059  47.3992062  62.7621126
  12.6060450  47.0886946  63.0768824  14.0820861  47.0817566  63.4118986
  62.6537943  25.2077937  34.4234681  63.2392693  24.6798801  34.9663806
  61.9756269  24.5958161  34.1374540  73.9678192  68.4926987  34.9213195
  73.3729458  67.9095125  35.3927469  74.7749710  67.9867649  34.8276448
  72.9327250  61.0635567  48.9615202  73.5986996  61.6446972  48.5941124
  72.9039049  60.3208017  48.3584309   1.1865391  50.7394123  45.6109333
   2.0660672  51.0551405  45.4036236   1.3106929  49.8186731  45.8412838
  14.2329144  44.6488714  46.7049837  14.2194378  45.2734375  47.4302149
  14.6103895  43.8535643  47.0807934   8.1193691  20.8192897  31.8854761
   8.5831904  19.9927413  32.0193458   8.7397933  21.4907527  32.1691012
   9.8699886  38.7562442  30.9363103   9.8001832  38.3327460  30.0807357
   8.9954418  39.1086984  31.1011648   5.8325166  32.3526835  62.4375486
   5.8265471  33.2762504  62.6889896   6.7556441  32.1016335  62.4698114
  14.0195215  43.3172274  23.4367204  13.6321557  44.1697550  23.2382989
  13.4276581  42.6846266  23.0295968  24.1998172  58.9247084  21.2437367
  23.5106158  58.5262394  20.7122707  23.7954378  59.7113132  21.6097426
  22.2609448  45.4355001  30.4623842  23.1847763  45.3610277  30.2231717
  21.9613147  44.5302057  30.5454493   7.2428668  26.5971446  14.8210549
   7.7359396  26.5939593  14.0006280   7.3536021  27.4840665  15.1636016
   1.0474171  61.7293262   9.9033505   1.0379210  62.0522022  10.8044016
   1.8163893  61.1609125   9.8606992  40.7461977  67.3281336  54.6943712
  41.1024189  66.7775726  55.3916693  41.1424780  66.9860268  53.8930225
  30.9991884  33.5692835   4.2751634  30.3269029  33.5515976   3.5940257
  31.6711974  34.1589189   3.9331600  15.6652343  18.9322698  41.4852715
  15.2739084  18.9900494  42.3569107  15.1718545  18.2391202  41.0466909
  28.9268613  35.6374955   9.1855198  29.1258478  34.8338890   8.7050503
  29.1508007  35.4351306  10.0938880  75.9527874  70.6241941  37.3527241
  75.6981277  71.5039253  37.6310277  75.1475859  70.1104975  37.4159718
  33.3556104  25.1320362   4.1831276  33.8521242  25.5126238   3.4586558
  33.1673884  25.8726120   4.7596288  24.9846721  65.8857918   7.7731752
  25.2106237  66.6653681   8.2805580  25.7979512  65.6445932   7.3297447
  23.8228154  24.8911119  19.2961633  24.1752028  25.2131891  18.4665120
  24.3986416  25.2659726  19.9625981  63.4819603  57.6134920  26.2191677
  63.4954071  56.7268419  26.5795875  63.8137817  57.5143528  25.3268123
  10.5626464  32.0905256  15.5539525  11.1249733  32.1425581  14.7810924
  10.9774280  32.6716542  16.1915076   5.9463429  68.9711952   4.9643987
   6.4071018  68.2657909   5.4186499   5.0202751  68.8042402   5.1397759
  25.9082270  72.4670935  40.5877018  25.4337525  72.1608782  41.3605785
  25.2266145  72.6205349  39.9334145  50.8666039  32.8992105  58.0250454
  51.4568233  32.1551013  57.9060078  51.0167313  33.4493756  57.2562742
  61.6927099  17.4348843  64.6623755  61.7485142  18.3901608  64.6386147
  61.9680357  17.1570730  63.7887383  28.9366221  50.8132362  25.4390931
  28.6418247  50.9072590  24.5332861  29.3959236  51.6315985  25.6276584
  45.9856176  10.0910938   6.7844313  45.6836224   9.6616083   7.5847888
  46.6852522   9.5250982   6.4582521  18.7375677  28.7632871   1.6935201
  17.9135621  28.6528897   1.2191159  18.4964180  29.2481685   2.4828035
  25.7377934  69.6943426  16.0371530  25.5101490  69.1948462  15.2529919
  26.4798403  70.2362394  15.7689190  72.4578571  36.6296196  21.5290475
  73.0845928  37.3480606  21.4437652  71.9847441  36.6244602  20.6969571
  15.6862891  35.6356478  21.5804935  15.9412789  36.3349843  22.1822739
  16.3876736  35.6122303  20.9295392  78.2486629  49.3475819  54.9351358
  78.3627462  48.4115124  54.7708511  79.1120386  49.6478891  55.2190876
  66.4084101   1.5410522  35.1124501  65.7218504   1.5727344  35.7786822
  66.0214043   1.9697851  34.3491364  18.1350183  58.5638666   6.7354870
  17.1965885  58.4754944   6.9021362  18.2284117  58.3975315   5.7974875
  15.4381037   8.3111554  55.2948236  16.1258042   8.9706498  55.2033520
  15.4882169   8.0383337  56.2109518  78.7882376  46.2690353  37.6169705
  79.4840956  46.4445210  36.9835544  79.0122890  46.8092632  38.3747220
  22.9712343  44.8359823  37.1003461  22.3419809  44.2942095  36.6241574
  22.6169014  45.7231760  37.0406413  70.6692982  38.9318943   9.1873753
  70.7667828  39.8603487   8.9759475  69.7483063  38.7411690   9.0095401
  28.0852580  72.8825521  28.9782405  28.4338808  72.2595978  28.3405733
  27.7341199  72.3351431  29.6805763  14.7704482  26.5550089  13.1431258
  15.4101396  27.0904589  13.6125064  14.7493124  25.7288027  13.6260021
  22.1039224  16.8365538  12.4036205  22.8441024  17.3841751  12.1419406
  21.4161897  17.4596000  12.6382875   7.7154052  57.2202587  31.2485766
   8.5751820  57.2102737  30.8279634   7.5307471  56.3003445  31.4380193
  32.7885294  31.5602374  60.6017256  33.7339592  31.7001867  60.6547070
  32.5376916  31.2829947  61.4828873  46.8543005  63.9831209  37.5904703
  46.8610811  63.9965630  36.6333890  46.6721010  63.0708647  37.8159094
  14.1473627  14.7492468  35.0054574  14.8278809  14.8682046  34.3429041
  14.0367794  15.6171453  35.3937292  26.3826203  62.4223375  28.5021043
  26.9715595  62.5295544  29.2490220  25.8384705  63.2097673  28.5111880
  10.4357755  27.4477410  56.8466759  11.0324907  27.9766178  57.3762560
  10.0221610  26.8537402  57.4730301  15.9000432  54.7688675  37.9081845
  15.2219534  54.2466402  37.4795771  16.4532924  55.0781822  37.1909189
  20.7645059  44.7629261  22.7522922  20.8975601  45.6908894  22.5588679
  20.9210420  44.6896648  23.6937594  11.6205752  36.1737800  28.5404849
  11.4613795  37.1054649  28.3893108  12.2268510  35.9184790  27.8451562
  78.8677454  22.2273660  33.8532305  79.2359352  22.7130651  33.1151485
  79.6305990  21.9355464  34.3523598  55.8333063  19.1433883  25.7938004
  56.5932226  19.6812427  26.0162258  55.9679556  18.9063430  24.8762441
  25.3402829  39.7548366  23.0769157  25.3995371  40.0361490  23.9899230
  25.6321335  38.8432789  23.0877352  44.1343212   3.4494865  27.7241826
  44.4065523   3.1398886  26.8603134  44.9419260   3.7619048  28.1321049
   6.2060881  71.4301491  29.4828939   7.1466899  71.3357687  29.3325877
   5.8102411  70.7209635  28.9763427  19.2261028  10.0109816  38.8204145
  20.0380683  10.5177367  38.8084626  18.6607301  10.4789519  39.4348979
   6.9205087  41.9912481  29.6581244   7.5174117  41.2474680  29.7401333
   7.4201316  42.6467800  29.1714096  27.8498578  63.3286524  47.3757553
  27.3965788  63.8315153  48.0524349  27.1489048  62.8912067  46.8924952
   8.8510716  64.0375805  27.7301526   8.9513099  64.9866009  27.8046179
   8.1523085  63.9203072  27.0865631  71.1690187  32.6818919  45.3027725
  71.6626930  31.9250369  44.9870348  71.0454035  33.2280326  44.5264482
  34.6290898  46.2629604  13.6395574  34.2045116  45.5439329  13.1716216
  35.5414009  46.2304306  13.3517015   1.5785843  62.8535175  52.6538372
   0.8193291  62.2881174  52.5121164   2.1370946  62.3587132  53.2533932
  77.2110510  65.2220631  15.7045484  77.3219252  65.3299284  14.7599316
  77.6086903  64.3728876  15.8969569  34.0246296  53.3275890  33.8814211
  33.4166622  53.4205770  33.1479597  34.8888445  53.4715891  33.4959006
   6.8528515  15.4301357  20.2240038   6.9052160  15.8782792  21.0681939
   5.9544474  15.1025009  20.1820827  13.4615147  43.6596727   6.4405024
  13.1481826  44.5143652   6.1446041  14.3368673  43.5810518   6.0612816
  27.2559619  65.0762033  36.0089779  28.1690907  64.7921133  36.0504413
  27.1006513  65.5067015  36.8496799   7.8268272  67.8837299  20.2801704
   8.4491777  67.4389887  19.7047436   7.5105685  67.1970510  20.8672690
  16.7053938  27.1701574  14.9555337  16.4440584  26.8365407  15.8138084
  16.5197933  28.1082940  14.9965620   9.4675201  54.4525576  38.2618260
   8.6276984  54.0158939  38.4041548   9.4981265  54.6112013  37.3183608
   4.0284380  24.2598152  21.1726975   4.1301468  23.9257479  20.2814698
   4.6794108  23.7794566  21.6842866  29.8698401  64.6004725  50.3828430
  29.1124630  64.2248440  50.8317518  29.4977212  65.2557659  49.7926378
  18.0648935  52.5217915  41.1482477  17.4184966  53.1198740  41.5233517
  18.2539439  52.8853321  40.2831888  54.2736149  17.2796595  12.8925014
  53.7965107  18.0743444  12.6535940  55.1655483  17.5794387  13.0680645
  43.7489986  69.0361452  41.4885044  43.9269733  68.1255627  41.2531328
  43.3165836  68.9830923  42.3408127  13.3632517  29.5560265  31.0575128
  13.6305082  28.6820412  31.3420367  12.4095714  29.5056510  30.9928036
   5.4800379  65.6201839  33.0190611   4.7656155  65.4211044  33.6242056
   5.4025275  66.5605593  32.8580618  15.5154550  44.4377422  31.7748785
  16.2578893  44.9505568  32.0943189  14.7450840  44.9362230  32.0474172
  71.5026474  71.4323521  53.7795877  70.9064817  71.5855122  53.0465412
  72.3353767  71.8078232  53.4935570  13.2655954  54.7896528  55.8861351
  12.9531097  53.9258575  55.6169891  13.1750071  55.3319693  55.1026058
  69.9850512  41.7637157  16.5814507  69.4806957  42.5632429  16.4310873
  70.5437660  41.6840172  15.8083284   7.7291906  34.3632913  21.0239863
   7.0370388  33.8081884  21.3831782   7.4892890  34.4806457  20.1047993
   3.5532895  63.0957747  34.2094445   3.3020633  64.0112829  34.3317652
   3.9010885  63.0598497  33.3183908  77.2968340  68.8030052  10.3351057
  77.0770311  69.7065926  10.1082838  76.5584564  68.5026979  10.8650565
   1.3029523  10.7395661  53.7516737   1.6668816   9.8658961  53.8948107
   0.3654186  10.6383777  53.9160633  28.8940406  46.8455267  33.2702684
  28.2973599  46.7488289  34.0124607  28.3257556  46.8155956  32.5006008
   0.5174072  63.5129929  39.2341590   0.1540804  63.0600739  38.4731817
   1.0398590  62.8476286  39.6820021   5.6189382  51.2281799  33.4728265
   4.9810731  51.4938641  32.8104281   5.7660723  50.2975512  33.3039808
  76.3430262  72.7415943   0.2289661  75.5044031  72.6259947   0.6757091
  76.1176157  73.1711578  -0.5961989  78.3072186  16.9670486  63.6151028
  77.5396156  17.4186850  63.9658737  78.3677006  16.1623633  64.1299391
  11.5853906  53.4925508  27.0538998  10.8996201  54.0983772  26.7729640
  11.8479693  53.8117218  27.9172754  75.7056332  18.2977664  24.1507530
  75.7889605  17.6845038  23.4205508  75.0692463  17.8877056  24.7364926
  29.6926117  60.5197668  31.8767858  29.3372154  60.0138426  31.1460567
  30.5766749  60.1740742  31.9999027  20.6344843   6.3880181  32.5655293
  20.8244371   5.4691839  32.7549863  20.6032038   6.4340293  31.6099477
  70.6246710  29.9434233  31.0336518  69.9218225  29.6672153  30.4454851
  70.1931810  30.0730515  31.8781900   9.2776442  60.1469088  16.8035614
   8.6404592  59.4375706  16.7195117   9.3640238  60.2806807  17.7474236
  77.6877928   9.9908113  59.1590595  77.7523708   9.3001014  59.8185921
  76.9659758  10.5427039  59.4601107  -0.3125744  59.0342379  53.2579851
   0.3084183  58.8327217  52.5579929   0.1553269  58.8149595  54.0637255
  70.1363134  11.9661129  62.9846716  70.0764942  12.6702964  62.3390865
  70.8899498  11.4470863  62.7038193  32.0017719  14.5908582  14.8067522
  32.2132182  13.9670920  15.5013299  31.7821693  15.3994000  15.2696431
  66.1172581  62.0376635  32.6551509  66.2874937  61.2554932  33.1799936
  66.9858456  62.3485661  32.3999357  13.4287512  38.6252332  40.4445839
  14.1180110  38.7128830  41.1029673  13.0415320  37.7668047  40.6160259
  61.3443232  35.0689650  42.0410585  61.5963602  35.9923840  42.0383120
  60.3949833  35.0794387  41.9191027  30.0454593  55.4632854  40.1067019
  30.4072213  55.6833887  40.9651423  29.1962051  55.9043121  40.0844479
  10.6701684  38.4043407  24.3499660  11.4663875  38.2892370  23.8312960
  10.1121294  37.6683593  24.0986586  39.1092873  38.9651060   2.6236784
  38.4876466  38.4839606   3.1698433  39.9542546  38.8403893   3.0557773
  31.1183619  48.1240797  16.8727791  30.7532716  48.2901192  16.0036576
  31.9992089  48.4970570  16.8378019   7.2798014  20.5730057  26.6910839
   6.7311943  20.8987379  27.4046397   8.1744570  20.7734013  26.9661570
  70.9805679  65.5232286  57.1602917  70.9605217  64.6041536  57.4269915
  71.7909384  65.8647060  57.5383520  20.8166957  33.1054544  15.2696812
  20.4163861  32.9886103  16.1312687  21.5475345  32.4873948  15.2593327
  17.8445458  25.8070016  25.2414370  17.6808023  26.3075852  24.4421649
  18.7884414  25.6480813  25.2353716  35.1949549  28.0693913  11.5274739
  36.1233544  27.8718853  11.6511512  35.1367092  28.3935976  10.6287360
  28.7525129  48.5945177  21.6526127  28.6192489  48.2980204  20.7523012
  28.9924026  49.5172882  21.5678549  35.0266266  71.7392540  19.7800219
  34.9809575  70.9539366  20.3253841  34.1328812  72.0819569  19.7782862
  29.7134876  51.1978006  21.0442662  29.5066142  51.3714457  20.1259589
  30.6418610  51.4161253  21.1260629   9.4884026  27.0762205  49.8351383
   9.4526279  27.5954270  49.0317869  10.0435269  27.5859666  50.4252434
   0.4949368  50.4424763  25.0421143   0.2491183  49.6674871  24.5369434
   0.6362320  51.1226940  24.3836522  18.0205870  62.9647017  58.6820221
  17.5293720  62.9339933  59.5029974  17.3481441  63.0012274  58.0017900
  25.8610892  59.4549179  41.6278076  25.3622580  58.6646414  41.4207649
  25.8934569  59.9405289  40.8035707  57.1034241  50.5746841  16.5992451
  57.4279881  50.0529003  17.3331594  56.3253403  51.0135984  16.9430137
  24.4994903  40.7637358   3.5768041  25.0907683  40.0157738   3.4920949
  24.4017625  40.8860493   4.5211136  16.2936723  18.0014741  54.9419165
  15.9325647  18.0575585  55.8266163  16.6283751  18.8803589  54.7636795
  48.8449907  55.4582596   6.8845379  49.0750694  54.5492983   6.6919822
  48.0833483  55.3955936   7.4609154   5.1279408  49.7551537  38.5135007
   4.8120147  50.6265306  38.7525058   6.0764068  49.8030710  38.6332870
  10.1716340   1.9741236  22.0774102  10.4844177   2.0619415  22.9777908
   9.7054303   2.7921367  21.9049549  23.0878377  50.2872992  38.8943124
  22.8685308  51.0989189  39.3519330  23.4101939  50.5737591  38.0397606
  25.7912183  67.0600748  42.1822453  25.5040359  67.0088720  43.0939102
  25.4049730  67.8723431  41.8547201  74.8738337  47.9430628  11.8079686
  74.3942261  48.3726311  12.5162625  75.6500435  47.5769901  12.2319019
  20.0642610  69.7380829  32.2496653  20.6906533  69.8668528  31.5374255
  19.7568548  68.8384247  32.1385479  22.8114724  56.6468096  12.9311728
  23.5103774  57.1682644  12.5363958  22.7956700  56.9222450  13.8477516
  78.1110477  74.5610189  23.6331749  78.8324976  74.5160103  24.2606425
  78.4669113  75.0541973  22.8940082  70.9940100  16.0899210  54.7139359
  71.3936520  15.8259034  53.8851929  70.2706099  16.6626906  54.4592619
  52.6457787  23.4391093  11.7151272  53.2437897  22.9561806  11.1446953
  51.7944050  23.0245066  11.5754974   5.2115744  61.4374781  16.1504614
   5.3054678  60.9093380  16.9432330   4.3122932  61.2799740  15.8628547
  17.9128206  69.0653276  59.1117811  18.8637948  69.0853024  59.2189407
  17.7670991  69.3556690  58.2113934  34.5424628  15.4530680  48.6229181
  33.8508964  16.0394168  48.3160639  34.3157530  14.6004069  48.2517004
  37.4920058   2.1531753  40.9290075  36.9506693   1.8114191  41.6406155
  37.9142118   1.3791829  40.5563021  39.8126793  53.4092522  32.2719932
  40.4372931  53.5302877  31.5568447  39.9670601  52.5148487  32.5760341
  62.7237845  33.4954418  64.2779414  61.9395614  33.4617867  64.8257489
  62.7506578  34.3954720  63.9532008  33.8634920  15.3254080  27.6666069
  33.4879231  14.8701727  26.9129896  33.1495643  15.8705413  27.9973149
  42.9024076  62.4405575  39.5146012  43.4970140  61.6907740  39.4920397
  42.2114229  62.2171116  38.8910294  30.3556252  39.3414974   7.2153014
  30.6866574  39.0562367   8.0669320  29.9549270  40.1936102   7.3872745
  15.1042736  13.4220350  55.3759050  15.7416272  12.7423155  55.1568317
  14.3957782  12.9529464  55.8166122  34.8848629   2.4514136   1.7992164
  35.1767945   1.9071263   2.5304881  33.9320493   2.3598726   1.7979473
  79.0337206   4.2030302   3.1902921  78.6296299   5.0644618   3.0859944
  79.1919750   3.9027649   2.2952902  30.4580259  52.3388958  13.6797690
  29.9111438  51.8110180  14.2615736  29.8897290  52.5435448  12.9372132
   9.3500245   6.7375875  25.9438801  10.2938962   6.8226635  26.0784149
   9.2036057   5.7951140  25.8630252  59.2058277  49.5615959  60.5961370
  60.0949621  49.8329926  60.8242178  59.2770243  48.6211967  60.4324102
  22.8005600  39.9907470   8.4391493  21.8649483  39.8757720   8.2728893
  23.0674005  39.1818428   8.8758451   9.7728407  57.4170065  29.0121007
   9.1225940  57.1935225  28.3461690  10.2928627  56.6201305  29.1160250
  40.0020123  67.7616596  20.5020618  40.6149387  67.6060438  19.7834921
  40.1881170  67.0643711  21.1308599   9.3524241  46.8880844  25.9111190
   8.6808014  46.5754652  26.5172744   9.0580207  47.7629852  25.6579185
  47.0275879   2.0741349  39.3770981  46.1611032   2.0107102  39.7788620
  47.4773169   2.7507627  39.8832107  21.2549686  54.3676996  29.9628425
  21.7310762  54.0331554  30.7228637  21.8705726  54.2767620  29.2355251
  14.0966201  61.5342474  23.9616752  13.1853664  61.5529919  24.2540765
  14.1670620  60.7291555  23.4487486  15.2397799  69.0691042  36.7680526
  15.9504402  69.5122957  37.2314882  15.2399862  68.1801939  37.1231198
  38.5232902  73.6490154  26.2844133  38.1036830  74.2301130  25.6499958
  39.0827584  74.2260408  26.8042827  63.4693670  33.4890318   1.2564862
  63.3088350  33.0672526   2.1006215  63.1543684  32.8577590   0.6095692
  38.2252598  67.2529221  24.3407393  38.3809686  67.9152632  23.6674690
  37.2911358  67.3255110  24.5366335  21.5012670  34.1263986  12.7908230
  20.5717278  34.3390727  12.7073824  21.5754032  33.7091756  13.6491120
  27.9884100  71.6083241  33.3464813  28.1757498  72.5394630  33.2276583
  27.2012734  71.5899420  33.8908243  10.2155721  67.2423267  40.1683664
  10.0346053  67.0226431  41.0822678   9.3924469  67.0669556  39.7123599
  35.4352331  60.8646202  35.4905248  36.3850331  60.9526014  35.5703425
  35.1430678  60.6170368  36.3677788  38.5614705  10.1980102  23.0532312
  38.3346009   9.6477419  23.8028765  39.0490770  10.9294963  23.4319115
  61.3790607   1.7481185  24.6066189  61.9934988   2.4613243  24.4333148
  61.1000299   1.8869776  25.5116558  34.5531559  62.8869438  31.1171913
  34.5315981  63.5990000  31.7565179  33.9163518  63.1442928  30.4504943
  54.3204212   3.7635031  37.7652526  54.8757648   3.5855150  38.5242939
  54.8362589   3.4656608  37.0159626  40.3572989  63.4397030  17.1961868
  40.2321863  62.5103378  17.3881757  41.1017084  63.6984110  17.7394712
  43.0851460  14.3246377  15.6011581  43.7715673  14.2753363  14.9358571
  42.3435116  13.8586092  15.2151120  29.1196251  43.4102917  22.9757333
  28.9284873  42.7054930  23.5945725  28.5399652  43.2407331  22.2331190
  65.0199461  -0.0332597  56.4632988  64.3251181   0.4352725  56.0007811
  65.6678629   0.6407944  56.6684532  28.6686635   6.2228227  46.5814257
  29.5827436   6.1791402  46.8621016  28.6743927   5.8711106  45.6912041
  36.4446473  41.5904379  18.0627394  36.3281655  42.5308990  18.1976116
  37.3137641  41.5106773  17.6696682  12.1128571  15.9255385  59.3946028
  12.4769771  15.8242106  60.2740240  11.1833024  15.7204807  59.4951582
  59.8664379  47.5120831  62.7094936  60.2740765  48.3498764  62.9289675
  58.9429665  47.6293802  62.9323673  33.4645534  50.3246403  23.1607246
  33.1295133  49.7272110  23.8293505  34.2327189  50.7289791  23.5640407
  21.9885254  52.6384354  60.2106380  22.4473596  52.6442242  61.0506821
  21.2275720  52.0765686  60.3572273  57.9252434   2.6389533   2.2060497
  57.1244192   2.7278727   2.7227759  57.6705742   2.0940070   1.4614624
  77.2728252  69.9529791  40.7790947  77.3962164  69.2879677  40.1017761
  77.7009153  70.7341003  40.4286432  78.9273596  54.1946077   4.8174015
  78.9228678  53.2377338   4.8419344  79.3125153  54.4106197   3.9681512
  27.5994730  62.5114918  14.1677308  26.8565559  62.8490162  13.6673462
  27.3467612  62.6328468  15.0829577  78.0450583  23.6978197  50.1435757
  77.2146702  23.5693932  50.6020451  78.3128166  22.8169227  49.8817348
   9.8966467  17.0255816  62.6684999  10.1695013  17.8414023  62.2487164
   9.3258166  17.3039818  63.3846569  14.2103231  49.1910505  57.9732847
  14.8006499  48.4838438  58.2332945  14.5384598  49.9603128  58.4388924
  54.4054461   1.8336593  60.0255728  54.6911001   0.9628939  60.3019857
  54.6925020   1.9020662  59.1149950   5.4540950  45.7077456  23.6195755
   4.8360264  45.6664658  22.8898382   5.0059980  45.2620840  24.3384814
  46.3327503  68.7803507  29.9032140  45.5501890  69.2280102  29.5816064
  46.0700846  67.8629589  29.9782419  22.2443700  58.9018250  38.3138943
  21.3320398  59.0658188  38.0751657  22.6882076  59.7338390  38.1495976
  50.7603788  11.6867495  52.8152561  50.9203339  10.7450056  52.8766203
  51.5039110  12.0239186  52.3155499  27.3560190  43.5067177  33.6296773
  27.3576903  44.3839884  34.0125942  26.7131782  43.0210257  34.1464853
  25.9315991  61.2535429  49.4133282  26.2060404  62.0624304  48.9813423
  24.9857283  61.2153196  49.2715597  57.2266054   0.9196626  27.4641395
  57.0821381   1.3691403  26.6314745  56.8841887   0.0371019  27.3224688
  63.1199455  35.1728606  48.7670088  63.3845997  34.7235370  49.5696926
  62.8890896  34.4674182  48.1626177  20.7590242  74.2201907  38.5760498
  21.0217901  74.2286010  37.6556611  20.6715341  75.1445787  38.8086104
  26.3948512   9.1373515  51.7780781  26.2716508   8.7450194  50.9137106
  27.1846843   9.6706450  51.6886759  21.9841313  59.2193222  30.4565382
  21.9406605  59.0219545  29.5209169  22.6447964  59.9085236  30.5254912
   9.4734299  43.5196590   0.5540017  10.3628170  43.2499647   0.3249016
   9.5499134  44.4527817   0.7531539  51.7794895   3.4749326  11.2006783
  51.1335325   4.1753209  11.2924933  51.3607407   2.7097285  11.5948176
   0.5877653  65.1193666  15.5594444   0.0240334  65.8199167  15.8875740
   1.3341077  65.1119900  16.1587358  54.1366768  11.3344789  42.6877785
  54.9521446  11.8298364  42.7643490  54.2325974  10.8395290  41.8741083
  43.6527252  56.8399763  19.3761301  43.4088135  57.3839998  18.6272764
  44.6017408  56.9424200  19.4475961  75.8014679  59.8344278  37.7921081
  75.8334303  58.8777733  37.7968669  76.4833546  60.0999308  38.4091735
  26.5287018  63.1350660   8.5088813  26.3900328  63.0433226   7.5662327
  27.1286774  63.8762808   8.5916936  52.1677446  11.1824226  50.1124001
  52.6800394  10.7185090  50.7746458  52.2189379  10.6248689  49.3360329
  25.3660560  46.2553978  49.9080992  26.1929274  46.6306162  49.6052361
  25.6141949  45.4241610  50.3127098  70.8547258  41.1811209  62.4326801
  71.8069983  41.1220360  62.5096178  70.7068586  41.5375471  61.5567064
  -0.2650703   7.6654673  30.9957004   0.0610125   7.5903380  31.8925047
   0.5244375   7.6900381  30.4550481  60.9921217   4.3882576  42.6939678
  61.6910696   4.1549760  42.0829964  60.2148676   3.9501473  42.3473167
  64.5482016   1.0632858  15.4363930  64.8013544   0.1858211  15.1496840
  63.6321115   0.9743749  15.6992638  73.8415003  62.1912432   0.4823936
  74.7098017  62.4725437   0.7707582  73.2362127  62.7721739   0.9432393
  21.3870192  71.3625479  24.4556427  21.9802737  72.1116590  24.5114422
  21.9027829  70.6800318  24.0262270  31.4869118  36.1372805   5.8485526
  31.0147667  36.7159557   5.2498460  31.4500928  35.2774811   5.4294813
  22.4288917  55.1372576  42.8373671  22.0732427  54.7213650  42.0520115
  22.0569682  54.6360731  43.5631227  22.8284335  62.5495481  11.0072649
  22.9612398  63.0049419  10.1758742  23.2164073  61.6850996  10.8714950
  29.6252203  74.1165638  33.1219435  30.3989196  74.1451454  32.5590920
  28.9536500  74.5891428  32.6301122   6.7258495  33.6031699  28.4770417
   7.5884962  33.6782026  28.0690694   6.8020874  32.8489494  29.0614820
  71.4278746  44.0184212  43.7419939  71.1157656  44.8486423  44.1019297
  72.0822573  43.7153912  44.3714285  71.6007471  40.8640957  53.7299252
  71.6944456  39.9854374  53.3619452  72.0963383  41.4269686  53.1351137
  42.3698759  70.8529568   9.1382933  43.0357599  70.4634380   8.5716325
  41.6470814  70.2255678   9.1247809  11.8962741  53.8560963  12.5886202
  11.9800854  53.6970329  13.5287845  12.2190881  54.7489786  12.4670529
  49.9145512   0.1201853   2.4322343  49.8723630   0.7338127   1.6988081
  50.1345519  -0.7197872   2.0293987  69.8974180  31.4710236   6.2174100
  70.6838417  31.2587643   6.7201191  69.7606373  30.7095218   5.6538159
  67.1075296  42.9604387  18.9604580  67.2332716  43.0673409  18.0175948
  66.6929197  43.7763548  19.2408299   8.1279671  73.7392902  34.9806833
   8.2196116  74.1950178  34.1439366   7.4108654  73.1211805  34.8394871
   2.4591799  24.6033573   3.0046386   1.5217769  24.4097853   3.0106747
   2.7351400  24.4796681   3.9128119  32.9534197  51.0198545  13.8505006
  33.0372691  51.2408924  14.7780454  32.0931935  51.3572550  13.6006892
  21.9726038  12.2908199  27.1829343  21.9869161  11.6746974  27.9153419
  22.3141265  13.1064796  27.5493932  46.3412857  73.6506653  55.9637022
  46.0946274  74.0462112  56.7997265  46.2426805  74.3575907  55.3259182
  25.8136225  22.1638012  18.5951710  25.0018263  22.4478745  18.1750286
  25.6547880  22.2869754  19.5310295  29.0485644  67.8048754   8.3832890
  28.8692021  68.5814619   7.8532189  30.0020003  67.7863455   8.4660321
  16.3156402  20.9906387  45.9106493  15.4862070  20.7195091  46.3040447
  16.8707490  20.2125311  45.9619904  24.3439289  74.6031667  46.7331076
  23.7495609  73.9410815  47.0861006  23.9705702  75.4369479  47.0188427
  23.0905318  26.4326215  10.1700258  23.7147903  26.7125487   9.5005685
  22.3296547  26.9985676  10.0396240  12.3677814  62.2681379  28.1461716
  13.0907357  61.7158794  27.8485513  11.6138744  61.6792011  28.1779766
  32.3080897  48.3566999  13.2154226  32.8799438  47.6356125  13.4785628
  32.7486157  49.1422701  13.5395408  38.9104891  48.2308865   9.3367559
  39.8128986  47.9644012   9.5124650  38.9896321  49.1001320   8.9438373
  58.4166908  42.6730347   8.6084187  59.1721249  43.1764126   8.3048368
  58.6440086  42.4152231   9.5017785  39.3385720  60.0335836  20.9381652
  40.1388359  60.4935122  20.6846333  39.2233181  60.2461815  21.8643141
   3.8762215  72.0360088   2.2587399   3.1575471  72.3396969   1.7042026
   3.5660282  72.1796227   3.1528243  69.5222378  11.5184939  29.3397284
  70.3584719  11.0527253  29.3426085  68.9930582  11.0646915  29.9956703
  46.4980268  33.4524632   7.1746951  46.5675545  33.4858489   6.2206072
  47.3561287  33.1449008   7.4667549  62.6897144   9.1106325  35.9001470
  63.5866690   9.2899644  36.1821842  62.7622080   8.9490390  34.9594760
  30.2723837  60.2690029  53.4067774  30.6975031  59.6069098  53.9518785
  29.3777180  59.9479437  53.2939672  77.7277994  57.8281498  23.7836695
  77.1700811  58.4636354  23.3349633  78.5930681  58.2372093  23.7984538
  64.1402626  31.9164991  31.0544825  63.5604382  31.9206977  30.2928972
  63.6130285  32.2932076  31.7589998  26.3679910   2.7272514  31.0136056
  27.0657468   3.1921777  31.4753532  26.2164712   3.2461107  30.2236319
  51.9319630  16.3953280   4.0901011  51.2780333  16.9283640   4.5422989
  52.6706982  16.3562024   4.6975273  29.2203498  47.6311779  25.6122351
  28.9172959  47.2506666  24.7878551  28.7166858  48.4401751  25.7020783
  72.1293068  66.9183969  19.5596886  72.2669840  65.9981775  19.3350327
  72.6382017  67.0483065  20.3599238  31.0659599  61.9319105  23.7288928
  31.9308925  62.1320581  23.3710337  30.4530644  62.3312569  23.1115508
  72.1770906  69.8862696  20.4171848  72.2334814  68.9415789  20.5607629
  73.0821753  70.1605177  20.2693939  27.7456546  57.7064705  17.2676659
  27.4622703  57.3248863  18.0985200  27.9917192  58.6048174  17.4882400
  36.4528894  70.0643015  48.1594610  36.6075563  69.8445702  47.2407484
  36.8868232  70.9089279  48.2800484  21.1701655  69.2164421  49.6545935
  21.4125085  70.1282597  49.4930553  20.8341742  69.2130995  50.5508804
  23.2534623  59.3205643  60.4570818  23.0209613  58.5748720  61.0103655
  23.5479546  58.9268303  59.6358156  17.7225506  65.8517456  21.8986893
  18.0739892  64.9739504  22.0476747  16.8543863  65.8336973  22.3014259
  53.1090975  70.6689405  31.3369727  53.0739784  70.8460903  32.2769809
  53.9255238  70.1844025  31.2148952  78.8790417  62.4072981  36.9658780
  79.5388317  61.7879438  36.6539407  78.7082386  62.9742813  36.2138200
  40.9272671  68.2806826  63.8807917  40.9092283  67.6066780  63.2013655
  40.0594091  68.2391739  64.2824507  19.0906847  19.8775387  32.5133395
  20.0429535  19.8665142  32.6097441  18.8226414  20.7204270  32.8792930
   7.9135555  42.7812243  25.1832819   8.3313024  43.4395027  24.6279597
   8.1934482  41.9437075  24.8138833  51.4244413  34.6983695   0.5476510
  50.7994318  33.9968681   0.3646566  51.6494656  35.0494504  -0.3139392
  22.7052498  47.7415371  31.9551301  22.4976158  46.9514990  31.4561701
  22.6172686  47.4765968  32.8707170  29.0583634   6.3435769  30.5536675
  28.6317444   7.2004378  30.5578303  29.9321485   6.5127742  30.2013850
  69.6854067  63.5534430  37.1603036  68.8651562  63.8442135  36.7617083
  69.8771667  62.7190685  36.7321944  77.4093771  21.3625431  11.0872018
  77.8696871  21.4318371  11.9235885  76.5526676  21.0011458  11.3145280
  50.6918478  55.0757790  27.6418352  50.9835720  54.1654873  27.6918745
  50.8969212  55.3441191  26.7461944  59.1078281  27.1514630  20.0089002
  59.9802208  26.9243097  20.3307152  58.9894152  28.0665731  20.2634239
  41.8979645  44.9277067  18.7899065  41.7883110  44.2946291  19.4994307
  42.8295088  45.1471949  18.8065934  30.3892970   2.0812289  19.1887951
  30.0997353   2.6604781  18.4839141  31.1755252   2.5019243  19.5367789
  32.9548979  49.0405226  10.5837297  32.1913624  49.5602798  10.3325272
  32.7333140  48.6910868  11.4468789  12.5168526  56.1830235  -0.1776778
  13.0186641  56.0971975   0.6329090  12.2884214  57.1115637  -0.2207803
  38.5902166   5.4610670  25.4985595  39.0829468   5.2965480  26.3025379
  38.7840033   4.7078958  24.9405146  33.0789733  47.0504093  47.0553398
  32.2934341  47.2857428  46.5615988  33.7491679  47.6583815  46.7431831
  57.7661228  10.5290449  39.9587560  57.5723124  10.2691114  40.8593702
  58.6134434  10.9708810  40.0140619   2.1674235   7.2724062  14.4856143
   2.6990139   7.7232826  15.1416290   1.4874962   7.9045796  14.2526174
  32.8148508  68.5120916  21.6741228  32.5846624  69.4330978  21.5516615
  32.5645542  68.0912495  20.8516431  34.7206259  61.5273523  10.5566692
  35.1517272  62.0414639  11.2393641  33.8446712  61.3564539  10.9026873
  13.6327267  36.0910845  60.1360178  13.7098539  37.0449996  60.1178455
  14.4319677  35.7780576  59.7123909  28.6059546   9.8273611  19.8665679
  28.2946658   8.9229691  19.9040580  28.9696860   9.9191570  18.9859402
  72.6105738  59.0414858  47.1554947  72.6180029  58.2510519  47.6953030
  71.7638636  59.0190697  46.7096090  20.0225592  66.5739632  10.1239824
  20.7132339  67.2345781  10.1768136  20.3898072  65.8874989   9.5670879
   5.7354146  42.2472763  55.8927965   5.1719999  41.8268824  56.5424633
   6.5866423  42.3191452  56.3246298  13.2287657  58.7213039  58.4223080
  13.9789999  58.1300783  58.4842396  12.6228523  58.4106731  59.0950680
  60.9263229  10.5885077  41.6569376  61.1906767  10.5595958  42.5764561
  60.2357531   9.9295443  41.5854216  66.6375160   4.3138459  26.1965203
  67.1581841   4.0096161  26.9398785  66.8403769   3.6967608  25.4934669
  58.8252497  29.8041296  16.1837900  58.4590578  29.1852140  15.5520630
  58.0609512  30.2251077  16.5773034  52.3600340  61.8448496  33.4688449
  51.9915676  61.1535215  34.0188718  53.2678270  61.9254780  33.7614989
  30.6286383  40.5287981  19.4728613  29.9476171  41.1963081  19.5557690
  30.9356570  40.3873444  20.3683853  58.0768490  69.3423700  23.5105491
  57.2637224  68.8487387  23.4038138  58.7691355  68.7014151  23.3488369
  24.3490815   1.6733602  57.0621061  24.5457649   2.0502087  56.2044764
  23.4035826   1.7846496  57.1614933  36.5989923  33.0626845  16.7106223
  37.5240898  32.9657650  16.9365239  36.4138985  32.3204231  16.1352777
  29.0556097  68.0793428  62.2711515  29.0226817  68.8832092  61.7525434
  29.6758008  68.2730293  62.9740620   8.1454009  67.3916435  38.3623862
   7.8372306  66.4928770  38.2462883   8.0773509  67.7825785  37.4913120
  78.6350822  68.7361717  27.3317313  78.5326052  68.5024881  26.4091682
  79.5777130  68.6823606  27.4891615  50.6602049  67.1213245  19.7678232
  49.8280478  67.3152924  19.3364084  51.1941957  67.9018879  19.6201646
  53.5518408  25.1216245   5.2588934  53.8061190  24.7089171   4.4335160
  52.6201248  25.3140187   5.1534158  61.8493557  66.7593861  29.0896058
  61.2941885  66.8682575  29.8617244  61.3020134  67.0463800  28.3586621
  67.2126198  17.6255953  20.8548951  66.8680859  17.0532978  21.5404630
  66.5287066  18.2826233  20.7252526  44.9786234  55.0857401  10.6431365
  44.9623537  54.1321182  10.5620682  45.5608654  55.3759098   9.9409783
  33.4811354  62.0539284  21.9932270  34.2989421  61.6404772  22.2697854
  33.1625247  61.5009975  21.2797928  24.1794586  69.1479254  34.9964547
  23.9504218  69.8786116  34.4221091  24.5453572  69.5628643  35.7775927
  50.5724382   1.8756251  30.6360197  50.6738663   2.7171355  31.0807729
  49.9105549   2.0381789  29.9639177  24.2511511  62.2673416  58.1412935
  24.2716956  62.8853130  57.4105930  23.5738111  61.6350317  57.9012442
  30.1180744  38.4063220  15.8403742  29.4355416  38.8049436  16.3802624
  29.7275686  38.3430719  14.9687457   3.1902558  54.2879391  30.0916171
   3.1002644  53.9597845  29.1969395   3.1380218  55.2396917  30.0040293
  70.6487370  33.4406853  14.5052063  70.0648737  34.0305066  14.9821174
  70.7000208  32.6585317  15.0546038  36.9565272  49.5108700  15.1474452
  36.4138746  49.6480703  14.3709552  37.8534937  49.4976521  14.8135149
  29.9781823  31.9871354  55.1694345  29.9392915  32.8194904  54.6983624
  30.9053397  31.7494178  55.1595354  57.9771185  11.9617307   3.4244534
  58.5749102  11.2972844   3.0818287  57.3317814  11.4661860   3.9286405
  25.4845810  52.2096443  30.1566887  25.1033282  51.3649607  29.9171424
  25.8057117  52.0829296  31.0494661   9.1097510  32.5619102  19.2801797
   8.9447737  33.2706642  19.9020183   9.6268839  32.9687500  18.5849917
  31.9370341  71.9220686  16.6685152  31.9519639  72.6968241  17.2304463
  32.7254868  71.4359236  16.9098401  71.6556311  70.7433939  60.2090263
  71.3067770  69.9601936  59.7834253  70.8804083  71.2209845  60.5042696
  23.8197207  43.1857109  39.1255593  23.3588529  43.3667183  39.9447465
  23.4138107  43.7726736  38.4876370  35.0986075  15.5253029  52.8997374
  35.8412981  15.5816746  52.2985172  34.6495771  14.7174978  52.6506329
  69.0070963  38.2041597  38.1605172  68.5774946  37.5399041  37.6215959
  68.5527754  38.1605053  39.0018940  74.5419931  63.7516594  59.8059082
  74.6943188  62.8565788  60.1089954  74.5661926  63.6885977  58.8510942
  22.3659348  62.8013515  29.1264391  23.1066990  62.2071457  29.2465210
  22.7315021  63.6732054  29.2763376  31.9324970  62.9199362  18.1864679
  31.7959809  63.7819147  17.7932847  32.7832913  62.6361561  17.8520274
  51.9896173  68.3294153  12.3990154  51.7714310  67.3993492  12.3389506
  52.7020741  68.4493303  11.7711198  70.8463526   4.1606510  63.2547188
  71.0332632   4.7628760  63.9748716  70.5335569   4.7237366  62.5466728
  78.6495733  57.3584175  36.9463038  78.9006186  57.5471115  37.8505182
  79.1098928  56.5463591  36.7344189  25.8197331  64.9300003  23.0856800
  25.4924083  65.0029469  22.1891475  25.1338029  64.4532347  23.5530400
  65.7701778   6.0155636  29.6193218  65.0848150   5.6324428  29.0718484
  66.4053249   6.3683105  28.9961123  61.2759495   8.7012386  28.5894608
  61.8279362   7.9985619  28.2462573  61.8940067   9.3361795  28.9515233
  65.8595181   8.3617276  25.5523372  65.9018040   8.0842924  24.6372008
  66.4486361   9.1145331  25.6018567  59.5167398   8.2021374  38.2789946
  59.6739197   7.4069309  37.7699065  58.5934687   8.4046179  38.1279945
  14.2266238  37.6129913  29.3516946  14.0405667  38.5387635  29.5084119
  13.6073017  37.1459413  29.9125290  15.3367591  59.6473837  53.2016945
  14.4245064  59.8687315  53.0145264  15.3609538  59.5124006  54.1490221
  16.0456145  67.8597164  11.2750041  16.9482195  68.0005836  11.5608191
  15.5117166  68.1647539  12.0085824   8.5745078  30.5045319  37.9881644
   9.4473624  30.1675630  37.7861524   8.5308135  30.4984879  38.9443469
   3.2025236  51.0416317  59.5216417   2.5206345  51.5994024  59.8960114
   3.7194598  51.6311264  58.9725447  34.6269703  35.2053070   5.9222549
  35.1574087  35.9150195   6.2844336  35.2456999  34.4868731   5.7908833
  19.9815762  54.9154663  24.4401813  19.7560728  54.2497778  25.0899768
  20.3298950  54.4189978  23.6996245   5.8496916  48.5393953  19.6341395
   5.5016208  48.4401512  20.5202723   6.1290503  47.6580143  19.3864393
  70.6942987  47.3276949  42.6684237  71.1332321  48.1763554  42.7262926
  70.6558895  47.0157623  43.5725594  16.0558653  35.1122570  56.6041040
  16.6547203  34.7132993  55.9728861  16.5964544  35.2755356  57.3769760
  55.8233166  32.0498085   9.4046235  56.7304659  32.1500349   9.1160589
  55.3995895  31.5627503   8.6978966  31.1363506  10.6623483  21.4516783
  30.5209708  10.1678824  21.9930124  30.9115553  10.4217851  20.5528855
  11.1402357  58.3780432  31.8251443  10.3462994  58.5237741  32.3395944
  10.8381450  58.3651161  30.9169555  51.9668531  71.9993448  21.2646461
  52.6284170  72.6314068  20.9834552  52.2369194  71.7467308  22.1475291
  74.0150499   7.5944173  23.3135533  73.4829140   7.4617094  24.0980601
  74.9103022   7.4092972  23.5972548  71.8365669  20.9666348  43.4122086
  71.1210823  20.9360242  42.7770853  72.5114250  20.3987598  43.0402994
  31.8473363  55.6135130  35.7794690  31.4812732  55.9332705  36.6040826
  31.0950446  55.5538177  35.1906371  21.1270690  61.9397974  34.9675822
  21.4771485  61.2409782  34.4150233  21.6876149  62.6937056  34.7841620
  62.3673582  31.9183540  25.1534176  62.4412537  31.8365955  24.2025828
  62.2429085  31.0208559  25.4620314  59.7926521  48.2041645  48.3586597
  60.0817108  47.3104286  48.1745100  60.5278778  48.7541962  48.0882215
  46.8275785  62.3980379  27.1643376  47.1423388  63.1508446  27.6647758
  47.1328497  62.5593328  26.2715769   7.2023076  38.6675739   0.8072098
   7.5664395  38.4022546  -0.0373291   7.6361340  39.4975853   1.0049658
  70.9048700   6.2696475  31.5436220  70.6186438   6.3896590  30.6381345
  70.1879215   5.7913023  31.9600391  49.8893881  13.3883917  22.7936316
  49.6709967  13.2352686  21.8743420  50.1562548  12.5300229  23.1225967
  31.9022870  54.7825956  12.1968997  31.5089059  54.2813921  12.9112363
  31.2858653  54.6887398  11.4706445  32.8650069   3.2894838  23.3103132
  32.3587537   2.5380754  23.0015635  32.9384184   3.1567913  24.2554235
   0.7341661  44.8249817  41.3413095   0.7053797  44.0384102  41.8860149
   0.1315933  45.4340649  41.7681074  75.3072977   4.2028147  32.5872374
  74.8744869   4.1745415  31.7339444  76.0602474   3.6193061  32.4933362
  17.7564931  61.5260935  10.4085624  18.6326993  61.7810583  10.1196170
  17.3926330  62.3204327  10.7995403  11.6651475  51.6525364  60.0541687
  10.8569884  51.1413288  60.0120354  12.3171651  51.0419035  60.3980160
  67.4579906  64.1140556   5.6421947  66.6559124  63.6285686   5.4493171
  68.1213760  63.7135315   5.0802988   2.2848217  28.0314589  18.6154437
   2.9881448  28.4886050  19.0765131   1.5787175  28.6750817  18.5571611
  48.1360435  64.6671009   5.3326315  47.8394985  64.1435766   6.0770875
  48.9745188  64.2775631   5.0847393  28.9632225   8.4889144  35.7824349
  28.4850144   9.0494204  35.1713848  28.4021807   7.7212244  35.8925080
  28.5653663  67.6269627  26.8780780  27.6534772  67.3774624  27.0278716
  29.0734053  66.9927263  27.3839140  60.5275965   2.5778353  19.8582923
  60.4155779   3.5283789  19.8460186  61.3521051   2.4398328  20.3245234
   3.0089226  21.5954924  10.8419561   2.8698829  22.4587512  11.2314260
   2.7289462  21.6953254   9.9320781  11.9175291  33.7287736  33.9477086
  12.4580646  33.0067754  33.6271214  11.1269140  33.6934829  33.4092712
  57.8377628  59.1122389  62.4676657  57.0512486  58.8307714  62.0003271
  58.2494497  58.2976151  62.7559996  62.3570061  23.1179547   7.2528905
  63.1024170  22.8163695   6.7336279  62.6538038  23.0493307   8.1603223
  66.2580776  67.3042202   3.1343159  66.8116522  66.5398407   2.9746079
  65.7752609  67.0878267   3.9319959  65.1848888  73.7189484  35.9786963
  64.3002367  73.9788532  35.7216525  65.6723166  74.5414639  36.0247278
  34.9187160  55.4032516  27.4392438  35.1629639  54.8281288  26.7141175
  35.6656694  55.9934759  27.5388837   3.6982268  26.5259242  51.8184280
   2.8533044  26.1076069  51.6530561   3.5217214  27.1533632  52.5194263
  69.3021488  16.6240621  24.0342474  68.9711094  15.9055138  24.5730734
  68.6817169  17.3382461  24.1799879   1.1271068  37.0606875  16.8333113
   1.3735606  36.4692426  17.5444269   1.5642324  37.8854227  17.0453632
  68.8343573  32.7069259   9.8360646  69.5731449  32.4689102  10.3962195
  69.2183113  32.8137445   8.9657760  78.8657904  66.3026810  61.8407202
  79.0718555  65.5254793  62.3600721  78.2613516  65.9881592  61.1684370
  68.5981607   8.9781284  25.0694561  68.8549948   9.0946007  24.1547418
  68.7448454   8.0482680  25.2428770  72.0196009  15.7362771  34.9956560
  72.7896690  16.2466764  35.2460933  71.5291595  16.3139820  34.4108868
  13.4377503  64.2150259  26.3555169  13.4193623  64.4884157  27.2726583
  12.9015243  63.4224987  26.3310385  18.2683718  63.0891418  22.3214650
  17.3399353  63.1162357  22.0901561  18.3002710  62.5676394  23.1234932
  55.2007914  69.0250778  47.2636080  54.3050671  68.6991024  47.3510885
  55.2753115  69.2765760  46.3430500  37.4447370  69.4504738  17.9218411
  37.6561880  70.3680134  18.0939925  37.4221373  69.3849373  16.9671547
  27.2453880  73.7975264   3.2785842  27.2259808  74.6122599   3.7806427
  26.5459704  73.2655716   3.6581537  17.2638047  69.0690804  45.8951139
  16.6174114  69.5204687  45.3522921  18.0499971  69.6114731  45.8322954
  20.0398970  58.5004473  34.7653103  19.8276508  58.8264656  35.6398964
  20.8509731  58.9519167  34.5317173  66.0975218  33.8777876   1.1841640
  65.1863670  34.0515280   1.4204769  66.5766096  33.9476228   2.0098929
  56.5525273  -0.3416125  45.5417919  57.0302538   0.3880581  45.1473475
  55.6706647   0.0006565  45.6881046  15.7987285  55.7261372   6.6026050
  15.5305862  56.4225292   7.2020775  16.0365796  56.1830187   5.7958090
   2.5025392  67.4541998  12.0834005   3.4371087  67.4072552  11.8818867
   2.0765021  67.5236654  11.2290597   7.7332973  50.6913328   1.1294580
   6.8338966  50.4853010   0.8747812   7.8279334  51.6248608   0.9402294
  55.1494026  71.2964153  48.7630367  54.9885607  70.5038929  48.2509136
  55.8101177  71.7750740  48.2624578  16.9512606  55.2102280  17.8865039
  17.2788882  55.1945305  18.7857509  16.0149658  55.0294209  17.9695261
  53.2166767  63.7839317  30.8588529  52.5004292  63.1506872  30.8116913
  53.9934444  63.2864237  30.6032228  71.5161419  64.2899179   1.4824353
  71.7553139  65.2138758   1.5554263  71.0287857  64.1045284   2.2851479
  66.8348932   2.3691486  55.6448126  67.4284649   1.8006927  55.1541376
  66.8215466   3.1872702  55.1480913  29.5565152   2.5960970  24.4272590
  30.3703046   3.0779111  24.5750284  28.9375710   3.2593322  24.1218805
  23.1500959  38.1510997  58.3697557  22.7484536  37.2846556  58.3050299
  24.0418792  38.0265665  58.0450296  23.1162810  70.2806854  18.3725727
  23.6739779  71.0394287  18.5443640  23.0090880  69.8637486  19.2275035
  45.6114054  50.4821920  13.9262688  44.7827244  50.6978941  14.3540514
  45.3555536  50.1111174  13.0818319  15.5943537  10.9788465  10.3785682
  14.9911344  11.0818386  11.1146057  16.4545655  10.8781803  10.7861614
   9.8641735  49.5880890  36.1384702  10.7258320  49.4329119  36.5253758
  10.0502336  50.0201321  35.3048325  23.1693745  55.5527306  36.5882897
  22.7960181  54.6718311  36.6175127  23.1592345  55.7864952  35.6601286
  52.9589701  64.5984364  13.8721514  53.3869267  64.4230652  14.7101998
  53.6783886  64.7967577  13.2727063  58.3437443  13.6645627  29.5709109
  58.1863880  12.7209425  29.6033263  57.7121401  14.0340424  30.1879978
   2.1940857  15.4218769  51.4500237   2.2477643  14.9526811  52.2826147
   1.7117721  16.2223876  51.6568804  68.8397324  74.4890240  33.9315891
  68.1612349  75.1141062  33.6763525  68.4759295  74.0386032  34.6938229
  54.7843790  33.6413908  23.2738757  54.0921974  32.9891729  23.3821583
  54.9523640  33.6581993  22.3316813   1.3104555  13.7832570  56.3414669
   0.9044185  14.4036090  56.9468832   1.0443465  12.9229212  56.6658735
  48.3770561  72.1635485   6.9943511  49.2392111  72.3567820   6.6261309
  48.4206581  71.2376451   7.2331583  54.6615267  36.6057944  23.6026120
  54.6550941  35.7102227  23.2647634  54.2949390  36.5320182  24.4837499
  50.9068489  72.8890562  26.1465669  50.6295300  73.5497522  26.7812324
  50.4642153  72.0877123  26.4261365  70.2411032   5.8716476   9.3220913
  69.4825411   6.0694510   8.7728304  70.7614040   6.6750026   9.3102330
  41.8593454   5.7372200   1.9849077  42.0892286   5.8997464   1.0700469
  41.2151337   5.0302070   1.9480266  15.7678127  72.0362711  12.2215855
  15.2916062  71.3175917  12.6374650  15.3555262  72.8281879  12.5667322
  33.0071521  73.3773708  20.3735638  32.5705552  73.6247396  19.5584416
  33.1758904  74.2088318  20.8167696   7.3111469  57.1882868  41.0277081
   7.1053362  56.3316154  40.6535625   6.7728549  57.2402859  41.8175030
  76.4487839  59.2393351  54.1140318  76.4282799  58.8894749  55.0047684
  77.3122692  58.9953804  53.7807035  74.9355745  34.4881773  13.7493801
  74.7421551  34.5789695  14.6824276  75.2136612  33.5776806  13.6499131
  75.5510712  21.8916035  43.9547443  75.2019358  21.0072613  43.8439417
  74.8487902  22.3733521  44.3917274  42.0554066  62.0317364  13.1036210
  41.1485815  62.2149849  12.8580260  42.5521374  62.7722120  12.7554953
  13.8129902  52.8828526  37.4507213  12.9626250  52.5161505  37.6928735
  13.8229239  52.8532648  36.4940310  67.2548485  20.0747895  19.5476890
  67.8054190  19.2944074  19.4836235  67.4620724  20.5793452  18.7611055
  48.6207485  14.3587732  31.5082741  48.1116390  14.9789643  30.9863520
  47.9633665  13.8217354  31.9506264  30.1147103  50.8304787  50.9173918
  29.8657870  50.4815245  50.0615263  29.2936611  50.8703136  51.4078188
  17.9990256   0.8604388  32.2949719  17.7339935   0.4535086  33.1198335
  18.5933888   1.5641814  32.5551844  39.3854070   5.7169747  13.6343408
  39.7680736   5.8877236  14.4949460  39.4446373   6.5548694  13.1753659
  44.7348404  66.5182447  30.6009293  43.7957335  66.3976765  30.4603267
  45.0781727  65.6302261  30.6998110  54.6721172  41.3521004  48.4669924
  53.9032221  41.2301540  47.9100704  54.8688936  40.4760742  48.7987900
  28.8433623  60.0021696   6.7346054  28.2433534  60.0836325   7.4759448
  29.4711566  60.7146072   6.8551755   9.5670027  62.8036594  52.2322607
  10.2866387  63.0565834  52.8105211   9.9485004  62.8185892  51.3544989
  71.1390781  62.9243708  58.0196810  70.9949493  62.8298807  58.9612389
  72.0370722  62.6222992  57.8833342  47.8320742   8.3878446  42.9413652
  48.7073183   8.6029828  43.2636929  47.2406578   8.7071788  43.6228895
  44.0882683  74.0688372  11.8156469  44.3602371  73.2251835  12.1769154
  44.3563318  74.0337944  10.8974159  67.7646828  40.2178526   9.9332952
  66.8882895  40.6010723   9.9694818  68.3536053  40.9486961  10.1210952
  12.0826662  74.7166491  39.4973326  12.0425642  74.9342442  38.5660553
  11.7240357  73.8308573  39.5519853  71.2995338  15.0139022  22.8075385
  70.8760262  15.5656052  23.4651804  70.7683182  14.2179692  22.7845478
  45.9283257  56.7566919  25.0990391  45.4674006  56.8276310  24.2631292
  45.4859924  57.3844099  25.6704807  79.2585447  32.4635601  53.8202477
  79.8497735  33.2162952  53.8287401  78.5655942  32.6962900  54.4382191
  34.9834538  72.3829365  54.6649504  34.8229671  72.1801281  55.5865479
  35.8062243  72.8720903  54.6671057  30.2442360   5.0079334  19.8520958
  30.6359506   5.2653748  20.6866717  30.4696894   5.7189739  19.2522418
  20.8789444  62.3007250  43.7715387  20.8326054  63.0550289  43.1840801
  21.4761853  62.5753593  44.4673204  16.0719001  23.4914231  21.0506129
  15.6593156  22.6850200  20.7412291  16.6983545  23.7188125  20.3635311
  44.9737597   2.9677159  41.0435724  45.1929617   3.6691999  41.6568422
  44.0293741   2.8482050  41.1439943  55.9956551  70.6330585   8.9691722
  56.3768291  69.8017740   8.6864954  55.0703382  70.5645418   8.7339622
   0.1991824  30.0877523  47.9546213   0.9447519  30.4273081  47.4595881
   0.2124797  29.1447449  47.7909422  21.4186978  25.8988094  46.2226963
  21.2489748  24.9660039  46.3542318  20.5831838  26.3238955  46.4162254
  76.5868568  30.0735831   3.0652034  75.8472776  29.6547866   3.5054988
  76.2443399  30.9180999   2.7724472  39.7218605  74.3052451  22.3908734
  39.6103331  73.6220921  21.7297435  38.8897463  74.3190455  22.8637600
  65.1008224   9.6393937  41.3094807  64.5498848  10.3643703  41.0143280
  64.4919395   9.0308338  41.7279863  16.8027830  57.4135542  29.7117162
  16.9960618  58.3044672  29.4199133  17.5676048  56.9031620  29.4456720
   0.5577441   5.0843632  33.5672045   0.6951501   4.9967259  32.6239824
   1.0857510   4.3849060  33.9521742  42.0710850   2.2101301  23.3583522
  42.8051996   2.7885777  23.1517005  42.4615097   1.3378984  23.4132195
  38.8187623  55.1044321  47.9616117  38.9137125  55.1458168  48.9131927
  39.1285515  54.2294407  47.7278280   3.4069297   8.9385587  48.5786819
   3.0191553   9.8136336  48.5683107   3.0429178   8.5061067  47.8062105
  46.2117672  35.0866461  50.6852245  45.5249214  34.5136786  50.3443670
  46.2584782  35.8056498  50.0550795  63.6007452  64.0441561  34.6119070
  63.9319134  64.2570496  33.7394214  62.8392220  63.4873581  34.4497585
  50.2183819  74.5536757  24.0674400  49.6856451  74.9823809  24.7372413
  50.6851244  73.8632536  24.5382881  32.1414948  71.9291353  35.0353456
  31.6049814  71.3741064  35.6013227  32.4846983  72.6056767  35.6190681
  28.3100367  45.9071970  30.0453568  27.7287269  45.1486540  29.9912906
  28.9270139  45.7880831  29.3232894  58.5213900  70.4582214  34.1653585
  58.5909796  71.1986876  33.5627842  57.7833796  70.6800127  34.7331452
  30.5530047  52.7073574  58.0256557  31.4117742  53.1082296  57.8913069
  30.0723290  52.8949881  57.2194433  35.3826785  58.8463593  33.4475112
  35.0758791  59.5300245  34.0430856  34.6140265  58.2956457  33.2987833
  59.4236326  13.1552553  40.2372980  59.9820852  13.3780897  40.9820795
  59.7925329  13.6492157  39.5050764  46.1974859  69.2312860  32.6053095
  45.2730274  69.4768047  32.5688601  46.4157486  68.9858723  31.7062187
  27.8880405  38.2802725   3.6540145  27.2639561  38.5364079   4.3330893
  27.3520494  37.8565478   2.9836392  73.6608696  10.5747783  21.0129976
  73.9301157  10.8830214  20.1477075  73.6631298   9.6204686  20.9386992
  52.8945541  72.5596237  62.3140144  52.0575905  72.3445368  62.7256727
  53.3200788  71.7127848  62.1797752  16.9354582  16.6033077  61.9612122
  17.3468959  15.8306098  61.5740585  16.6605568  16.3171804  62.8323030
  20.1287341  15.6497335  43.1999397  19.1936505  15.6299889  42.9963255
  20.5507731  15.8610988  42.3672104  39.3905234  53.0070782  35.7925415
  39.5124221  52.4017477  35.0611401  40.2774715  53.2777452  36.0298085
  36.5336156  56.7559099  57.6327562  35.9500122  57.5142097  57.6078749
  37.3735237  57.1095848  57.9254961  34.6218514  10.0343919  19.9760330
  33.7258673  10.3597903  19.8890936  34.7189116   9.8465157  20.9095812
  59.2428827  20.6866741  34.3019319  59.5349932  19.8552310  34.6755719
  58.3037758  20.5684090  34.1593599   1.5080567  18.0499327  33.3644938
   1.4034118  17.1671808  33.7195015   1.4588304  18.6231375  34.1295075
  15.8636761   0.7580431  22.6821566  15.7512069   1.1222282  23.5601950
  15.4566646   1.4014931  22.1020317  37.2565985  53.5562944  17.9537249
  37.8601217  53.4108591  18.6823142  36.7962027  52.7230215  17.8541005
  35.0151181  27.2850752  60.2085447  34.7761321  28.0795383  60.6859779
  35.0824237  26.6105938  60.8843946  11.9162166  20.2813411  41.1550713
  12.2674108  20.9637308  41.7271137  12.5153327  20.2626467  40.4087830
  15.8890522  63.9693308   1.7813508  16.3947988  63.1622028   1.8762268
  15.7557893  64.0589523   0.8377191  36.3462830  65.8226299  29.0704298
  36.4157057  66.7131805  29.4144344  35.6899929  65.4018259  29.6258020
  75.0244141  56.4512587  21.7098355  74.1393805  56.8047953  21.6206169
  75.0208807  55.6585455  21.1733437  75.6302309  62.0340157   9.9823546
  75.2592659  62.6392841   9.3402719  74.8908091  61.4902449  10.2540183
  64.0768003  45.1911974  21.1366558  64.9386978  45.4266882  20.7932782
  63.8510990  45.9080744  21.7294312  16.2820458  42.5878143  47.7629137
  16.3626325  41.7463303  48.2119608  17.1853042  42.8711033  47.6211262
  24.8462081  72.1357536  18.5794973  25.5899072  72.2244644  19.1755474
  25.2257657  72.2354889  17.7064443  58.8933945  14.7026682  56.0914707
  58.2064056  15.3491020  56.2539577  58.4240961  13.8744307  55.9913969
  59.4111490  18.5354435  24.2344141  59.2080021  18.8107693  25.1283693
  60.1806784  17.9735768  24.3258786  62.3428631  52.0265007  24.3473577
  61.9190741  52.0887566  23.4913445  62.3604679  51.0887003  24.5382619
   4.4926941  21.3761163  17.0168197   4.6701327  20.5100846  17.3838842
   5.2983737  21.6107297  16.5563107   4.7395748  17.1768010  46.9209433
   5.6842202  17.0816696  47.0427132   4.5689568  18.1040597  47.0862103
   3.8282171  58.2157373  56.9595671   4.7718742  58.3258486  57.0762634
   3.4977645  58.0333805  57.8392124  49.0564251  20.8006620  16.3785434
  49.8998213  20.8655524  16.8265367  48.7731457  19.8990881  16.5306902
  14.3542886  68.9763069   5.1787442  14.8980129  69.1935968   4.4215253
  14.5418739  68.0536938   5.3514570  77.2943163  32.8815985  31.5070748
  76.5481901  33.3246732  31.1030841  77.6414299  33.5183358  32.1318245
  36.2577295   8.9445156  27.0548081  36.8527150   8.7469912  26.3314772
  36.5275645   8.3511364  27.7557516  57.8170061  10.1214409  31.9898200
  57.1923590  10.5362511  31.3948584  57.7346706  10.6150806  32.8057694
  75.3270578  22.9941368  30.9045529  75.1321650  22.0600510  30.8288693
  76.2705040  23.0548692  30.7546973  77.1164799  20.3767204  41.4655781
  76.7848063  20.1305389  40.6020832  76.9951391  21.3252854  41.5072489
  50.4055882  10.8878803  23.7516332  50.4930973  10.1722229  23.1220222
  49.6528625  10.6427789  24.2897415  35.7721496  65.7007980  31.8934727
  35.7280064  65.5406713  32.8361511  35.8702826  66.6498041  31.8160677
   1.0540272  36.5209866   9.6558326   0.7775889  37.4041843   9.9003237
   1.0339640  36.0280538  10.4761052  32.2011948  42.5292110   8.5194331
  31.7253160  42.3633337   9.3332237  31.5276575  42.5084496   7.8396177
  59.1891718  27.7638316  10.4138005  59.7137547  28.0673599  11.1546886
  58.2886839  27.7728391  10.7382560  78.0410290  15.1815796  55.8778715
  78.6628008  14.4563305  55.8175087  77.2917032  14.8989117  55.3536177
  70.5615330  42.2455215  30.6937742  71.1748457  42.9775238  30.6285691
  69.6971846  42.6497984  30.6182623  71.4504623  51.4805603   6.5322220
  70.9465599  50.8193970   6.0576916  72.2401619  51.6035271   6.0054475
  23.2533789  58.4873247  34.9650979  23.7952161  58.9547062  35.6008649
  23.7570357  57.7014780  34.7529531  65.4114008  69.5382738  23.1071258
  66.1166954  70.1496792  22.8950500  65.0956535  69.8247957  23.9641213
  79.1576510  47.2706652  28.8871527  78.2127749  47.2958660  28.7361360
  79.2780189  46.5778255  29.5365477  63.9290953  69.8426533   8.8042563
  63.8561964  70.4125738   8.0386794  63.9110518  70.4411983   9.5510143
  52.4323082  29.5105958  32.9672861  51.8991327  30.1792789  33.3971930
  52.9331160  29.9909401  32.3079753   6.5536106  36.9180846  25.2810812
   5.7259268  36.4846754  25.4892325   7.1956682  36.2086201  25.2554846
  55.4566288  65.1984119  21.3196540  55.6690407  65.2467680  22.2517347
  54.6906424  64.6259069  21.2779522  19.4136012  22.2664666  55.3922796
  19.1608500  22.9597378  54.7825909  19.5498765  22.7179790  56.2252235
  24.2499518  50.9262657  36.1027241  24.2371273  50.1293612  35.5726123
  25.1706290  51.0432959  36.3370013  18.8304687   8.0330855   5.5434155
  18.0305517   7.7764750   5.0845945  19.3745255   7.2455817   5.5350059
  16.4825821   4.9887231  53.7054443  17.2706413   5.4516554  53.9898539
  16.0587502   4.7151986  54.5189476   7.3266900  40.8335447  48.1400108
   7.1453518  41.3927364  47.3845959   6.9352299  41.2969112  48.8804770
  56.1385727  14.0930271  64.0300894  55.5300379  14.3347597  63.3318949
  56.5412331  14.9203598  64.2939425  78.8621813  47.9164934  41.9528437
  79.3697044  48.7056446  42.1422863  78.9090893  47.4023199  42.7588558
  71.8581200  18.9646757  17.9325187  72.2869635  19.5796919  17.3374724
  72.5614214  18.3855081  18.2260597  52.0981550   0.5043542  19.5000398
  51.6910410   0.9550703  18.7602115  51.4413071   0.5434587  20.1952004
  30.7558513  71.9697094  14.3425930  31.2153411  72.7341461  13.9951193
  30.8433151  72.0490026  15.2924848  25.9441733  43.4985447  27.0500946
  25.8682251  43.2968760  27.9827213  25.1355076  43.9653206  26.8393540
   4.4055441  47.8274488  33.7683034   4.6415624  48.1336832  34.6439457
   5.1008606  48.1622028  33.2019949  74.6920443  35.1198888  26.2058234
  74.4254971  35.5180287  27.0344806  75.0977468  34.2904568  26.4581704
  61.0076714  50.4456997  18.2376289  60.9731007  51.2632227  17.7409494
  61.3929892  49.8131704  17.6312673  62.9987478  61.5434837  17.1168268
  62.8629541  61.5256739  16.1694753  63.0258703  62.4745178  17.3374367
   2.0217521  16.0517883  31.1358333   2.7884477  15.5059910  31.3105154
   1.6349356  16.2043977  31.9979906  65.6953239  13.0411112  26.5923095
  65.2563334  12.2507024  26.9065905  66.3905478  13.1990039  27.2310281
  46.5933371  44.2863703  56.6995239  45.6487322  44.2277956  56.8427849
  46.9793797  43.9956474  57.5257730  14.0034091  11.3318443  12.5758123
  13.7513494  11.7761016  13.3853388  13.2429445  11.4287686  12.0026350
  31.2648797  35.1010966  20.9869456  30.7697463  35.9060144  20.8346915
  30.6659126  34.5412731  21.4809775  60.5176878  41.4437723  45.5743837
  60.9690428  41.8441629  44.8312855  60.4408598  40.5193663  45.3381586
  33.2686663  48.0913973  59.2558002  33.6638618  48.9111423  58.9590359
  33.8648343  47.7690172  59.9317360  54.4702721  36.8864608  58.1303024
  54.3632507  37.5915241  58.7687874  53.6125183  36.4630985  58.0949688
  75.5027533  14.2435098  39.1270399  76.1645603  13.5663497  38.9866948
  75.2691174  14.1620886  40.0517130  13.0678248  34.4552517   9.8607743
  13.1052601  34.1294718  10.7600498  12.6155186  35.2960610   9.9292636
  74.7079611  21.8090129  37.7557778  75.1178122  20.9912205  38.0376863
  73.7969732  21.5726399  37.5812650  10.4332924  60.2088785  39.9400282
  10.1557386  60.4098463  40.8337879  10.5998862  59.2663145  39.9471927
  58.2930660   5.3661436  52.4394798  58.4587288   5.4961509  53.3732271
  58.0209923   6.2273169  52.1223164  66.1033869  13.7584782   9.1073054
  65.3896856  13.9677441   9.7098589  65.8410215  12.9313111   8.7033361
  70.4517317  74.6567297  62.2680378  71.2442112  74.6549082  61.7311907
  70.0204706  73.8275719  62.0612812  64.2595387   9.9204916  59.1581011
  65.1309633   9.7120988  58.8213158  63.8045263  10.3178620  58.4156132
  25.2960610   1.2878861  37.9810619  26.1115718   1.1679766  38.4676790
  24.6779442   1.6258483  38.6290932  68.6801910  66.2746048  42.7350712
  68.1287146  65.6153440  42.3137903  68.1330252  67.0593309  42.7675200
   5.6344205  25.3566647  35.9809446   5.9761274  25.4960608  36.8641424
   6.0059637  24.5171165  35.7101202  73.8690615  14.3274593  23.3551145
  73.8332224  14.0073287  24.2564821  72.9699421  14.5903540  23.1583858
  21.1517620  39.9518800  17.9535711  21.2608838  39.3316770  18.6744535
  21.5553784  40.7601500  18.2698333  78.0626440  15.1009262  11.3974428
  77.5792456  15.4056740  10.6295323  78.9337873  15.4854941  11.3002264
   7.7745163  35.6275988   4.0960965   7.2550619  35.3507566   3.3412737
   7.4203426  35.1232791   4.8285267  30.7618666  64.8810720  40.7203579
  30.7656980  65.7207298  40.2608013  29.8551941  64.5799017  40.6614017
  79.1046493  28.1087160  29.5197010  78.5561622  28.6097050  28.9160419
  78.8803072  28.4490466  30.3857708   6.8756914  43.6502552  35.3125978
   6.4179993  43.7703371  34.4805336   7.5060117  44.3698835  35.3452659
  32.5507402  52.7994967  21.7964029  33.1892157  53.1378031  21.1686015
  32.8760314  51.9282246  22.0229006  64.3712664  66.9432545  30.0483847
  64.8290825  66.1310196  29.8317862  63.5133886  66.8525839  29.6335840
  68.4944677  17.0220757  12.4834692  67.8454208  17.5622320  12.9342425
  68.1930351  16.1235285  12.6175690  42.7311087  57.1336126  61.4801121
  43.3544350  57.2682047  62.1939611  42.3121643  56.2970924  61.6824865
  54.6459389  55.3983879  14.6751475  54.4284630  55.2377892  13.7569201
  55.0557995  54.5851755  14.9699867  47.0886660  10.0733244  21.3869500
  46.2643576   9.7280681  21.0440922  46.8371248  10.8640754  21.8640995
  68.1678486  52.9355049  25.4460740  69.0804720  53.2004738  25.5607104
  67.9000521  52.6193142  26.3089442  18.0290461  35.7710552  16.3537610
  17.6297927  35.1955152  17.0061266  18.9404798  35.8547425  16.6339695
  31.2165260  12.9454553   0.0346337  30.4123712  13.4274709  -0.1583106
  31.0897517  12.6142013   0.9236955   4.5399138  12.3239040  50.0005341
   4.0963599  11.6229856  49.5228243   4.0233958  12.4337327  50.7988930
  67.8797817  30.9558392  54.0760279  68.0614662  31.2374592  53.1794119
  68.3957291  31.5486574  54.6224689  17.7344513  10.3803289  31.0253716
  18.5509729  10.7942379  30.7457209  17.9443359   9.9836224  31.8708324
  17.5308788  19.2273784  63.4563875  17.4245334  19.6300507  62.5945425
  17.8259635  18.3361626  63.2695961  29.6237421  58.1683159  27.4498177
  30.5625534  58.0104828  27.3500538  29.4366693  58.8886404  26.8478441
  67.2496462  13.0881310  59.3312407  66.4847088  12.7326429  59.7837162
  66.8923950  13.7541604  58.7438679  12.2894943   7.8620279  43.7972641
  11.6574633   7.5383550  44.4391394  12.4441898   7.1168995  43.2166767
  21.5412927  49.0760469  34.1175008  20.7606411  49.5164633  34.4534302
  21.4413190  49.1040897  33.1659508  18.7718964  32.1739125  20.1987052
  18.7018359  31.6196775  20.9759760  17.9692316  31.9996905  19.7071707
  29.6143961  71.6182899  11.0683119  29.7028923  72.3030376  11.7312765
  30.5078220  71.4663172  10.7602096  77.3437834  54.7523785  51.9022751
  77.2781992  53.8792849  51.5154409  78.2289076  55.0448084  51.6848469
  67.2203398  31.3164735  12.1276057  66.8288136  30.4430199  12.1317184
  67.3457479  31.5183687  11.2003827   7.1131843  21.0274553   1.7657386
   6.2289220  20.7083321   1.9459376   7.6891536  20.3502417   2.1205261
  74.8719358  45.5185175  41.0804558  75.5414677  45.6926823  40.4189253
  74.5815277  44.6249056  40.8978319  19.3368363  21.9193816  25.8745170
  19.5420218  22.5262785  25.1633143  18.9911830  22.4761128  26.5722322
  28.2197928  67.2511721  46.8675089  28.8193583  67.6564980  47.4939775
  28.7097931  66.5094995  46.5124607  21.7437577  47.4799252  25.8664012
  21.1894369  48.1474066  25.4621363  22.5841403  47.9172564  26.0032630
  13.9795315  32.4486423  30.6811380  13.0248785  32.4384141  30.6121182
  14.2332006  31.5270448  30.6307435  14.9941874  29.2259574  46.8988132
  14.0618110  29.2780137  47.1090412  15.3983545  28.8682842  47.6893520
  40.9068632   7.4506372  37.1822143  40.0910330   7.8211033  37.5189781
  40.7561064   6.5054035  37.1760559  65.6381655  31.2982821  43.0439043
  66.4288759  31.8375945  43.0560303  65.6688833  30.8096600  43.8664246
  10.3367341  20.8003473  22.4587822  10.0955677  20.8414531  23.3841920
  10.7389760  21.6499352  22.2781324  65.5027294  44.4171143  30.5496645
  64.9029207  43.7144852  30.2991104  65.4311275  44.4645691  31.5030026
   5.3023475  69.2262125  10.5404973   5.3451788  68.2701635  10.5597007
   5.7067853  69.5006609  11.3635039  32.0948911  46.2078428  23.4436059
  31.6760564  45.5627060  24.0133500  31.5556192  46.2149286  22.6528049
   9.1017234  23.6594462  23.8632035   8.5595143  22.9196882  24.1370606
   9.9148881  23.2593131  23.5551667  28.3299971  59.0633011  11.2045431
  28.3499694  58.2959747  10.6326652  28.0952787  59.7879696  10.6248963
  13.1873095  60.2259207  41.4212608  12.6538634  59.9018383  40.6955624
  12.6984918  59.9795914  42.2065067  22.0664334   0.1748047  63.9895630
  22.6972938   0.8923002  64.0482616  22.5534654  -0.5393121  63.5783863
  50.7458973   2.0628710  17.5788879  50.4488373   1.6253199  16.7810571
  50.8264112   2.9839379  17.3311281   7.2218996  11.3972306   3.7820750
   6.4561117  11.2026680   3.2417548   6.9101876  11.3028216   4.6821609
  49.3635368  35.8881617  62.4579239  49.0573215  35.1935148  61.8748903
  48.6324835  36.5045762  62.5006819  76.8111610  29.6490598  28.5260320
  76.7523289  29.9505758  27.6194692  76.1606073  30.1716685  28.9949560
  61.9747019  52.9102278  19.8006344  61.5208721  53.7407637  19.6575177
  61.6832495  52.3508596  19.0806377  13.8811707  32.3873401   5.5367291
  13.2393765  32.3280764   4.8290431  13.7275195  33.2472920   5.9280175
   4.4233891  41.0793352  10.3296447   3.4844589  40.9747648  10.4836166
   4.5094982  41.9595623   9.9635661  17.4936283  65.9187031  62.9668379
  16.9485950  65.3962851  63.5552692  18.1902373  66.2614441  63.5267448
  24.8215628  40.6638002  16.3414502  25.1815248  40.3771448  17.1807873
  24.0602517  41.1944675  16.5760422  14.4077957  40.5599356  13.9262164
  14.8320282  39.8115039  13.5065615  13.6680293  40.7671118  13.3552027
  31.2618041  46.8044138  27.0010829  30.9643269  45.9990025  27.4242282
  30.5743098  47.0101976  26.3676524  76.6055775   6.5558797  20.2299833
  76.5511799   6.0923123  19.3942940  76.0297441   6.0634750  20.8149505
   2.0068662   3.4815529  10.9767485   1.2577945   3.1881830  10.4580414
   2.7417409   3.4709367  10.3634965  25.7246971  14.7274530  56.1061716
  26.0622215  14.0799928  56.7251253  26.0645175  15.5635512  56.4250660
  78.4889555  34.1243815  38.8135457  78.1696367  34.8422146  38.2667470
  79.2960691  33.8382459  38.3858514  12.9003501  38.7770915  37.8697729
  11.9737434  38.6685038  38.0838776  13.3548343  38.6530948  38.7030196
  19.6022189  61.5027666   7.2720009  18.9842558  60.7986832   7.0754939
  20.4496622  61.1657095   6.9813800  75.1944685   9.4701213  31.6589952
  74.6482515   9.5435500  30.8763766  74.9476337  10.2238333  32.1949267
   1.7324178  32.2035694  21.1378980   1.1950402  32.5654149  20.4332542
   2.6337439  32.3610330  20.8567452  78.5834731  72.0575762  21.9786644
  78.5035774  72.2816467  22.9058337  79.3291718  72.5729132  21.6711116
  23.6959338  48.0776739  20.5570126  23.3587098  47.1819162  20.5458879
  22.9641414  48.6051321  20.8771682   5.5229533  74.7827959  43.0339003
   5.9333110  74.7411633  43.8976765   4.5830581  74.7843695  43.2150793
  46.3529348  60.5060482  59.1297770  46.0218620  60.2820683  59.9995232
  47.3017263  60.5640984  59.2423010  51.2961483  64.3211031  16.6152489
  50.4957724  63.7967682  16.5888047  50.9883690  65.2273226  16.6316617
  17.5852692   0.1690166   7.4371409  16.9388282   0.1988381   8.1424469
  17.2864068   0.8278047   6.8103153  14.2672658  52.1690416  23.8871551
  13.8529670  51.3838434  23.5293078  14.5277190  52.6745129  23.1171608
   3.5393640  10.5985343  13.9811945   3.1279287  11.1602044  13.3243239
   2.8809023  10.5145550  14.6708369  54.0660524  72.1660089  18.8400376
  53.9021063  71.4514875  18.2245612  54.5328712  71.7536688  19.5668745
  36.0062361  50.0186729   5.6456995  35.0597978  50.1213551   5.7454109
  36.2614250  49.4401932   6.3643587  68.1432676   5.3257024   0.6246949
  67.6437616   4.6073571   0.2364897  68.0312777   5.2126408   1.5685736
  25.3878498  55.4281044  41.1358070  25.1805425  55.2768230  42.0579624
  24.5350075  55.4897547  40.7055807  20.1332021  47.7390623  19.7675109
  19.7258127  48.4694624  20.2331090  19.4135690  47.1305132  19.6001041
  76.4222431  14.2880714   0.8225864  77.2393465  14.3332970   0.3260720
  76.6975307  14.1033471   1.7205419  70.7867289  57.3258400  28.9917922
  71.4753580  57.2780228  28.3286667  70.8208466  58.2287169  29.3078423
  12.4352801  66.6764069  28.3538175  12.3775160  65.9130573  28.9284420
  11.6340840  66.6438675  27.8310776  42.5594759  61.9875669  57.4227190
  41.6960716  61.5991306  57.5637197  42.4279356  62.6108027  56.7082262
   8.5915160   4.5529842  25.0202346   8.3689779   3.6237511  24.9633646
   7.8357488   5.0037515  24.6435976  68.3316565  19.8047614  38.5320354
  67.6625538  19.2061388  38.2000971  69.1290522  19.5555151  38.0648470
  24.0810776  14.5260894  30.8863187  24.3000031  13.8123679  30.2872324
  23.1263447  14.5008385  30.9501934  76.4089108  72.2256708  60.4492617
  75.6540251  71.6497946  60.5706978  77.1504831  71.6295862  60.3444481
  13.1544852  45.9824419   2.8542849  12.4169195  45.4485893   3.1496349
  12.7719104  46.8414068   2.6752558  10.0674045   8.7240463  17.3617947
  10.6490207   9.0305662  16.6660929  10.1591444   7.7713484  17.3482788
  78.6167619  38.4124374  25.3549671  78.7743004  37.5737643  25.7886052
  78.3465723  38.1762266  24.4675946  74.3143129  22.6700759  27.1209359
  74.5802546  21.9618797  26.5344501  75.1094675  23.1877589  27.2472930
  10.4304612   7.1159399  45.6043625   9.8528981   7.8778332  45.5577660
  10.5583215   6.9692743  46.5415764  20.0418472  24.3804002  20.7497001
  19.1161621  24.2305779  20.5576324  20.5082798  23.9374900  20.0408244
  18.9458966  21.1631608  58.7321568  18.9893138  22.0590568  58.3979130
  18.1597936  20.7948899  58.3288574  20.4069638  52.4669838  34.8518419
  19.6055675  52.9196405  34.5889759  20.1686668  51.5399265  34.8540926
  74.5989084  16.5002990  30.7460213  75.0346565  17.0857859  31.3653445
  73.9549875  16.0288763  31.2745667  62.1328259  41.6712904   0.6121474
  61.8845463  41.9108343  -0.2807173  63.0868292  41.7484713   0.6243453
  21.0320139  44.8699379  25.6761861  21.0773492  45.8105993  25.8474517
  20.4826212  44.5245790  26.3798404  68.1021833  28.1236720  63.8645887
  68.7939882  28.7393379  63.6225414  67.5070572  28.6354160  64.4124699
  73.9228153  50.0752115   2.2734003  73.0657387  49.8451424   2.6321784
  74.4011497  50.4461193   3.0149227  22.9952765  63.7706184  34.2001057
  22.7897334  64.5900106  33.7500143  23.9515805  63.7292910  34.1975236
  70.1264238  50.8799648  22.7141356  69.5846510  51.6638231  22.8051114
  70.3195190  50.6165218  23.6138844  33.8726139  54.4215918  20.0771475
  34.4803810  55.1571608  20.0010514  33.7368703  54.1288424  19.1759801
  43.2639122  38.9537930  63.8039970  44.0242863  38.6925244  64.3234301
  43.6184931  39.1310859  62.9327536  24.4908333  45.7383347  55.7891417
  25.3013635  45.4137373  55.3968287  23.9111590  45.8974600  55.0442314
  34.4376516   8.0174452   3.3325329  34.2842650   7.1798372   3.7697026
  34.9069381   8.5432678   3.9802316  13.0702794  68.7627172   8.5985047
  12.7847540  67.8497219   8.6323053  12.8241384  69.1223526   9.4507426
  79.3332863  20.1759744  20.1707625  78.4390688  19.8348737  20.1868081
  79.5249653  20.3018856  19.2414403  14.4517815  12.5395918  18.5885608
  14.9595952  11.8298614  18.9818037  14.8265040  13.3374643  18.9616764
  38.8394427  15.6712735  46.7625809  38.9156890  15.8588862  45.8270454
  38.4449339  16.4604652  47.1337509  24.2765355  55.7869005  15.5081022
  24.8785949  56.5080118  15.3243625  23.4426713  56.2147474  15.7026541
  14.2448950  52.3296452   3.0710778  14.4776952  52.7484369   2.2424349
  15.0852597  52.1448612   3.4904519   7.4860132  10.6292236  21.3360119
   7.2651118   9.8019922  20.9080839   8.1800318  10.4010940  21.9544983
  76.0277748  65.1985359  47.9173803  75.8372831  65.6785870  47.1114635
  76.9408035  64.9266768  47.8241062  19.2466319  17.5690424  24.0647340
  18.9620829  17.2472560  23.2093287  18.5991979  17.2222519  24.6785712
  57.8118658  29.0928030  58.7786627  57.2451115  28.3537436  58.9996099
  57.3331928  29.8622513  59.0869713  35.6342697  34.9872565  14.7404921
  36.0021448  34.5889091  13.9516842  35.8751392  34.3873572  15.4464185
  78.5493088  19.5431161  54.5380545  78.6127043  19.9973869  55.3782034
  77.8806353  20.0274348  54.0537596  73.3910084  41.9627762  31.6086221
  72.5529289  41.7853737  31.1815643  73.8737774  41.1390734  31.5402222
  52.8263712  28.9547253  13.8303947  53.2094526  29.7516513  14.1969872
  52.9370499  28.2977009  14.5176363  77.1684265  16.0093403  19.3215835
  77.6594639  15.7485068  18.5424304  76.8342543  15.1872730  19.6804261
  47.5637150  68.4374809  47.2320175  46.8420553  68.8574362  46.7639542
  47.1807480  67.6394033  47.5962257  51.2190628  62.3299313   3.4759790
  51.8377686  61.6663027   3.7809971  51.3742256  63.0824423   4.0468419
  39.5568156  52.8680611  46.2893867  39.8868060  52.2520161  46.9434738
  40.2520752  53.5201836  46.2023115  67.3811245  57.8973436  20.2062774
  67.6981354  57.0186663  20.4152274  67.1605206  58.2805490  21.0552287
  45.1867199   8.8891828  14.9630749  44.3113518   8.5026407  14.9397326
  45.0331545   9.8328507  14.9168122  58.7621164  12.8874385  18.3674693
  57.8148699  12.8762543  18.5047042  58.9672709  13.8049531  18.1877172
  38.7336230  71.1327744  24.9380708  38.6937261  72.0711422  25.1227379
  38.1375933  71.0084629  24.1994739   7.1871513  58.4294701  17.2833419
   6.5607291  58.7650490  17.9245996   7.0994794  57.4778700  17.3381710
  29.7876382  40.3877115  64.2675924  29.4531631  39.7752714  64.9227858
  29.4570208  40.0514793  63.4346056  37.0303134   0.2572426  60.8214188
  36.0902003   0.4370865  60.8302402  37.2857205   0.3625425  59.9049520
  15.9988725  41.7754602  24.9872923  15.3772962  41.3159180  24.4227576
  16.0215986  42.6678896  24.6419191  29.8949361  56.8692923  19.0783775
  29.9955750  56.7213392  18.1380510  30.4214001  56.1820078  19.4866717
  42.1867800   9.1311413   5.7203460  41.8431425   8.5209811   5.0677752
  42.7579689   9.7167593   5.2233243  18.5886323  24.1042233  38.7175965
  18.7259245  24.4149756  37.8227139  17.7308035  24.4510937  38.9626312
  28.4967971  40.4755211  22.2454882  28.1329775  41.2312317  21.7842197
  28.2515073  40.6125736  23.1605196  25.9275532  40.7926989  25.6201768
  25.6697440  41.6310787  26.0034418  26.8841362  40.8217859  25.6018353
  34.7428656  46.7749405  22.5151563  34.1875219  47.3777580  22.0207500
  34.1334653  46.1351395  22.8832865  32.5976825  23.0561018   2.4091166
  32.8307462  23.6891937   3.0881652  33.3831239  22.9869223   1.8664140
  21.0690546   9.7827804  28.7937260  20.9103227  10.5233240  29.3790722
  20.1980448   9.5253181  28.4915876  20.3016520  62.4622583  10.3627443
  20.3343701  62.5087929   9.4072360  21.2161517  62.5297356  10.6372797
  75.1862288  50.2872181  19.8904359  75.6467819  50.5730104  20.6793880
  75.2811623  49.3347406  19.8894608  46.4706421  45.8616447  15.4654992
  46.7436314  46.4733791  16.1492324  46.1315584  46.4200926  14.7659338
   9.6695024  26.5117717  33.4475470   9.1111851  27.2444105  33.1872463
  10.0772035  26.2198544  32.6321959  75.2241325  45.0342131  24.7932649
  74.2975616  44.8661137  24.6216774  75.6883287  44.4777536  24.1678762
  33.1035256  38.3459330  21.2062287  32.4868655  38.9434218  21.6292787
  33.3639169  37.7398586  21.8998432  38.5714197   3.7743065  52.1366596
  37.6314259   3.7103546  51.9676733  38.9608288   3.9156619  51.2737513
  53.0948162  23.5166788  56.3533688  53.3830118  22.7367520  55.8791399
  52.1389675  23.4709716  56.3310957  73.2961512  26.4653754  34.5761466
  72.5770187  26.7536974  34.0140486  73.7499809  25.7982254  34.0611911
  34.4133949  21.8169713  13.7522769  33.6115670  21.3721228  13.4776556
  35.1192784  21.2397599  13.4610951  17.0861626  31.5660787   0.4397751
  16.1916161  31.4032030   0.1406276  17.0108593  31.6398931   1.3911492
   5.0342786   5.5674946  49.3355179   5.2619153   6.1535698  50.0572729
   4.1739315   5.2203298  49.5711231  11.6119051  38.2079720  16.7948079
  12.0276046  38.9564300  16.3667464  11.9230998  38.2460690  17.6992071
  35.8025789  24.4541526   5.2876908  34.9751735  24.6284795   4.8390916
  35.6977081  24.8580647   6.1491370   2.4619186   2.4461858  54.2589140
   1.8237758   2.6425225  54.9448156   3.2870123   2.7999321  54.5910549
   1.0631123  44.6498775  26.5012980   0.1435317  44.7655487  26.7405105
   1.5096112  44.4957781  27.3338389  24.3118834  45.2354383  24.3269801
  24.1980672  44.7423124  23.5145116  23.5521436  44.9990225  24.8590827
  20.9453607  30.2600408   1.5397982  21.5035129  30.1067019   2.3021537
  20.2775240  29.5761847   1.5904734  -0.0812272  21.1873817   8.4556669
  -0.4185371  21.7890954   9.1192865   0.8470889  21.4086223   8.3814514
  10.2722096  24.4211507  15.9043562  10.4068518  24.4894242  14.9591362
   9.9056679  25.2688503  16.1559200   3.7912071  42.6457644  37.9099464
   3.8664562  43.2572222  37.1773553   4.3043846  43.0475664  38.6109686
  55.3118515  45.2529192  18.5686970  55.2951813  46.2097931  18.5873353
  55.5411482  44.9999046  19.4629228  20.7826304  51.2837076  27.8880000
  21.2952018  50.5754566  27.4982786  20.8791065  51.1578035  28.8319659
  76.3288498  59.9934816  50.7831860  75.9930468  59.1764307  51.1518240
  75.8009195  60.6771469  51.1956501   7.5588346  20.0314641  12.0216787
   8.3374047  19.7944117  11.5178275   7.8579080  20.0485492  12.9307961
  71.4922619   4.3302068  43.8629675  71.6200066   3.5807765  44.4445705
  70.6582975   4.7093216  44.1404629  64.4505739  31.2793255  40.6406927
  65.0467491  30.7226324  40.1397896  64.8619175  31.3571358  41.5014887
  49.1955996  65.2773809  57.4557066  48.7538147  64.5968723  56.9478035
  48.5246134  65.6014538  58.0565262  30.5389977  29.3635154   0.6700905
  29.7679543  29.6603513   1.1534249  30.2693701  28.5345101   0.2747609
  18.9428067  28.7363648  59.0190744  19.6775651  28.2280183  59.3625069
  18.1771886  28.1815863  59.1683435   5.4961216  23.1199765  43.5668993
   5.5212200  23.2740140  42.6225090   5.9809774  22.3038054  43.6894178
  48.4919981  59.4688807   0.6898471  49.4088010  59.2051254   0.6115218
  47.9967240  58.7020646   0.4018708  16.6279328  52.7709150   8.9625430
  16.1629558  53.3472157   9.5690924  17.0222473  53.3641720   8.3231729
  36.6958356  33.8854170  12.2987223  36.9233990  34.8146725  12.2682559
  37.2419882  33.4828186  11.6235447   8.6558491  70.4985571  26.0342336
   8.1235939  71.0556793  25.4662967   8.8180315  69.7116280  25.5139732
  34.4390535  63.2187271   0.1949597  33.9963627  64.0280962   0.4502613
  33.7629342  62.7050209  -0.2468596  28.1814051   4.9094272  23.0390787
  28.6663723   5.6610167  22.6982665  27.5341678   5.2909619  23.6321592
  17.8907251  30.4946995   3.6122942  18.2791471  31.0542512   4.2847979
  16.9569838  30.4805875   3.8224363  56.0349846  47.1628666  22.0489645
  55.3690434  47.8489590  22.0039248  56.8426180  47.6270771  22.2691250
  77.4058437  47.3435974  35.3791547  77.7467775  48.1772852  35.0551844
  77.9530001  47.1395683  36.1375880  54.1422558  66.5072489  57.4293375
  53.6302090  65.9017086  56.8932772  54.9953794  66.0830355  57.5213051
  63.1366873   4.2602766   7.2936183  63.4791565   3.4803894   7.7303374
  63.8925409   4.6311632   6.8382519  32.5447512  39.0804219  18.4028053
  31.9377351  39.7448468  18.7288439  32.9093790  38.6809564  19.1925561
   8.7356651   4.0768558  21.5386796   8.8067895   4.9458197  21.1436152
   7.9312348   3.7114492  21.1704373  15.1546204   3.6455852  34.9610209
  14.8878670   3.7643033  34.0494394  14.9945831   4.4960368  35.3701067
  14.0013719  32.1050477   8.5368460  13.7219715  33.0155587   8.6324322
  13.8321054  31.8977952   7.6178098  25.8936787  57.2728491   4.3145922
  25.5637097  57.6903248   3.5189381  25.1103139  56.9418907   4.7539547
  17.4419177  52.8676224  47.9523897  17.0621610  53.5756207  48.4727335
  16.6863215  52.3870087  47.6142836  66.0586786  45.8749723  19.0329647
  65.6504297  46.7322016  18.9116287  66.9353437  45.9724092  18.6612153
  26.1527181  60.5024052  39.0080357  25.2726960  60.8007336  38.7782669
  26.3155484  59.7630930  38.4222555  18.4114289  46.9748783  48.7570763
  18.0219197  46.1005497  48.7649441  19.2658806  46.8601799  49.1729927
  53.0972004  67.4506378  51.2697554  53.8917828  67.0908403  50.8755302
  53.3994532  67.8762150  52.0721006  30.2637553  16.8835843  11.9705522
  29.7475958  16.2576973  12.4785650  29.7151160  17.0876038  11.2131858
  27.8780007  56.3085413  26.4080977  28.3052564  55.6004381  26.8900418
  28.2861209  57.1068001  26.7434406  50.8216667  33.0641532  52.4584818
  51.5794516  32.6931763  52.9105568  50.6787682  32.4814081  51.7126799
  61.4250708  13.6399758  44.7857332  62.0518494  13.0087626  44.4322538
  60.9345198  13.1475377  45.4438353  23.8355350  21.9444633  26.0389757
  24.7007895  21.6696453  26.3423538  23.7769032  21.6072702  25.1450539
  33.1830192  25.4326081   9.7194493  32.2445774  25.3688049   9.5420069
  33.2397747  25.9409356  10.5285311   4.4220197  14.7448969  20.5897641
   3.7255609  14.1549516  20.3014231   4.7900715  14.3202710  21.3646579
  53.4774113  70.7331848  58.7254572  52.7952242  70.3816414  59.2975283
  53.8177633  69.9686861  58.2607698  76.4609194   1.7537470  29.5548344
  76.9768286   2.4322228  29.1192460  75.6557178   2.1982935  29.8199081
  45.9838009  47.1569109   6.5435833  46.8847704  47.4098444   6.7448485
  45.8985901  47.3036337   5.6015408  57.2475243  66.8355560  46.1649609
  56.3732195  66.7851686  46.5513325  57.1867466  67.5463581  45.5267620
  29.7793245  62.8745604  12.6516271  28.9020658  63.1103230  12.9533970
  30.1659131  62.3992682  13.3870697  10.5452216  54.1288757  60.9785509
  11.0070109  54.8868465  60.6201363  11.0562360  53.3753586  60.6830788
  23.3219171  63.1495905  18.5840237  23.8919401  62.4306631  18.8568795
  22.8684092  62.8152227  17.8102279  21.3467431  59.0090895  27.8332067
  20.7202029  58.5720873  27.2564006  21.4599180  59.8784876  27.4490595
  65.0668526  66.4010286  63.0521917  65.0117826  65.6449366  62.4677849
  64.4607687  66.1977291  63.7646246  27.1171951  71.4302397  30.8588243
  26.1704659  71.5455484  30.9403157  27.4306512  71.3775110  31.7617059
  36.2349057   5.5466282  26.7643785  35.7243681   4.7600549  26.9564342
  37.0419741   5.2176231  26.3686132   4.2279640  25.9592032  28.7435365
   4.7349161  25.1521897  28.8327408   3.6117575  25.9371281  29.4756794
  32.7102423  55.7752752   4.9691319  31.8207741  55.5300188   5.2239424
  32.6524210  56.7089319   4.7662267  17.6617551  18.9030051   5.4852211
  17.7252257  19.8580539   5.4944724  17.7678180  18.6470294   6.4014411
  48.9737511  28.7648988  64.2712641  48.7648773  29.6899390  64.4012833
  49.0124321  28.6594057  63.3206797  37.7120066  65.8543491  35.9931922
  37.1732640  66.2957621  36.6498041  38.4128261  66.4771652  35.8003569
  19.5428908  59.1165400  13.3096850  19.0961254  59.7664404  13.8521409
  19.0613651  59.1232300  12.4824488  11.0983706   5.0351870  63.3486652
  11.8836129   4.5899072  63.0303097  10.3886354   4.4133487  63.1879616
  76.2813854   2.1286260  16.9548309  76.8993616   1.6245151  16.4254808
  75.4762936   1.6110702  16.9409263  37.7799296  53.3780479   8.2749164
  37.2535801  52.6142740   8.0386108  37.7800727  53.9218378   7.4871838
  25.9913325  14.0201557  11.7781889  26.7333698  14.4875312  11.3945568
  26.0936141  14.1420043  12.7220762  23.4908533  50.0276613  26.4346957
  23.7233090  49.2646122  26.9638062  23.8603830  50.7710743  26.9111538
  56.7313194  68.0448580  63.0649185  55.8349752  67.8460503  62.7942228
  56.8256760  67.6151228  63.9150095  13.6346233  56.1067200  51.2697649
  14.2870760  56.3734818  50.6221724  13.6116624  55.1518345  51.2073088
  14.4783997  46.3313083  -0.0444106  14.6578669  45.4229592  -0.2871589
  13.6939597  46.2827037   0.5019589  39.6692538  56.4166117  55.1218033
  39.7320414  56.7992163  54.2466450  39.2000771  57.0728683  55.6370068
  12.2631872   4.8722640  29.7668481  12.0828676   5.5000550  30.4665589
  12.7494407   5.3750509  29.1134000  10.7541084  70.6901932  50.8859921
  10.8630037  70.9942150  51.7870712  10.8474135  69.7391510  50.9411669
  67.2750139  31.4810967   6.8424338  68.1626511  31.5348101   6.4882505
  66.8359137  32.2630811   6.5078771  30.2854824   6.5986961   3.1587416
  30.2718210   6.6805577   2.2051466  30.0192595   5.6944835   3.3253500
  53.4238911  63.6462116  20.3470397  53.4519434  64.4320488  19.8012280
  53.3630228  62.9230976  19.7228360  54.0030670  27.2696185  11.5884781
  53.4592199  27.5641108  12.3190522  54.4826460  26.5171766  11.9349802
  18.2539213  62.2545004  25.3239918  17.8581142  61.8297195  26.0849977
  19.1914499  62.0844698  25.4154420  64.3551540  69.1439581  55.3317928
  63.7658453  69.8981619  55.3427267  64.6373367  69.0472794  56.2413311
  49.5374489  33.5046935  19.8348689  49.8994255  34.3097186  20.2051950
  48.8742876  33.8041782  19.2129731   2.1069829  53.3728170  11.5320218
   1.2152502  53.7021589  11.6441751   2.5999236  53.7661839  12.2520936
  63.5872650  61.1873579  58.0458260  64.4887924  61.0030079  57.7822113
  63.3984661  62.0467138  57.6688766   5.9403205  22.4903798  10.5672801
   5.7808155  21.8231273   9.8997736   5.4800624  22.1685648  11.3424122
  69.7503662  22.9382205   1.8488105  69.8252916  21.9852757   1.7986709
  68.8164425  23.1115890   1.7306349  31.2864542   7.3075354  36.5132523
  30.5340862   7.8938448  36.4331508  31.3157892   7.0811528  37.4428344
  72.4772549  59.7263813   4.5867714  72.0696068  59.8783875   3.7341583
  72.8044891  58.8281202   4.5390639   1.5300106  70.7135153   1.6259658
   0.9153017  71.0097075   0.9546721   2.0647129  70.0525045   1.1862019
  41.9992065  64.3607664  19.1360557  41.5293312  64.1072559  19.9305224
  42.4573469  65.1663733  19.3755090  26.6248417  47.5450563   7.2228283
  26.8212390  48.0105305   8.0358440  26.8226123  46.6289759   7.4175459
  28.8081837  58.7051439  29.9523401  27.9651380  59.1468287  29.8502445
  29.1005087  58.5369730  29.0565205  35.8497500  13.6530662  27.9676294
  36.5095901  14.2464149  27.6087713  35.0542045  14.1828191  28.0196214
  42.6059818  59.8037815   3.6569875  43.3139610  60.4272366   3.4948206
  41.8361855  60.2054167   3.2540768   8.4965634  28.5372853  31.7381287
   8.9408708  29.1464758  32.3277998   7.5734526  28.7853861  31.7885733
  17.9227018  46.4087820  25.9658360  18.3032668  45.5636311  25.7268381
  17.0255077  46.3697338  25.6345487  25.7418728  59.8947144  53.7361240
  25.8294225  60.7996130  54.0356636  26.4388871  59.7882080  53.0887747
  38.5843563  29.8674488  10.8755553  39.4899273  29.8056555  11.1794519
  38.1425548  29.1244125  11.2865794  23.4989500  27.7275991  21.7357254
  23.0062389  28.5320497  21.8979859  22.8838086  27.0240760  21.9428205
  39.7956157  60.1941442  36.1241293  39.1491246  59.5863152  36.4830565
  40.2484035  59.6903563  35.4478073  14.3672347  57.0515537  39.4749856
  14.2462575  57.9430914  39.1482472  14.3290663  56.5022707  38.6920023
  23.3756093  36.1626310   0.2966042  23.3076981  36.5486068   1.1698981
  22.5180320  35.7663268   0.1425477  70.5685568  72.1160650  51.1763382
  70.9367085  72.7075815  50.5199766  70.4904699  71.2758017  50.7245779
  13.4599578   7.0785183  47.4987745  13.8516140   6.2264335  47.3069715
  13.8262415   7.6649415  46.8368292  59.0225077  39.8343301   0.2669972
  59.1680384  39.0387774   0.7790049  59.6029711  40.4839420   0.6636007
  15.3217721  53.3185434  21.4623451  15.3449929  54.2645121  21.3180065
  16.2353992  53.0425882  21.3891101  74.4571733  73.0765772  18.0967772
  75.2146101  73.2475662  17.5370562  74.8292589  72.7036095  18.8959527
   7.0886028  22.2629142  16.2914562   7.0178944  23.1928730  16.5068841
   7.7605820  21.9297194  16.8861449   8.4762567   8.9248115  49.2721701
   8.1179464   9.7272408  49.6515799   7.9244965   8.2263052  49.6241379
  70.9798241  27.6182771  21.0514474  70.2730894  26.9760227  21.1167765
  71.3335276  27.4964070  20.1703835   6.4878571  40.5744886  14.8443758
   7.2372377  41.1691427  14.8120832   6.8335432  39.7748637  15.2410316
  32.2101474  14.2312348  30.8813167  31.9365835  14.6808052  30.0817680
  32.3151588  13.3169627  30.6180477   4.6958721  38.1759620  49.4968128
   5.5309284  38.1828785  49.9646425   4.3966359  39.0846705  49.5274496
  23.1735110  69.4661617  29.9025536  23.4828377  70.3699684  29.9632025
  23.6891508  69.0836668  29.1925907  19.0386689  42.6607847  22.7690744
  19.7026062  43.2955122  22.4997401  19.3736660  41.8185854  22.4613237
  25.1364517  40.0679159  18.9818513  24.3210101  39.6842265  19.3044496
  25.8257270  39.5721126  19.4237947  20.8750319  26.4093423  22.6349998
  20.5434227  25.5161738  22.5427222  20.5007386  26.7198086  23.4594679
  11.1167955  54.7877169  29.4133639  10.6308532  54.2488384  30.0376272
  11.9112778  55.0410986  29.8832846  52.9909182  61.9994926  58.5262060
  52.0569134  62.2063780  58.5588741  53.0761814  61.1953783  59.0384197
  24.9346447  12.8971672  48.5941887  24.7931886  12.1996522  49.2342615
  25.0094080  13.6933804  49.1201973  24.5030928  55.8544159  18.9744425
  24.6764255  56.6907072  18.5422349  24.0891933  55.3170204  18.2990718
  11.5817475  34.7410750   1.8373105  12.1737731  35.2490687   1.2826207
  11.2111795  35.3829956   2.4429929  78.5210451  49.7807407  36.3160396
  78.5748703  50.2758169  37.1334958  79.0985813  49.0296841  36.4524150
  70.3500938  10.1217389  57.7658367  69.8261213   9.4905716  58.2591057
  71.1696577  10.1876295  58.2559490   4.8004955  70.3071260  21.6691995
   4.9790820  71.1470890  21.2463546   4.9351871  69.6579790  20.9787655
  54.8571396  11.9028926  60.3485441  54.6730661  11.6465032  61.2522078
  55.7795238  12.1586192  60.3552818  33.9147854  57.5128937  17.0286155
  33.5129762  57.1669769  16.2316692  33.2650638  58.1219673  17.3795009
  39.3110371  54.1012335  13.4081495  39.4446325  54.9594069  13.0057490
  38.9309072  54.2950344  14.2649889  21.0954118  34.7360897  19.5002246
  20.6970978  34.7983384  18.6320639  21.6929650  33.9910197  19.4367194
   0.0834192  23.3841848  10.3152418   0.9417319  23.5469723  10.7064331
  -0.4414626  23.0246830  11.0304260  35.8543062  56.4835024  19.8052537
  36.1376524  57.2233057  19.2680025  35.4297328  56.8862915  20.5627060
  12.5672460  25.6287575  21.6076875  13.3712852  26.1339450  21.7282557
  11.9522810  26.2476611  21.2139797  14.2914844  16.8623495  31.6402626
  14.1662180  17.2860432  30.7911301  14.4406509  15.9408724  31.4284587
  70.3055096  28.7032771  26.0738349  71.2268019  28.8230014  25.8433604
  70.3079128  27.9826069  26.7038035  23.9945340  44.3484020  57.9515457
  24.0220785  44.9521017  57.2092390  24.8955464  44.3236828  58.2737207
  19.0781426  37.2388458  12.8953052  19.5091498  37.5468779  13.6925375
  19.2043650  36.2900639  12.9060841  41.3947582   1.2879141  46.5099955
  41.6453314   0.5695815  47.0908928  42.0453405   1.2664849  45.8081961
  53.6713743  74.1731310  32.6432991  52.8771591  73.6579704  32.5016475
  53.4441757  74.7731018  33.3536816  32.5771809  19.7256660   1.9545403
  33.5048509  19.6407509   2.1746577  32.3704100  20.6420922   2.1379538
  16.3746059  58.3435106  20.7853699  16.1426449  58.9481115  20.0804710
  16.1422360  58.8107395  21.5878248  24.2827392  45.2169514   1.7506456
  24.8085284  45.9020662   1.3378505  24.4139647  45.3474617   2.6897830
  22.8054214  58.9807510  41.1852980  22.7518511  58.5431623  40.3356647
  21.9964838  59.4890499  41.2443447  18.8875592  14.3358982  24.8534799
  19.1576445  14.6923387  25.6997871  19.6045935  13.7554312  24.5982313
  28.3522320   9.2462569  45.9523916  28.6961317   8.4226447  46.2982655
  27.4321747   9.0613002  45.7639265  41.8461657  47.5248528   9.5911866
  42.7440405  47.2838211   9.3632364  41.6239595  48.2267666   8.9794934
   0.6086943  52.8351355  34.0721822  -0.3144209  53.0003214  34.2640233
   0.7723486  53.3088779  33.2566953  58.6951780  60.9440613   9.2838526
  58.1679773  60.4336977   8.6691809  58.7467337  61.8147898   8.8896441
  74.0926933  46.1416817  47.0058012  73.6729956  45.9350920  47.8409100
  73.6431122  46.9295502  46.7002344  26.2095737  28.1580019  20.4611611
  26.3138676  29.0037179  20.0251365  25.3263927  28.1855845  20.8292079
  54.0934324  50.1518869   7.5885254  53.7139750  49.5510864   6.9472069
  54.6016216  49.5890284   8.1726164  10.9271300  24.3567491  55.3611851
  10.7325625  25.1434398  54.8517799  10.9636998  23.6541224  54.7121763
  39.1947842  32.5146055   2.4350585  39.7568440  33.0835438   1.9091004
  38.3179140  32.6437640   2.0736061  30.2878833  53.5943079   6.9890100
  30.4514551  54.4599199   6.6145808  30.5935192  52.9821491   6.3196236
  65.5595350  15.9673870  22.2830343  64.8490191  16.5797460  22.0922089
  65.3561926  15.6287634  23.1549382  73.3205056  16.1360230  64.8866621
  73.8010597  15.8482184  64.1104743  72.5751853  15.5379977  64.9423286
  76.4767504  71.4289188   9.7859484  76.7483616  71.9977379   9.0655971
  75.9590292  71.9963694  10.3570831  61.6511631  71.4626646  12.8103006
  62.1560287  70.9752274  13.4612572  61.1302853  72.0797825  13.3241892
  43.9640474  72.5966120   6.4909303  44.0737295  72.5257587   5.5426794
  43.7451220  71.7087317   6.7737240  39.1878390  38.9260292  -0.1330092
  38.2803488  39.2046618  -0.2557178  39.2917514  38.8596940   0.8162188
   4.5769903  49.8716354  64.5153666   4.1121948  49.5494699  63.7430906
   5.5031472  49.8024750  64.2836714  60.6370783  11.0638177  11.6482592
  60.2433491  11.4931214  10.8887148  60.7049227  10.1433206  11.3946557
  43.7585592  63.7287903  62.9055500  44.6758461  63.5914707  62.6689863
  43.3825684  64.1843224  62.1523237  34.6559024  46.2363100  18.3822882
  35.2925539  46.2327623  19.0970564  33.8418245  46.5343046  18.7881267
  10.7041538  29.5693207  42.2896481  10.9296131  28.6660886  42.0669985
  11.5483868  30.0054908  42.4048042  49.6806288  63.0798244  20.2051449
  49.4657421  62.2049618  20.5286765  50.4294062  62.9433012  19.6246910
  50.1096392  74.1078568  18.6054647  49.3619728  74.2659855  19.1818523
  50.6931829  74.8505163  18.7609231  64.6029186  36.8163157   4.0241277
  64.1829634  37.1709180   4.8077926  65.5360794  36.8045497   4.2369676
  38.7362432  58.2071209  25.2669382  38.3029771  58.1364965  24.4163370
  38.6527777  59.1311836  25.5022573   7.0198423  51.4715576  61.0695505
   6.1218596  51.1603928  61.1837244   7.5029427  50.7028866  60.7662535
  21.1735821  50.9196424  18.0860114  22.1017218  50.8021259  18.2884467
  20.9482670  51.7639446  18.4766757  49.8481178  34.2661452  46.6972971
  49.5710468  33.9891148  45.8239603  49.1826344  33.9077830  47.2846127
  75.5449486  69.0215921  16.6231692  75.0060701  69.6655703  16.1636770
  75.4032135  68.2051325  16.1440647  29.4322562  64.8952198  62.9061842
  29.2667866  65.5657053  63.5689831  29.3901491  65.3658199  62.0737219
  49.9046659  60.0249195  29.0800953  50.2665377  59.1747570  28.8300729
  49.8676109  60.5195665  28.2614493  42.1064377  49.4595861   5.4704165
  41.9225597  49.0096235   4.6458232  43.0592537  49.4246626   5.5550283
  41.7762804  36.8165517   1.8176782  42.5557804  37.0236659   1.3022044
  41.6768646  37.5609326   2.4111831  21.3056040  74.6798611  36.1171007
  21.4924717  74.1578054  35.3368616  22.1249604  75.1399469  36.2993312
  10.5785608  63.9706516  41.7128658  11.1538506  63.7879562  40.9699678
   9.7214860  63.6450577  41.4378309  18.7777591  31.8602872   5.8905762
  17.9918110  32.4038029   5.9463429  19.4934046  32.4852538   5.7743883
  61.9164038  10.9834397  60.1075745  62.6374769  10.4586577  59.7598886
  61.3276386  11.1048353  59.3626928  47.2888231  55.6839132  27.3514462
  48.2124043  55.8743715  27.1872377  46.8192816  56.1771917  26.6788101
  62.4936199   0.3601489  28.4626913  61.6993427   0.0593307  28.0212569
  62.1964502   1.0680746  29.0343237  15.1318121  59.9916649  44.0025425
  14.5302904  60.7361698  44.0132046  14.6321106  59.2744064  44.3925095
  22.3985314  70.3166819  27.0071483  21.8182492  70.5442572  26.2807107
  22.3217487  71.0524511  27.6145816  26.4686251  54.0191603  22.6164579
  25.6571245  54.2767382  22.1790195  26.9694591  54.8315763  22.6898217
   5.6753373  65.4408216  61.8400621   5.2263308  65.2578449  61.0147476
   4.9976262  65.3411531  62.5086498  35.5716085  54.3433666   9.6058661
  35.2864122  53.7925816  10.3349268  36.0828042  53.7568474   9.0482777
  50.4768515  30.7531881  44.1333246  50.7225943  31.6782975  44.1290188
  50.8054018  30.4142213  43.3006239  36.8432856  25.0067496  11.0400045
  36.6379428  24.6547675  10.1738775  37.1607256  25.8934593  10.8690953
  47.6370335  50.3337193   7.7685350  47.4718237  50.2146959   8.7038279
  48.0453539  49.5136118   7.4911767  58.2454920  73.9599133  27.6548171
  57.3914623  74.1443300  28.0457902  58.8578367  73.9944744  28.3897138
  52.7893257  60.0713444  51.1094284  53.5792255  59.8943186  50.5985880
  52.1327877  59.4748402  50.7497358  24.2457223  13.7250018  43.4728622
  24.7755051  14.2762256  44.0488100  24.6422815  12.8565001  43.5412502
   3.3254331  36.1765718  41.5026093   2.5176704  36.3506198  41.9857836
   3.8158143  36.9971108  41.5523577  33.2461786  72.9181767  23.9261389
  32.7591705  72.7347279  23.1227708  33.9470625  73.5094690  23.6516094
  11.7572832   4.8955736   7.6104885  12.0372403   5.6044602   7.0314068
  12.0051730   4.0956187   7.1469641  42.3938465  70.0604248  18.1404543
  42.1327639  69.3442202  18.7193489  43.2091570  69.7592211  17.7394819
  25.7739019  37.0500016  22.6183534  26.2800694  37.0979285  21.8073487
  25.1696849  36.3204527  22.4808216  51.3520670  59.1596508  23.2628655
  51.6389942  58.2647228  23.0811810  50.7059050  59.0665388  23.9628911
  27.4058557  31.9040489  10.1140416  26.9332838  31.8843913   9.2818624
  28.2580018  31.5162659   9.9147850  13.4607267  16.0881066  61.9819307
  13.1759036  15.9402752  62.8837395  14.1082728  16.7899930  62.0472860
  29.7808743  37.2559094  20.0188494  30.2242875  38.1040311  20.0363541
  29.8249531  36.9814539  19.1028988  59.5443773  62.0960522  56.2200403
  59.8341990  61.2586117  56.5818834  59.3052149  61.8960142  55.3150463
  68.6783886  27.9282594  51.4356375  67.8605747  28.4230852  51.3850212
  69.1874790  28.2293534  50.6830359  40.8023024  55.4303026  16.1451387
  40.7796669  56.3005638  15.7471848  39.9556899  55.0430727  15.9225833
  27.3322463  53.4741259  16.7796063  26.5502524  52.9743862  17.0140862
  27.8040099  53.5821533  17.6054394  74.1606045  62.8924465  47.2388554
  74.0404177  63.7987518  47.5224066  74.7185898  62.9559946  46.4637136
  51.7186117  51.1046124   0.4888185  52.3962927  50.6181860   0.9582585
  52.2032022  51.7189789  -0.0625084  33.2116413  36.1470604  12.9363573
  32.3264599  35.9134817  13.2158709  33.1266284  36.3313365  12.0009172
  75.7409382  74.5754910  21.2051916  76.5245914  74.5609665  21.7546582
  75.7246876  73.7139702  20.7883573  14.2185855   5.4997253  27.4329400
  14.2213309   4.7222835  27.9913378  14.3800104   5.1623344  26.5518355
  30.3424954  54.1027164  20.1898670  29.9292326  53.4812498  19.5905137
  31.1766481  53.6940432  20.4209685  32.4068952  31.1652613   4.4157624
  31.9280362  30.4597473   4.8507059  31.8231535  31.9217038   4.4729879
   1.0456692  16.6887188  13.3489752   1.8234791  17.2354376  13.4600675
   0.8325615  16.7616057  12.4186504  73.3665705  55.1605558  33.6701298
  72.4579000  55.4374743  33.5523987  73.7322664  55.7947922  34.2867637
  73.4172249   7.5025600  39.8341346  74.1159439   7.3550385  39.1967463
  73.7557173   7.1340978  40.6501579  24.4909716  49.1335964   2.6102883
  24.8944211  49.0779400   3.4765226  23.5497618  49.1049910   2.7821571
  68.5348320   1.1530705  49.9628687  67.6272583   1.4571419  49.9716902
  69.0560770   1.9528630  50.0326300  36.1683846  60.6139612  21.9669533
  36.8826199  60.9981537  22.4753737  36.2945700  59.6690083  22.0528245
  27.9849482  61.6916037  34.7742939  28.7789392  61.8853092  34.2760086
  28.0144453  62.2956800  35.5162215  51.9476744  74.9340289  53.8587332
  51.2337824  74.7291255  53.2549047  52.5172611  74.1654483  53.8258123
  30.6387281  64.0685797  10.4061937  30.3499722  63.6824083  11.2330699
  31.4375544  64.5457458  10.6307411  39.5203829  64.6686363  14.8657537
  39.6851802  64.1654730  15.6631887  39.7947741  64.0885353  14.1555238
  34.8934793  45.1807117   9.1548491  35.3086257  45.9779310   9.4839782
  35.6163573  44.5636749   9.0410787   7.5790644   2.4503912  34.4810128
   7.5540286   2.0241620  33.6243153   6.7042452   2.3108925  34.8435926
  16.9119450  15.0779499  64.3778963  16.6618963  14.9115481  65.2867510
  17.8664013  15.0055470  64.3749813  67.8490543  71.1216784  16.6978383
  67.3877478  70.3852272  16.2965059  67.8494835  70.9225035  17.6340866
  40.2529812  56.1128473   9.1372460  39.8477340  56.5704298   8.4006149
  41.1809826  56.0642052   8.9077348  22.7713346  19.2292893  63.2395029
  23.1319427  20.0836921  63.0024624  21.8971848  19.4236994  63.5775805
  23.0309701  41.1779451   1.2012191  23.3848810  41.0537195   2.0818698
  23.6542463  40.7322502   0.6275372  55.3243542  16.2098813   6.8170166
  55.6476784  17.0588458   6.5154362  54.4713497  16.4029026   7.2060674
  37.3615789  56.9715500   9.6439034  36.6858196  56.4640284   9.1944605
  38.1853771  56.6534710   9.2745692  25.0994611  61.1171961  19.3170953
  25.9327817  60.6519651  19.2438281  24.8852277  61.0794449  20.2492499
  10.7707310  34.9541092  55.6266308  11.7195201  34.8364592  55.6734276
  10.4499662  34.1519928  55.2143764  22.8890061  68.3080006  20.6497192
  22.3612285  67.5095701  20.6636095  22.6609302  68.7600374  21.4620471
  10.9591937  20.9916234  45.3760958  10.7636499  20.0655007  45.2336645
  10.9223580  21.3812923  44.5025778  67.8578949  66.5509748  12.2163618
  68.2653046  65.9281635  11.6144037  68.5720921  66.8347311  12.7870059
  62.1094942  28.5496354  57.1409893  61.7220402  28.8551521  57.9612160
  63.0482960  28.5037661  57.3220301  76.3153362  18.6261308  57.8204298
  77.2121334  18.3655250  58.0303764  76.2149000  18.4128535  56.8927145
  31.2996769  40.0549221  22.1996045  31.7850256  40.8293056  22.4842095
  30.4193521  40.1804113  22.5538850   2.6047713  42.8175259   3.4352601
   2.8404576  43.7320375   3.2792145   3.3764067  42.3213530   3.1620818
  47.3418856  12.8901637  33.5165668  46.7574930  12.8526735  34.2737389
  47.4443626  11.9772422  33.2476711  71.1124229  44.7881222  31.2537670
  70.5979681  45.3563404  31.8270874  71.1957026  45.2826738  30.4384661
  10.1677442  59.9653006  22.2862768  10.2287519  59.3893051  23.0483389
  10.4895771  59.4339418  21.5580511  15.9404731  62.6904631  18.4148896
  16.8331051  62.6155853  18.7522829  15.9458578  63.4975290  17.9002547
   6.1983538  56.5309525  50.5085611   7.0403600  56.2775230  50.1303625
   6.3917297  57.3179770  51.0179043  30.0848818  65.4655123  27.9370070
  29.5743370  65.2347946  28.7131143  30.1686096  64.6442270  27.4525380
  43.9333534  54.2245579  20.3729296  44.2695045  53.9118099  19.5330346
  43.7236309  55.1457167  20.2189469  48.7129402  63.2957888  16.3814676
  48.0810690  63.0725384  15.6980002  48.3825016  62.8573990  17.1655953
   7.1188772  55.0453424  20.7175350   7.1624494  54.7070694  21.6119099
   7.0364761  55.9930658  20.8236670  37.6496315  69.1487455  36.9457912
  37.8709984  69.8617363  37.5448513  38.4675336  68.9596939  36.4858675
  25.6683493  63.0767441   5.7932711  25.3506756  63.5969591   5.0552416
  26.4554548  62.6451874   5.4609191  20.0046372  68.4153509  22.6978755
  19.5508075  68.1797314  23.5070443  20.4465914  67.6103210  22.4280071
   5.5675358  72.0257998   9.9909598   5.6585544  71.0886335   9.8187035
   6.4561504  72.3719025   9.9084461  33.3319259  73.0812073  30.0858402
  33.0711412  73.8205671  30.6349969  32.5534010  72.5257015  30.0465679
   8.9361554  24.7399330  62.1408415   8.7069106  23.8131237  62.2094297
   9.8191226  24.7415447  61.7712498  36.9131926  25.3158683   0.2542229
  37.5318745  25.1163644   0.9568377  37.2158126  24.7917480  -0.4873637
  39.5717311  56.5584898  11.7859173  40.0252008  56.3214874  10.9769499
  39.2645836  57.4524593  11.6352415  48.6354828  61.0029602   8.6965144
  48.2686615  61.7128563   9.2235053  48.1285238  60.2310848   8.9483690
  77.6009655  50.2416658  45.0965405  77.4735641  50.7078743  44.2703152
  78.5506821  50.1548767  45.1786089  43.7450933  68.7064457  12.0809221
  43.2040787  68.1840467  11.4887762  44.5968485  68.2697392  12.0751572
  21.1497808  65.2564573  40.1711082  21.4626670  65.9099388  39.5455766
  21.9023156  65.0881577  40.7382059  28.4310460  21.7263627  57.8936625
  27.5449347  21.3644958  57.8842354  28.9202809  21.1467052  58.4775114
   4.6139723  26.9309711   7.8277022   3.8758877  27.5403953   7.8358167
   5.3076887  27.4011111   7.3651451  41.0517979  14.3592668  12.1540833
  41.8703508  14.6215677  11.7328930  40.8342361  15.0911427  12.7313685
  10.8340526  48.3440542  11.4049160  11.3235652  47.5291157  11.2931919
   9.9153340  48.0759668  11.3871181  46.6178799   7.1596968  32.9181314
  46.2913322   6.7443973  33.7163329  46.8144608   8.0593234  33.1794024
  74.2142963  27.3576355  62.2459888  73.7184191  26.7317414  61.7181635
  73.9432192  28.2151294  61.9181919  39.1108894  65.4267740  29.7451234
  38.9819527  64.9215174  30.5478215  38.2400751  65.4763556  29.3508434
  24.5481229  54.9594927   9.0819603  24.8696113  55.1310158   9.9670917
  23.6120462  54.7944784   9.1949165  76.7332840  20.4580784  34.3223715
  77.1490860  19.7485054  34.8121119  77.3166561  21.2071204  34.4442177
  45.4596138  14.8985696  63.7166882  45.2469349  15.6411219  63.1513405
  45.6042242  15.2878535  64.5791149  22.5691414  48.6224318  47.6082993
  21.8770480  49.2241859  47.3342037  22.3899841  47.8155136  47.1255779
  23.6331844  48.0838251  23.5718322  24.1261387  47.3570299  23.9526176
  24.2916369  48.6054230  23.1129098  36.0033107  55.7473469  33.7637091
  36.9554472  55.7138634  33.6712503  35.6736994  55.6994295  32.8663301
  54.4651937  67.4943972  10.0457013  55.1111555  67.6889753  10.7247519
  54.8070383  66.7159367   9.6059591  26.7965221  57.4988079  20.0195765
  27.2589517  56.6675329  20.1262307  25.8697104  57.2662401  20.0758195
  16.2401867  20.9873581  60.7158470  16.3630295  21.9195557  60.8951521
  16.6646087  20.8483338  59.8692274  72.1311760  56.6746378  10.9770679
  72.9953146  56.7583990  10.5739760  71.8831253  55.7627964  10.8245838
  54.5691681  31.4730263  44.2380333  54.0163469  31.2024665  43.5049438
  54.2137337  32.3204112  44.5060587  57.2022963  15.6735480  60.3995419
  56.7624426  16.4234114  60.8001232  57.5035954  15.9979105  59.5508718
  27.6395822  66.9958639  23.4186459  27.0566344  66.3185644  23.0756164
  27.1177316  67.4476385  24.0818238  70.9418821   2.6099846  28.4552026
  71.6435146   3.1558239  28.8101721  71.1322498   1.7314264  28.7840295
  48.5013199  13.3692360  20.4679513  48.9908409  14.1907907  20.4273558
  47.5825548  13.6361837  20.4388833  74.5367241  22.3672771  60.7818794
  74.3787861  22.2793174  61.7218542  74.0177155  21.6675782  60.3852987
   2.7793270  37.3873210  13.3115673   2.7499825  38.2678676  13.6857462
   3.3204144  37.4782848  12.5272322  22.0362568  63.2459354  13.7293994
  21.5018678  63.8580132  13.2234120  22.4196386  62.6637840  13.0733871
  28.5149360  62.4637461  30.2890682  29.1692543  63.0247927  29.8727393
  28.9996505  61.9928646  30.9669709  16.4548552  42.5469685  21.2706923
  15.6848562  42.8367949  21.7599130  17.1909475  42.7217627  21.8570781
  15.3489423  67.9178429  23.5832000  14.7070634  67.3113680  23.9525437
  15.1327872  67.9572678  22.6515603  33.9345074  65.5846930   8.7964624
  34.3397284  64.8153019   8.3963734  33.8855004  65.3721952   9.7284901
  74.5149755  45.2319336  15.0322998  73.7649441  45.8266354  15.0354481
  74.4122267  44.7210884  14.2293572  67.7763462  60.8882666  20.9510326
  68.7175941  60.7145119  20.9605598  67.4481058  60.4733372  21.7487335
  54.1316795  43.7599039   8.2877755  54.6692467  43.2987642   7.6438785
  53.2399273  43.4574556   8.1159371  76.9705200  50.5518055  58.4749794
  76.5054321  51.3800144  58.3566761  76.8296146  50.3272486  59.3947363
  77.0201826  56.6503954  63.3160734  76.9636965  57.5966501  63.1832266
  77.6382017  56.3513660  62.6490927  38.8673735  60.8709908  26.2752891
  38.9094687  60.8523846  27.2313809  38.7248826  61.7926502  26.0597086
  28.4576225  41.6579628  18.4942675  27.7750111  41.9930744  17.9129136
  27.9897857  41.1022902  19.1176379  22.8435993  16.8022346  46.8368053
  22.0053792  16.4618111  47.1494246  23.2997894  17.0814252  47.6306391
  59.0391541  11.9833446  25.8990359  58.6568594  11.5132141  25.1580501
  59.1895914  12.8691030  25.5688381  30.7860470  44.2994356  24.7955632
  30.2552247  43.9486980  24.0804100  30.1727009  44.3959188  25.5240750
  71.6762495  11.0269070  25.1059604  72.6126146  11.2239766  25.0810909
  71.5833759  10.3947985  25.8187342  12.3834956  60.2292013   7.2310889
  12.0524156  60.1581001   8.1263888  11.5968704  60.2598143   6.6865563
  70.5932999  62.3820019   3.8496390  70.6878281  61.5883732   3.3229071
  70.9020996  62.1300554   4.7199228  49.4327021   7.3047847  25.5305886
  48.9921141   8.1449527  25.4031825  49.1248798   6.7605770  24.8058033
  51.0554981   7.3074764   4.2308751  51.9711447   7.1161896   4.4339371
  50.8114672   6.6482151   3.5812181  18.0174482  51.4501858  23.9506125
  17.1768916  51.0067749  24.0649819  18.1416690  51.9412327  24.7628164
  57.3932695  63.8683748  14.5341218  57.6530981  64.6953964  14.9400222
  58.1710815  63.5816860  14.0555322  66.5120125  17.4101186  37.6742244
  65.8581591  17.4683666  38.3708692  66.1487675  16.7747319  37.0573235
   0.5058928  13.2681622  64.7217983  -0.4081372  13.2573809  65.0058107
   0.4841562  12.9177346  63.8313162  20.1794147  71.6278744   9.9237865
  19.5599532  71.9573450  10.5748987  19.7277474  70.8891058   9.5157981
  46.3526726  68.5591364  25.1898146  46.3396168  69.4546080  25.5277300
  45.4515266  68.3948040  24.9120235  19.5608437   9.4123900  62.3238182
  19.0306509   9.1927117  63.0898905  19.1725433  10.2200317  61.9874096
  45.8687687  38.3759904  11.9106472  45.3576565  38.5331321  12.7045631
  45.2181911  38.1376362  11.2502182  29.9062657  61.3754368  16.9756424
  30.4193878  62.1533632  17.1941984  29.0575123  61.5233898  17.3927248
  27.9883957  24.0879893  19.2678022  27.2682238  23.5178661  18.9984620
  28.6921096  23.4863710  19.5108497  57.1630049   3.4403449  15.9059465
  57.8852320   3.4864330  15.2794528  57.5795317   3.2037458  16.7346561
  34.4272637  22.9458284   7.8502727  34.3554330  23.0403614   8.8000810
  34.1564155  23.7960219   7.5037956  49.2239809  65.9905481   2.9448140
  48.8928652  65.5353022   3.7189871  49.2060041  66.9167805   3.1856546
   9.7739124  30.3186941  59.4857788   9.9410927  31.2346029  59.2635345
  10.6440485  29.9398088  59.6104431  16.5264535  10.9147465  63.5046625
  17.3387384  11.3728964  63.2889700  15.8388329  11.5641558  63.3574295
  41.7513752  18.6968076   6.3204563  41.9311094  18.3104968   7.1775979
  42.6067972  18.7400877   5.8931214  35.8913326  57.1817350  54.8755407
  35.0962138  56.7609024  54.5485544  36.5555668  56.4930725  54.8477888
  37.4647903  37.6419187   4.3232504  38.2444334  37.5776553   4.8748490
  37.1843243  36.7352843   4.1984138   7.6371163  25.1119566  49.7679472
   7.0401728  25.0312734  50.5118418   8.0924278  25.9409833  49.9150419
  38.6058545  59.6903372  11.9228613  38.8597178  59.7753763  11.0038650
  37.6590776  59.5516777  11.8979597  14.8671556  63.6989212  13.3590198
  15.6833553  63.9848518  12.9487848  14.2486012  63.6207533  12.6327205
   2.2417380  29.4608855  62.1202946   3.0794314  29.8586869  61.8831110
   1.7230400  30.1853657  62.4700260  12.1249485   2.5387204  49.0348387
  11.5060270   1.8101472  48.9863729  12.6352322   2.4736018  48.2276201
  10.5752039  27.5439739  26.8088698  10.1779532  27.6308513  27.6753998
   9.9192375  27.0781350  26.2902808  30.2678990  52.8231716  39.8271203
  29.6044135  53.5099936  39.8926806  31.0759401  53.2902431  39.6146345
  28.3591461  54.9795580  14.2728531  28.2178640  54.6033144  15.1415944
  28.2801080  55.9242582  14.4052410  70.8805227  54.1193962  31.1414099
  70.4149342  53.8251257  30.3585553  70.2849627  53.9194822  31.8636107
  11.5815222  45.6609201  19.6968973  10.7163334  45.3117180  19.9107671
  11.4179444  46.5708494  19.4489002  33.4271002  51.0074949   6.8568498
  32.7755332  51.3573647   6.2491620  33.2830095  51.4938211   7.6686096
  34.1351938  43.0499792   3.6737630  35.0356865  43.3174562   3.8576120
  34.0348554  42.2156382   4.1320616  73.9872265  63.0067635  24.4587231
  73.2438326  62.4150610  24.3425727  74.7563505  62.4581242  24.3048668
  32.4037933  69.9457216  13.0515110  32.7141571  70.4940319  12.3309147
  31.6405201  70.4104519  13.3945417  73.5391903  37.2413158  54.6885300
  74.3535948  37.7442813  54.6887827  72.9771805  37.6958227  54.0609980
  38.5061979  72.2485971  41.0444069  39.2852712  72.7653646  41.2498999
  37.7728271  72.8185987  41.2757063  51.0103750   7.8506339  13.5978758
  51.7412949   7.6136297  14.1686773  51.3166761   7.6388764  12.7160776
  37.8687406  46.1701155   5.4237175  37.5534081  45.3482962   5.7997566
  37.3151278  46.8428802   5.8201146  58.5769653  60.6497240  30.1865721
  59.2918444  60.1263475  30.5488634  58.7703466  60.7040691  29.2506862
  22.8756523  52.4869680  20.3324962  23.1674409  51.6557503  19.9581003
  22.6543856  53.0268812  19.5737040  73.1681776  32.3740649  35.2266431
  72.8694391  31.5199471  34.9144459  74.0483141  32.2107363  35.5656338
  69.7412300  15.6155539   7.8359866  70.2724552  15.0584805   8.4049350
  69.2651701  16.1877644   8.4377950  76.4095545  15.4761350  13.6354387
  76.4783430  16.2840605  14.1441202  77.1316099  15.5253172  13.0089819
  44.7242069  48.4771156  18.3367467  44.5436668  49.1031361  19.0379858
  44.1708994  48.7647581  17.6105642  56.1853504  14.1774464  16.7787421
  55.8797503  15.0628495  16.9759762  56.1716795  13.7258160  17.6225877
  31.5789413  38.7885904  12.4451840  32.0241904  38.1712222  11.8648052
  30.6954050  38.4329557  12.5406826  67.5800276  39.1423941  12.6468456
  68.0728149  38.3218384  12.6379812  67.6692247  39.4849658  11.7575097
  18.1702852  16.2988877  29.3061972  17.8795087  16.8965328  29.9950361
  17.4568689  16.3037145  28.6680388  33.7502933  56.8896580  29.4131494
  33.0144525  56.2866449  29.3076038  34.3555903  56.6543007  28.7099743
  10.8473372  32.2572994   8.8931739  11.3364840  31.4349866   8.9208984
  11.0671401  32.6381826   8.0429703  40.6524420  68.4532642  29.2877388
  40.1626396  67.9637909  29.9486041  40.1452446  68.3432627  28.4834480
  75.9649754  58.8441229  17.4042308  76.9002676  58.6771250  17.5207329
  75.6437874  59.0331650  18.2858956   8.1380814  73.4470320   9.1138524
   8.6634099  73.8491392   9.8056406   8.7161040  73.4341621   8.3509922
  52.4436998  72.9108095  14.2911398  52.3642540  73.0895805  13.3541441
  53.1254101  72.2414780  14.3503106  74.1783142  67.6761770   7.9724646
  74.2306423  67.3670149   7.0680785  74.9987984  68.1490660   8.1117809
  16.8033421  17.8071272  50.0198412  16.9004488  18.1990325  50.8877182
  17.4971437  17.1491957  49.9751472  61.2326527  27.0379281   5.4290926
  62.0150661  27.3667812   5.8717203  60.9440374  27.7667785   4.8798123
  63.5154629   1.6528280  18.2189369  64.4139004   1.7905672  17.9188204
  63.3432484   2.3894823  18.8053787  23.9108014  70.9132862  62.7059507
  24.1164231  70.6371880  61.8127966  22.9848599  71.1539364  62.6750755
  42.1453190   5.1170856  50.4478407  42.1063185   5.9305024  50.9508991
  43.0790710   4.9136776  50.3933954  18.9967608  69.5392466  20.4047585
  19.4804192  69.3075609  21.1976194  18.6458898  68.7074518  20.0865769
  54.5376015   3.9745554  15.3674364  54.4131422   3.1554326  15.8467901
  55.4875803   4.0802070  15.3163481  35.9389329  72.8919029  22.1565819
  35.9339714  72.5403690  21.2662816  36.2278414  72.1599054  22.7015090
  66.0565567  12.9408467  14.8791289  65.7972765  12.0343351  14.7140777
  66.6806316  12.8835201  15.6026471  38.5056376  57.8267431  17.6969540
  37.5785494  57.8838968  17.9281950  38.6366153  58.5269308  17.0575678
  31.6569996  54.4318676  32.0119667  30.8535910  54.7056723  32.4544597
  31.6822505  54.9591064  31.2134576  70.5727243  44.0015984  37.7279711
  70.2249098  43.1456566  37.9782128  71.4358568  44.0391874  38.1400609
  35.3878927  68.9951372  21.1572289  34.7567940  68.3457708  21.4675045
  36.0875535  68.4777021  20.7585263  44.7164345  45.1505184  11.3027120
  44.1525221  44.7645664  10.6324303  45.5094528  45.4051161  10.8309805
  33.6620259  61.4861727   7.3377109  33.4943676  60.7832003   7.9653674
  34.2048407  62.1115255   7.8178340  12.3023391  67.8543568  64.1258907
  11.8019354  68.6365366  63.8934660  12.4977219  67.4369574  63.2869387
  50.3090858   4.6255946  31.4097643  51.0793543   4.4359022  30.8741021
  49.6246862   4.8426491  30.7767463   2.6129821  70.0697088  10.3039110
   3.5313174  69.7998476  10.2956259   2.4134909  70.2119827  11.2292182
  58.8585091   3.9504144  22.4195290  58.4657288   3.1239969  22.1384740
  59.4272947   4.2046362  21.6928363  29.9201226  64.4037628  36.0016751
  30.6580973  64.9959230  36.1464906  30.1693487  63.5961294  36.4509511
  71.9851065  36.2796855  14.1050529  71.6834164  36.2673926  13.1967235
  71.8398428  35.3867531  14.4177842   0.8487821  62.6668406  12.5436926
   0.9711111  63.6076593  12.4166954  -0.0980780  62.5582743  12.6325774
  11.5674317  22.7256203  52.9893875  11.6702819  23.2753730  52.2125816
  10.8217025  22.1609735  52.7861786  31.9523525  40.1699066   2.0164573
  31.2833929  40.4997540   1.4165188  31.4616656  39.8749518   2.7835685
   1.6785581  34.3547249  63.1782198   2.6099151  34.1346502  63.1975412
   1.5241680  34.8154902  64.0028954  54.5589876   0.8652874   8.3341658
  53.6307335   0.8595170   8.1006318  54.7871876   1.7934483   8.3858794
  55.4986715  68.0743742   4.4429943  56.0362387  68.0235052   3.6526364
  55.3063488  67.1623755   4.6609557  76.5935564  51.9191313  51.4600897
  76.2987041  51.0181665  51.3276052  76.4610243  52.3417473  50.6115246
  55.9650373  61.8194103   4.0891227  56.3130999  62.5106430   3.5258511
  56.7339611  61.3114929   4.3479809  42.2242069   3.1346145  40.4492283
  42.0719004   2.2315520  40.1708174  41.5526009   3.6422014  39.9936724
   3.3628839  65.3671455   1.4874844   2.8319055  64.8455715   2.0893571
   3.5673648  64.7690535   0.7686643  31.5777850   7.7765101  56.7811251
  31.0505128   8.5455781  56.5649080  31.0605597   7.3079854  57.4362564
  27.3576069  72.3753214  48.0929804  27.2559619  72.4186945  47.1421814
  27.0182729  73.2128620  48.4085894  55.3559923   7.6025569   6.6546458
  55.2428007   8.2961011   6.0047108  54.5081520   7.5466585   7.0954037
  22.3255324  74.1262388  14.1539049  22.8666353  73.3822298  13.8895392
  22.2558451  74.0456963  15.1051605  64.1129923  64.1753197  61.2604427
  64.9279881  63.7497425  61.5267134  63.4867477  63.4572601  61.1685610
  27.3454809  60.4354668  26.9610000  28.2633662  60.5619478  26.7207456
  27.0920706  61.2579060  27.3800588  50.2101040  24.5351672   8.8516784
  50.5881071  25.3251147   9.2381042  50.9647417  23.9803481   8.6543804
   2.1380375  46.8741131   2.4912970   2.5842723  47.3583746   3.1859872
   1.8681282  46.0546637   2.9058874  76.8591022  12.8982377   3.2285476
  76.7500639  12.1549284   3.8217020  77.7235270  13.2498431   3.4415564
  55.0236607  62.4273872  33.8169074  55.1752663  62.8226662  32.9584169
  55.8839750  62.1076202  34.0886497   7.1981573  17.8610265  42.0199108
   6.9512665  17.0709264  42.5005531   6.9257921  18.5817921  42.5878429
  19.1292775  16.7937958  16.4384973  18.9656174  17.6989841  16.1737704
  19.2294431  16.3175714  15.6142342  24.8194122  52.3847628  15.5516827
  25.0552201  53.3073473  15.4544091  24.3525481  52.1704340  14.7440124
  77.4849033  33.4648395  41.3097286  76.8706894  32.8785658  40.8678532
  78.1145477  33.7078309  40.6309509  51.6626072  60.7125187  12.1521282
  51.3568258  60.3713036  11.3117123  50.9856558  61.3345432  12.4186826
  34.9608302  24.5864487  12.9050040  35.7211876  24.8394656  12.3814881
  35.1343679  23.6793494  13.1565762  68.9539433   8.9920247  22.2974563
  69.8753452   9.1793931  22.1181798  68.7177706   8.3190250  21.6590786
  75.1784611  10.6343579  25.6214976  74.9423218  11.1573076  24.8553443
  76.1151552  10.4668367  25.5176902   1.4219806  23.8413072  21.4120555
   1.0004774  24.5845246  20.9805512   2.3551291  24.0540934  21.3983393
  14.4328201  74.5732450  13.0117488  14.1048312  75.3745031  13.4199643
  14.1724002  73.8746691  13.6120844  69.8275328   1.8530406  61.8231392
  70.0053263   2.5466040  62.4584246  69.6268845   2.3179629  61.0108471
  70.1634312   6.5531033  24.6669745  70.8863163   6.3013214  25.2416706
  70.1328230   5.8631057  24.0042543   0.2882647  39.3603393   0.4368373
   0.3640771  39.7206378   1.3203879  -0.4040170  38.7028105   0.5048867
  70.7691956  39.7178197  50.3134346  70.0384569  40.2174854  50.6775618
  70.3817797  39.2140460  49.5976448  51.5940380  19.6604955  13.3217621
  50.8451033  20.2493811  13.2293391  52.1379614  19.8426723  12.5554776
  31.8654275  22.6925731  60.0344944  31.9115901  21.8330932  60.4533005
  31.0235715  23.0510569  60.3155613  75.5111885  45.4691696  43.7134552
  75.2920389  46.2653971  44.1974258  75.2727222  45.6661940  42.8076172
  17.5881112  22.9758310  51.9149923  17.9904723  23.7903523  52.2164774
  17.3979950  22.4910069  52.7181339   8.2823962  42.5352573  45.7023287
   8.6108410  42.5721264  46.6006613   8.9555377  42.0544434  45.2207422
  11.2470913  71.8567562  25.0491166  11.8320012  71.3590670  25.6204462
  10.3674936  71.5876675  25.3139400  12.7212501  52.0946217  18.1660402
  11.9783187  51.5911102  17.8332281  12.8799951  52.7589607  17.4954581
  71.2095594  32.4777269  11.8709385  71.0078764  33.3150983  11.4533699
  70.9987688  32.6138043  12.7946711  13.0843008  28.5614467  64.5567131
  13.6487544  29.3069458  64.7613001  12.5342369  28.8682103  63.8359070
  78.5392141  34.4101763   8.0429679  79.0870190  33.6679363   7.7875853
  78.9850283  34.7870851   8.8015330  56.6987610  14.4534183   3.4713453
  56.9850636  13.5580719   3.2907379  56.8036795  14.5521402   4.4176421
  41.1167860  54.9015331  18.8568485  41.5787888  55.6735420  19.1836274
  40.9106302  55.1133060  17.9464197  65.4070711  54.1617870   4.3269417
  64.9597311  54.2628241   3.4867588  66.3351107  54.2693949   4.1186303
  20.0733304  53.0189705  56.1012220  20.1222730  52.1150732  56.4123631
  19.5631242  53.4752941  56.7703199  14.5813572  68.0382633  20.9116769
  14.1904402  67.5379419  20.1953721  14.4316125  68.9533854  20.6742668
  55.3210402  45.3283644   9.8750901  56.0951042  44.7679234   9.9295288
  54.6468163  44.7687817   9.4897121  16.0025191  48.3029699  10.8606076
  16.0988820  47.7235365  10.1048291  16.3606036  49.1408014  10.5672657
  55.5526924   6.4497876  18.8491845  54.5983934   6.4201522  18.7808335
  55.8300781   5.5422515  18.7240219   8.3749503  12.6309073  11.0113561
   8.9858246  12.4104130  11.7145252   7.6014888  12.0958757  11.1894870
  38.7239361  70.9143639   6.4472026  38.9468861  71.6915941   6.9594926
  39.1681337  71.0442448   5.6093168  73.9407778  27.6287842   3.4095976
  74.3112898  26.7762113   3.6377934  74.3136263  27.8299856   2.5512648
  11.0132051  44.4821835  59.4022560  10.9448349  43.5508728  59.1919756
  11.9479489  44.6265030  59.5494175  40.0578451   3.4614199  12.5756872
  40.5130386   3.5909516  11.7436683  39.9707651   4.3420026  12.9406846
  74.8933935   9.8800981  11.2344038  74.6910524  10.7621622  11.5462589
  75.3037405  10.0162470  10.3804064  13.5560131  65.9404993  24.3187618
  13.2475698  65.3102541  23.6676979  13.6267281  65.4338789  25.1278162
  28.3476591  71.2593412  16.0098779  28.6942148  70.4333067  15.6725383
  28.6192346  71.9136906  15.3662086  62.4395943  12.0037425  48.2580280
  62.8077173  11.4061975  48.9089155  62.4976206  12.8676569  48.6660910
   9.7523201  46.9176102  59.7103882  10.4064655  47.5843573  59.5011520
  10.2310228  46.0899401  59.6652651  63.8132811  26.6601872  20.4701495
  62.9473972  26.7524505  20.8676004  64.1909552  27.5387239  20.5121803
  55.8494043   3.6858249  18.5532534  55.3893423   2.9266974  18.9114439
  55.9642220   3.4804526  17.6254225  67.6701689  60.4516411  18.4149349
  67.2258091  61.2404966  18.1043196  67.5921917  60.4923964  19.3680823
  35.6448364  53.8166475  52.3088837  36.5345597  53.7604570  52.6574039
  35.1317310  54.1963482  53.0221748  14.2105043  65.5855799  52.8324747
  13.6213028  65.8243704  53.5480547  14.2985642  66.3873339  52.3170471
  25.4182386   5.6316197  18.3429122  25.3325963   5.1113176  19.1417754
  26.0646772   5.1597190  17.8178811  16.3208854  14.9525785  33.2871723
  16.3541627  15.8965373  33.1320357  16.5791976  14.5632982  32.4517274
   5.3898257  55.8770084  35.2284670   6.1342901  56.4025784  34.9355865
   4.9765694  55.5753517  34.4194818  65.6005716  61.2532187  38.0371904
  65.1513195  62.0460272  38.3302021  64.8947001  60.6506681  37.8028536
  36.5333986  67.0609951   9.0687090  35.6271243  67.0297003   8.7622446
  37.0146751  66.5120602   8.4496176  16.3580263   1.9007456  25.0543976
  16.9848645   2.5827438  24.8131824  16.5130293   1.7520370  25.9871840
  79.1865301  22.1015239  13.2570755  79.0964651  21.4105749  13.9133596
  78.9346409  22.9025722  13.7165380  46.1283779  70.4047775  35.6101036
  45.8486176  70.7698822  34.7706604  46.3085651  71.1701059  36.1560321
  19.4704401   7.7122092  40.4049921  19.6533728   7.8713757  41.3309717
  19.4933295   8.5808676  40.0035715  54.9303007  52.3463392  14.8184967
  55.7949543  52.4075603  14.4124627  54.3457365  52.1010637  14.1013134
  49.7062016  66.7105532  22.3812175  50.5477238  66.8480492  22.8161502
  49.9189425  66.6927147  21.4481282  46.7058325  45.7968378   9.7489339
  46.0229635  46.3975954   9.4505924  47.0710421  45.4304028   8.9435887
   1.0652116   3.6750191  30.9582782   1.5830897   4.4720459  30.8452201
   1.7119056   2.9927725  31.1387157  36.1714411   8.3793390  32.6208997
  35.4841304   8.4619230  31.9598269  36.7123270   9.1602021  32.5028944
  29.4069481  67.9938507  49.1448021  30.3077221  68.2025003  48.8972044
  29.0287280  68.8343811  49.4030619  76.0999584   9.6547079  17.1042144
  75.6915712   8.8006455  17.2457445  75.9457827   9.8434722  16.1785626
  70.3213930  49.3959665   5.0093114  70.4616165  48.9068222   4.1985652
  70.1699734  48.7223625   5.6723028  71.2977362  46.1406755  19.9691033
  70.5371761  46.0229921  19.3999529  70.9700727  46.6619825  20.7019806
  30.4873085  58.9252329  12.8497219  29.8706412  58.7211370  12.1466589
  30.1215816  58.4936619  13.6218774  30.4189777  58.8983154  34.6650553
  29.6549058  59.1285276  34.1364479  30.4367971  57.9413176  34.6562290
  39.1223502  70.1758718  21.7770505  39.4847894  69.5313549  21.1692095
  39.0338778  70.9736490  21.2555599  67.0602322  70.1734495  12.7113950
  66.1961126  69.9012613  13.0203378  67.6745319  69.7261858  13.2934785
  53.8316011  24.9782181  23.0887818  53.8406420  25.6439090  22.4010277
  54.1126680  24.1757679  22.6491165  42.4961996  60.9616804  41.8820858
  43.3115292  60.4602146  41.8799829  42.6029205  61.5953636  41.1726570
  31.6737556  66.9968462   8.5576087  32.3796177  66.3523674   8.5062563
  31.7299223  67.3431253   9.4482076  60.4238033  35.7426047  23.9703703
  59.8073530  35.1020026  24.3251276  59.8705292  36.3951612  23.5410786
   1.9219983  73.3645296  51.1668634   1.5365350  74.1940260  50.8847570
   1.1701939  72.8061152  51.3648462  62.9891014  22.6872921  28.3381796
  62.1472216  22.6797175  28.7936091  62.8819942  22.0564246  27.6263046
  64.4446564  67.6408958  26.1381912  64.1441536  68.3773041  26.6707683
  65.2363443  67.3333645  26.5796494   8.8677305  68.0222321  25.0752378
   8.1097031  67.6087999  24.6620822   9.6230638  67.6256657  24.6411419
  40.8008432  52.4037552  16.1769426  41.0559225  51.9696379  15.3628731
  41.0381794  53.3214235  16.0435677  73.5970020  25.9618282  42.5201511
  74.1881657  26.5850163  42.0977879  73.3117723  25.3845167  41.8119192
   2.7915326  42.1980715   7.8428584   2.4679790  41.3064766   7.7139956
   2.1355319  42.7540350   7.4223858  33.1719589   2.9621756  13.3760035
  33.6059952   2.9589939  14.2291355  32.3909330   2.4234746  13.5026181
  59.2661333  25.2886677   0.9009726  59.2635727  26.0591984   0.3330758
  59.7548103  24.6294975   0.4080997  39.1415000  56.3694620  28.9729142
  39.5499253  57.2113228  28.7711906  38.9059162  56.0068083  28.1189752
   7.9714274  17.9868531   5.6562424   8.0829555  18.1557178   4.7206795
   8.3530641  17.1193051   5.7902002  13.4492362  41.7007637  62.0245361
  14.3068075  41.7814541  61.6070509  12.8486705  41.5118456  61.3035202
  77.9916620  46.1907339  63.6894560  77.2966671  46.3299704  64.3327522
  78.6608791  46.8364239  63.9163208  16.8651295  12.1452618  50.4108143
  17.2896922  11.7947340  51.1938286  16.3449037  12.8825641  50.7301617
  59.9477768  49.9997997  21.1979413  60.0942945  49.0635633  21.0629463
  60.5688906  50.4269361  20.6080198   7.4676847  17.2679746   1.4394900
   7.8775239  17.7603185   2.1507296   7.8632617  17.6230133   0.6434377
  48.6510420  41.9778585   4.4831166  47.9188967  41.8358898   5.0831491
  48.3578110  41.6002083   3.6538851  43.8094616  69.7578430  28.8028049
  42.9921532  69.6467495  29.2884970  43.8597250  70.6980515  28.6304140
   7.9193860   2.2233476  28.6745954   8.7135088   2.5845617  29.0684557
   7.2444594   2.8783339  28.8526368  63.0524158  26.1851263  50.7205439
  62.1757889  26.4900732  50.9545565  62.9830360  25.2304530  50.7249928
   0.3504391  18.0644774   1.0327835   0.4340811  17.2688985   1.5584177
  -0.3370456  17.8613019   0.3984998  33.9574981   1.4947835  46.6688490
  33.3560824   2.0846063  47.1234274  34.6271515   2.0718533  46.3017225
  67.4667978   2.5806776  24.0445447  67.2637367   3.2499158  23.3910012
  67.6493645   1.7930809  23.5321045  10.2038884  21.5976119   9.9222249
   9.4501555  22.1611857  10.0968742  10.1430857  20.9054661  10.5806065
  19.7500753   9.7952664  17.0348728  20.2901101   9.1779441  17.5283372
  20.3179169  10.5534744  16.8973649  78.5620356   5.6523210  26.4366031
  79.3342781   5.6590831  25.8710647  78.4207582   6.5722847  26.6600728
  18.2636201  55.4415941  35.4718375  19.1855884  55.3468132  35.7110453
  18.2394600  56.2196779  34.9148440  59.4012499  60.8627415  61.0883331
  59.7095108  61.4026117  61.8161726  59.1523743  60.0325203  61.4945650
   7.3215920  22.5830507  19.1648817   8.2464236  22.7879858  19.3024337
   6.9791746  23.3345056  18.6808395  67.1768713  64.1398954  27.4986243
  67.2405052  64.8617220  26.8732095  66.4029646  63.6498499  27.2208643
  51.5483904  32.8918028   3.6884981  51.7452049  33.7025142   3.2191962
  50.6106806  32.7572274   3.5512847  76.3009691  66.6894388  37.1929240
  75.4405737  66.8051958  37.5960946  76.7417336  67.5289726  37.3238564
  39.6165752  11.4693260  25.2519584  40.0660038  12.2374237  25.6044769
  39.6228862  10.8372581  25.9707642  28.9696026  18.3983922  22.6767087
  28.6711645  19.2902303  22.4984050  29.4404554  18.1404531  21.8842459
   3.5934791  55.1201630  59.0275812   2.9019997  55.7818604  59.0119362
   4.3908972  55.6116581  59.2245388  53.3896446  31.1971569  41.5024471
  52.6363564  30.6105900  41.4337111  53.2840633  31.8089724  40.7739115
  41.9871950  25.1404738   0.6151679  41.9060421  26.0941672   0.6259333
  41.2929535  24.8344183   1.1987679  44.8936939  10.6630909   2.1984144
  44.7357130  10.7043517   3.1415847  44.2967319  11.3126063   1.8269330
   2.6385427  11.9111311  59.2704439   3.4531915  12.1575177  59.7084761
   2.2293870  12.7449489  59.0389872   7.8537810  60.7600832  52.7545357
   8.3031392  61.5408850  52.4310255   7.9238093  60.1292801  52.0380068
  68.6011219  61.2969542  62.8387976  68.7690687  61.8634462  63.5918665
  68.5863447  60.4120159  63.2033491  16.4419580  31.0304785  19.7045279
  16.4598167  30.1968980  19.2343593  15.6753087  30.9677577  20.2742195
  68.5861874  42.9743958  56.6067505  69.2588472  42.3251724  56.4011526
  68.2395554  43.2382965  55.7544374  25.1520276   4.8242825  23.8765478
  24.8390245   5.5912477  24.3561578  24.6755099   4.0894100  24.2627144
   9.5978415  24.9689007   0.0368501  10.1261270  24.9955702   0.8346184
   8.7337178  24.6811342   0.3313196   2.2418045  60.9493685  28.0402350
   2.2245771  61.8677711  27.7710271   2.1085416  60.9749842  28.9877653
  38.2432675   9.4612223  57.7892447  37.6784992   9.9552423  58.3835649
  37.6484251   9.1213161  57.1207714  24.9095106  18.3242404   8.9598018
  24.3457413  18.9791894   8.5481751  25.7480931  18.4111595   8.5065293
  59.3894815  29.8824692  20.2546239  59.3245554  29.7411346  21.1991024
  60.3098679  30.1005626  20.1077938   2.3424145  18.2475771  64.6702634
   2.1656009  17.5200428  64.0738904   3.1840225  18.0297722  65.0708750
  52.1093130  36.3275170   3.5487822  51.9889307  37.0385146   2.9193214
  51.6347265  36.6151762   4.3286869  47.9333258  28.0862069  55.7113695
  48.6730051  27.6165724  56.0967875  48.2250500  28.9967465  55.6661654
  23.9346385  67.9108286  16.8690395  23.2256103  68.4134769  17.2701085
  24.6419001  68.5452366  16.7526650  17.2675824  17.0335829   3.6893442
  16.3743293  16.8086827   3.9496335  17.4998772  17.7759469   4.2471677
  61.8627357  63.7449026  22.4397469  61.6809511  62.8051376  22.4352241
  62.8172398  63.8044167  22.3996186   0.5979018  42.1953249  42.5317287
  -0.3041607  42.0027781  42.7875423   1.0815323  41.3957405  42.7390957
  33.7743020  32.3025751   6.4502853  34.5830488  32.4835086   5.9713060
  33.2256722  31.8301702   5.8241296  24.9556017  29.8240972   2.7653012
  25.4651523  29.3160748   3.3965731  24.0597630  29.7941971   3.1011689
  36.7505097  17.7748084  19.4844794  37.6957989  17.8811216  19.5910382
  36.5946293  16.8440294  19.6444321  57.4243212  51.8164635  54.1824579
  58.1597090  51.3913155  53.7412214  56.9131136  51.0936928  54.5464659
   7.3303372  47.7276564  46.3090611   7.9706901  47.7685833  47.0193434
   7.8477150  47.5160027  45.5320406   7.6145482  43.4886217  50.6540442
   7.2933590  42.5915432  50.7452631   8.1192231  43.6446619  51.4522839
  51.6421604  31.3030362   8.9701599  52.0907640  30.4689169   9.1088462
  52.2484922  31.8149900   8.4349018  17.3506117  72.4971724  45.2729797
  16.5447295  73.0101061  45.3336811  17.2049844  71.9091177  44.5318842
  14.8590243  13.9159858  59.9032736  14.7961104  13.2241774  60.5618143
  14.0057969  14.3491054  59.9286222  26.4018893  74.1788483  62.3640633
  26.9866920  73.9021397  61.6586113  26.9601870  74.6870184  62.9525375
  76.5627193  21.7779303   3.6087957  76.8781137  21.4620638   2.7620453
  77.0558310  22.5837922   3.7626097   6.5727222  25.6863856  32.7625966
   5.9016627  25.1261973  32.3725963   6.1500156  26.0655332  33.5331798
  66.3474607  61.4011765  46.9023991  66.6011047  61.5063334  47.8193712
  65.6855536  62.0773697  46.7579222  14.1082525  43.6367178  12.8441143
  13.1699896  43.6212254  13.0329370  14.3210125  44.5664787  12.7634561
  57.6770496  49.3809414  22.7366805  58.3108044  49.4725800  22.0252132
  57.2279358  50.2256727  22.7676606  11.2947917   8.3696032  62.6089668
  10.6516588   8.8923699  63.0878448  10.7743895   7.8590071  61.9887209
  44.4431353  64.5863581  -0.0218306  44.8184824  64.5165968   0.8559400
  43.5090685  64.4185781   0.1030677  26.2609887  14.3082345  39.5469451
  26.6726303  14.9640870  38.9842367  25.8555532  14.8161173  40.2497292
  24.1347790  49.4183922  30.1633024  24.0747404  48.8287878  29.4116426
  23.6930943  48.9495516  30.8713508  17.8569257  59.6077394  33.3424735
  18.2054496  59.6179485  32.4510360  18.5933399  59.3243313  33.8843250
  56.5919256  43.2381964   6.3634843  57.0065928  42.8557396   7.1367979
  57.3220968  43.5587120   5.8340019  36.7541933  22.0561647  17.9171443
  36.3494062  21.4141631  18.5004234  36.7454076  21.6370130  17.0566404
  55.2990961  58.2817078  61.6125870  55.1132441  58.8366508  60.8551407
  55.2123070  57.3877525  61.2816000   1.2428083  50.0132990  42.7369308
   1.3605800  49.9063730  43.6808205   1.5260483  50.9104156  42.5603294
  50.4089975   3.1146595  53.4503269  51.2697697   3.5211861  53.3501101
  50.5395794   2.2067553  53.1766653  23.3457661  51.0936022  23.7712741
  24.0506554  51.0049486  23.1297874  23.5516167  50.4450369  24.4444895
  50.9692574  66.5228558  49.7916889  51.0939741  65.5840445  49.9306583
  51.6166544  66.9374800  50.3619528  79.6459703  16.9995081  54.8256207
  79.1399930  16.4139330  55.3889322  79.0060669  17.6346123  54.5040607
  50.5455923  45.1155090  18.3090818  51.1315966  45.3945780  17.6055551
  50.1511097  45.9271145  18.6283100  73.5840797  71.9600153   7.1460223
  72.9646826  72.0012712   6.4174086  73.1273603  71.4572573   7.8204662
  45.9780598  52.7580023   8.8802141  46.2922192  52.0273495   8.3475953
  45.3252983  53.1917191   8.3306491  69.8916960  70.3655243  46.2346411
  69.0455246  70.7014465  45.9390259  70.2482367  69.9100113  45.4720020
  28.6026692  16.3951480   4.3177423  28.0380845  16.1748052   3.5768482
  29.4119072  16.7117703   3.9163500  32.1120000  20.0635672  12.9430914
  32.3720741  19.2069781  12.6041985  31.3475394  19.8827291  13.4900177
  19.9801672   4.7408390  49.7743034  19.9594963   4.0191877  49.1457939
  20.6201196   4.4677037  50.4316378  72.8848171  71.4711666  35.3769040
  73.6152029  72.0015287  35.0583410  73.1953144  70.5685282  35.3057194
  66.7614841  50.9704542  12.8565681  66.6538000  50.7151937  13.7727988
  67.1961689  51.8224049  12.8947830   7.4887902  33.4581375   5.8255172
   7.3426211  32.7080584   5.2491093   7.1754849  33.1668258   6.6817933
  54.9057055  19.3928158   3.9640668  54.4630098  19.7227633   3.1821543
  54.9712324  18.4485328   3.8217083  64.0966988  58.8570499  37.6706481
  64.0445805  58.0773878  37.1177959  63.2358885  59.2673874  37.5878024
  51.8241644  56.0177851  15.7979774  52.6434660  56.0898542  16.2876570
  51.7547989  56.8464375  15.3238940  53.4049225  72.6077652  54.0451717
  52.6923418  71.9775534  53.9388990  53.4667969  72.7421093  54.9908781
  78.5811520   0.7262967  20.9322596  78.7548876   1.2378360  21.7224336
  77.6386166   0.5611268  20.9562850  59.0622520  69.4062281  39.5805740
  59.8948193  69.8181486  39.3495226  59.3068504  68.5444450  39.9178147
  23.6769295  37.9300070   9.9708503  24.6036935  37.6908994   9.9839079
  23.3271956  37.5779819  10.7893836  72.9913330   1.8991759  41.0864067
  72.6796579   1.0371256  40.8107996  73.3708525   1.7509888  41.9525671
  35.4479885  50.0905228   1.2649707  34.7701716  50.1486206   0.5916051
  34.9956584  49.7352934   2.0301120  58.6360025  74.6204615  52.5692177
  58.4853411  73.7034941  52.3396397  59.2102337  74.9492979  51.8775845
  11.7221165   6.9056356  51.8145514  12.0099640   7.3726457  51.0301590
  12.2443879   6.1034989  51.8209124  55.5725670  35.1084852   0.8241825
  55.3658915  35.4333544   1.7005248  55.1953840  34.2290759   0.7996237
  56.5864563  66.5620804  35.1952791  56.9312143  65.7427979  35.5504584
  56.5778637  67.1617222  35.9413242  20.7823014  22.9194355  61.6406250
  20.8386970  22.0840573  61.1767340  21.5034986  22.8933692  62.2694540
  73.1463766  10.1951432   5.4848182  72.8295755  10.5853081   6.2994599
  73.2757139  10.9395623   4.8971578  34.2346621  67.9176188   7.2051257
  33.8871551  67.0562220   7.4363488  34.0221357  68.4712076   7.9565299
  20.9979653  58.8646364  50.4142666  21.2252140  59.7267723  50.7625580
  21.0763383  58.9614630  49.4652081  48.1973553  34.4898057  12.4796605
  48.3525515  34.7157478  11.5625477  49.0302420  34.1270351  12.7812088
  27.6854372  56.6347885  23.3502769  27.4666739  56.6852140  24.2807770
  27.5831699  57.5314522  23.0312586   0.7691965  50.6005478  49.8113823
  -0.1456666  50.3406525  49.7031641   1.2593091  49.9838448  49.2675972
  79.0866474  63.1110239   8.0852753  79.3506056  62.5101328   8.7820476
  79.2534883  63.9824200   8.4445226  31.0826921  45.6326532  12.1864522
  31.3909030  44.7350407  12.3110938  31.7149305  46.0211992  11.5818560
  24.1462278  23.0014563  47.8004313  23.8650870  23.1388450  48.7050390
  23.8963461  22.0980191  47.6065445  34.1739416  48.5849142  16.7390954
  35.0821686  48.5258198  16.4426780  34.1103411  47.9424095  17.4457574
  22.6870465  13.1540036  16.5599215  23.2769823  13.3090913  17.2975910
  22.7719903  13.9374006  16.0165000   4.8776427   7.7832133  41.6821766
   5.0453925   7.3647100  42.5265360   5.0783932   7.1066880  41.0354567
   2.6408800   2.2725563  49.4319057   2.2389132   3.0860463  49.7366810
   2.6711795   1.7145482  50.2090406  26.5753126  30.7208061  19.4521141
  26.3096118  31.6355062  19.3574595  27.5122476  30.7621455  19.6436310
  27.8840971  18.1138587  60.4158878  28.3272696  17.3420811  60.7682896
  28.4506321  18.8465750  60.6575441  25.1760578  17.9363716  35.5575562
  24.4589329  18.5686851  35.5112600  24.7425771  17.0904231  35.6702352
  63.7249088  68.0054188  61.0062218  62.9674006  67.4373341  60.8658981
  64.2075300  67.5890493  61.7203236  69.9830723  68.9417505  10.7032394
  69.9409151  68.9083052   9.7475529  69.2365980  68.4180689  10.9943867
  56.4723253  53.3316422   3.8834214  56.9982243  53.5533142   3.1149650
  55.8428860  52.6848888   3.5644376  59.8471117  70.9488964   6.3904756
  59.2514515  71.4592505   6.9390720  59.7092485  71.2890530   5.5064392
  75.9229469  55.7423830  54.0550995  76.7059708  55.6034946  53.5223532
  75.2656317  56.0606718  53.4363413  18.9633632  72.2057581  18.3518660
  19.3654203  72.1706533  19.2198229  18.0601144  72.4760962  18.5170662
  38.9797091  23.7991047   5.8157218  38.3666277  24.5258880   5.7055128
  39.8276186  24.2202950   5.9567142  28.1015062  34.9535751   6.0602611
  28.8640952  35.0162721   5.4851454  28.2543135  34.1612482   6.5751392
  26.2388921  48.4717703  19.7451961  25.3023934  48.5187435  19.9375355
  26.4260197  47.5344801  19.6932554  13.5521817  20.2914524  47.4170160
  12.9343319  20.9606862  47.1227026  13.1406260  19.9099433  48.1924534
  65.5255222   6.7561358  48.5924435  64.6333694   6.8423396  48.2564926
  65.8812094   7.6441365  48.5581684  78.5711861  41.7232752   6.6970378
  77.7396965  42.1939468   6.7546821  78.8115120  41.7740488   5.7718909
   6.5185710  74.7020112   7.4215937   6.9619318  74.0891064   8.0081189
   6.3443275  75.4703072   7.9652774  54.4695473  71.2857819  41.2732887
  55.3040028  70.9985447  40.9025955  54.2113161  72.0319891  40.7322502
  28.8506770  16.9642889  19.7848487  27.9956126  16.8793166  19.3630910
  29.4160748  17.3352766  19.1074085   8.4335476  59.6628618  55.3758907
   8.2951748  60.1395082  54.5574188   7.7296221  59.0145922  55.3974771
  11.9542217  12.9484999  17.3144567  11.4322841  12.3036909  17.7919865
  12.8280783  12.8817594  17.6993608  58.9004707  33.0355430  28.2635069
  58.5944080  32.1802402  27.9618144  59.5154142  33.3217692  27.5881219
  10.4226124  58.3399391  49.5138884  10.7626426  57.4723244  49.2951107
  11.1055732  58.7352228  50.0556850   6.0604590  72.5952578  50.4085827
   6.2890512  73.3385515  49.8504686   6.6811115  72.6419783  51.1357927
  74.1451263  13.0732512  46.3598299  73.8731861  13.9907336  46.3823509
  74.0874577  12.8289509  45.4361296  77.4605942  28.4636164  15.7551074
  76.8202066  27.9470992  16.2443376  77.4890518  29.3045092  16.2115335
  55.6502390  42.9999924  16.1106694  56.1416149  42.5259018  16.7815030
  56.1205578  43.8274813  16.0092115  46.4540195  73.2469797  46.7636871
  45.7038164  73.6553335  46.3316298  46.7296362  73.8866234  47.4202871
  56.2394190   7.8422230   3.7954071  57.1939707   7.8228551   3.7269011
  55.9568214   6.9983566   3.4429023  43.4204292  12.5520504   1.0328121
  43.5775518  13.0951011   0.2603877  43.0092478  13.1443381   1.6623837
  65.3152657  26.0875392   0.7872023  65.9884548  25.8390808   0.1537079
  64.9407339  25.2557969   1.0773142  51.9784737  26.3011003   9.8473966
  52.7301455  26.8734050  10.0013030  52.1721649  25.5106187  10.3512371
   1.2103812  19.4998074  11.6660202   1.2682375  20.4518938  11.5859139
   2.1208313  19.2070603  11.7061627  51.7379951  36.2778831  57.3790693
  51.6529036  36.0450506  56.4545250  50.8917093  36.0481262  57.7627897
  34.7665429  29.0432596  21.2584257  35.1874185  28.2321453  20.9734893
  34.1973734  29.2870069  20.5284500   1.9995441  70.6541252  55.4632044
   1.1711782  70.1851177  55.3628397   2.0874047  71.1605597  54.6557188
  21.9195318  35.0869870   7.6011795  22.8108954  35.0197577   7.9435015
  21.9605875  35.8007669   6.9647330  56.7095661  42.1040535  11.5798104
  55.8685684  41.8746328  11.1844349  57.3225927  41.4567757  11.2313044
  29.9442244   6.4310914  52.1130085  29.8901701   5.5948514  51.6503954
  30.5397201   6.9602984  51.5823936   9.6000725  20.9252238  39.7779655
   9.3965286  19.9991000  39.9087286  10.0716996  21.1810398  40.5706549
  49.3022156  60.1881170  14.4628966  49.5503998  60.4458809  13.5750926
  48.3482790  60.1149321  14.4332123  55.1661491  72.6825047  52.1047640
  54.5470572  72.2212076  51.5389347  54.7340298  72.7124071  52.9583502
  66.0636330  17.7200806  13.7880313  66.4438486  17.2030306  14.4981909
  65.8346748  18.5552430  14.1958463  13.1510448   4.7847480  43.9270449
  13.5464716   4.8341724  44.7973490  13.7614262   5.2555138  43.3595562
  24.9766040  35.0573468  11.3718283  25.0875735  35.6077790  10.5966246
  24.2518544  34.4731212  11.1489952  28.0157065   3.5132757  52.0708513
  28.4339881   3.4393588  52.9286432  27.5508285   4.3494150  52.1023178
  46.3010979  12.2877538  59.2141628  47.0145893  12.9123771  59.0837622
  46.6152906  11.4778900  58.8121223  46.3459396  14.4807863   4.9006328
  46.3123178  13.9667118   5.7073730  46.2217045  13.8384223   4.2019442
  19.7041416  70.5118132  46.2039804  19.5279121  71.4526463  46.2031412
  20.6589031  70.4469538  46.1826372  52.1548367  47.8476238  11.9930553
  51.7226744  46.9954062  12.0495558  53.0607653  47.6741982  12.2488880
  39.6582627  37.1348739   5.9171814  40.5504131  36.9006133   5.6614017
  39.7461343  37.4766850   6.8069428  70.6538153   2.2284847  38.8859606
  69.9315977   2.8501987  38.7959218  71.1704063   2.5658104  39.6177936
  11.0823750  35.6162572  31.3257098  10.2148092  35.2853322  31.5581942
  11.1266255  35.5244017  30.3739572  26.9712496  22.0879865  64.0362692
  26.3034821  22.7699971  64.1082668  27.7526522  22.4752688  64.4308043
   6.4330912  15.7964802  64.5732069   7.1945602  16.2966645  64.8668289
   6.1415070  16.2472355  63.7807226  36.1394858  27.0522785  56.7621326
  35.2685046  27.0661569  57.1589041  35.9895253  27.2889566  55.8468580
  13.8635814  27.0624995  31.6260839  14.4874966  26.5875483  32.1750689
  14.1219759  26.8484426  30.7296228  47.1625614  48.3578348   4.2391750
  46.9176292  47.4621439   4.0068519  47.6096439  48.6931086   3.4620383
  53.7495327  72.8655672  27.2678614  53.0262089  73.2271624  26.7557263
  53.4274483  72.8639030  28.1692457  52.5025129  45.6820917  15.1660502
  52.3008919  46.3091612  15.8605766  53.3538532  45.9623623  14.8300469
  17.2490859  36.6645694  53.8712120  17.9139066  37.2105551  54.2909145
  17.6402879  35.7914805  53.8410807   1.8640429  26.1851335  40.5088997
   2.6356551  25.8941460  40.0229263   1.6094965  25.4248238  41.0317469
  42.3361015  15.7327569  58.5572672  43.1969547  15.5525351  58.9349985
  42.5169230  15.9536719  57.6436329  69.4660902  70.6818914   4.2531928
  70.3187275  71.0952759   4.3886736  68.8333845  71.3326788   4.5571411
  54.8643303  53.6940765  12.1771204  54.4633675  54.2046738  11.4737368
  54.7770023  52.7843618  11.8924701  32.6800656   4.3272084  52.8000593
  31.7689323   4.5660177  52.6296520  33.1751108   5.1259375  52.6178646
  14.1017449  21.4224768  43.2365417  14.9233603  21.9103265  43.1801414
  14.2731750  20.7386827  43.8840532  44.9189806  36.1926913   2.5182208
  44.6037436  36.7988873   1.8478586  44.7768450  35.3242087   2.1417029
  39.4052076  41.0930729  57.8402233  40.0549078  41.7300320  58.1375456
  38.9154291  40.8640194  58.6300850   6.3678771  36.1780977   0.2844186
   6.5888333  37.0324159   0.6553017   6.2127304  35.6192803   1.0459191
  46.3878918  14.1970301  50.7082510  45.8609009  14.7307479  50.1135588
  46.6254091  14.7932756  51.4183998  67.5466633  70.3811502  35.8013463
  67.5572443  70.2915335  34.8484087  68.4607267  70.5395889  36.0371780
  10.7330751  22.3293900  48.0346107  10.6357765  21.5424395  47.4984455
  11.0011256  22.0024681  48.8933945  27.7460051  28.3584905   3.8206625
  28.6036277  27.9336500   3.8356876  27.7883244  29.0083694   4.5221609
  28.5825396  49.0725899  35.8099198  27.6744604  48.9969969  36.1030197
  28.8991475  49.8791599  36.2166667  27.5260568  45.8579206  20.2457523
  28.1007481  46.2506342  19.5886838  27.2811770  45.0105238  19.8740196
   2.1562758  51.2917185  22.3699689   2.6956889  51.2038803  21.5841269
   1.2906897  51.5335083  22.0405316  52.8881836   0.8283936  35.8338237
  53.6100531   1.4510538  35.7476020  52.5693893   0.7059652  34.9396133
  34.5390844  59.7256804   5.3402734  34.1807914  60.3499174   5.9712929
  35.4551077  59.6232319   5.5984217  26.0390234   9.5550835  17.5608861
  25.8200288   9.4083101  18.4810662  25.1917744   9.6404576  17.1237206
  58.6901045  67.2848272  56.3131237  58.9681292  68.1962442  56.4039469
  57.8664017  67.3329020  55.8279037  48.9764929   3.3054474  60.9132290
  49.3194962   3.8892931  61.5897655  49.7325993   2.7865863  60.6387854
  73.8497972  71.7546463  57.1990681  73.1032896  71.1560774  57.2250128
  74.2030048  71.6588163  56.3145971  69.1470671  72.1986437  60.7165909
  68.2312679  72.2083759  60.4382849  69.6048021  72.7136278  60.0521374
  63.0246305   8.3527040  51.4765263  63.0350637   7.6241606  50.8557606
  63.2158756   9.1243637  50.9434223  47.5738239  64.4574308   1.1414415
  48.1409502  65.0982475   1.5703398  46.6855192  64.7643757   1.3228992
  68.9289331  20.5621743  46.9913387  69.6905088  21.0927296  46.7573690
  68.6403704  20.9153843  47.8328896  63.7443018  62.2712421  46.3156176
  63.5472250  62.0036316  47.2132683  63.4483910  63.1802130  46.2662363
  36.5218496  57.4887514  28.5807109  37.3338151  56.9868708  28.5095549
  36.5578246  57.8800011  29.4535565  54.7088051  28.0236578   3.2613200
  55.6373930  28.2250023   3.1455162  54.4187689  28.6197639   3.9518040
  40.1545000  16.9531322  57.5134468  40.8117247  16.3858306  57.9165030
  40.2276373  16.7757177  56.5756798   2.9401320   8.8538074  39.4885039
   2.2415221   9.5065594  39.4427752   3.6967492   9.3357497  39.8224115
  36.0203838  61.8563366   3.1136638  35.7740188  62.2116852   2.2596937
  36.7646194  61.2834024   2.9290172  55.6498575  69.2431307  51.8531799
  56.2729740  69.7707748  52.3527336  55.7944012  68.3478785  52.1595478
  24.4955468   0.8779138  52.3894215  24.2275429  -0.0290139  52.2414684
  25.3099442   0.9706874  51.8950701  55.8230686  34.0640259  25.9429216
  55.1982164  33.5348845  26.4387059  55.5698395  33.9393497  25.0282836
   1.5216883  70.3062582  50.2587605   2.2736557  70.7030201  49.8190403
   1.0339776  71.0484791  50.6158113   5.7626092  25.8377910  54.5846033
   5.0141823  25.2426147  54.6276855   5.7107645  26.3467479  55.3936195
  37.9895139   6.0780466  54.5731783  37.4263167   5.3462172  54.8251009
  38.8586783   5.6890017  54.4760704  49.4028330  16.9649053  26.0136247
  48.8348532  17.7287626  25.9128475  49.1217518  16.3646567  25.3230262
  26.1471796  73.8711119  24.6021461  26.0673332  73.2812834  23.8525057
  25.9265757  74.7343349  24.2522740   3.2276419  21.9505787  14.4953573
   3.1257549  21.6103959  15.3842485   3.6889064  21.2563920  14.0246427
  72.2040081   3.4129095  59.1715288  72.3922825   4.2002091  59.6823549
  72.3218012   2.6921046  59.7902346   6.7209154   1.6837391  12.9915738
   7.3871893   2.1672586  13.4799588   7.2189641   1.0808562  12.4395669
  42.7012873  60.4839182  62.5918627  42.4265909  59.6735859  63.0209780
  42.5930500  61.1585331  63.2622433  61.2783718  48.5028315  13.4589362
  61.2585163  49.3431234  13.9169192  62.0152473  48.5778618  12.8526258
  61.5150976  55.6539726  16.3277972  60.9109497  56.0217190  15.6828141
  62.3615646  55.6378651  15.8811891  30.2795410   7.6380181  60.0811529
  29.7523665   8.3006889  59.6348476  30.5627918   8.0627203  60.8908606
  12.7914822  24.1880822   5.1644129  11.9485867  24.6295094   5.0599962
  12.9907596  24.2698479   6.0970622  54.0627623  64.7851610  47.9347658
  54.0241289  64.2297363  47.1561527  53.3417940  65.4047918  47.8229713
  44.0198183  43.1660032   8.8324231  44.9512482  42.9506350   8.8802493
  43.6266851  42.6931763   9.5659834  40.5062723  67.2265291  14.4787323
  39.9645853  66.4440107  14.5810676  39.9548745  67.9424763  14.7943497
  66.6819429  54.3972683  18.8084054  66.3105059  55.2137709  18.4743512
  67.3873472  54.6762323  19.3922031  26.1961651  38.8672209   5.8936006
  26.7722964  38.4073067   6.5041620  25.3474951  38.8895512   6.3357437
  24.0968323   2.6500592  54.4238997  24.5269370   3.4781885  54.2107248
  24.3460107   2.0605752  53.7121058   7.2046942  57.5021887  21.1213994
   6.5209675  57.9994202  20.6724977   7.0266980  57.6367140  22.0522332
  13.8905215  42.5645924   8.8822907  14.5984066  43.0956745   9.2470938
  13.6263824  43.0300903   8.0887097   5.9164631  54.5594025  12.9601824
   6.7819452  54.5132589  13.3664358   6.0631287  55.0238276  12.1361494
  61.6293621   0.4809155   2.8956836  62.1318817   0.7717507   2.1346824
  61.7489433  -0.4686274   2.9130185  58.6546659  19.5828545  16.8624902
  59.4731188  19.9604762  17.1846151  58.2838058  19.1322970  17.6212358
   7.6902890  16.2769389  47.4100780   8.5638487  16.1524880  47.7810717
   7.1063650  15.8160412  48.0124378  52.1610737  33.3702922  11.1262095
  53.0996466  33.5372591  11.0399580  52.0549917  32.4566412  10.8612227
   1.5349855   7.6752824  41.9588375   0.9644099   8.0889565  41.3111115
   2.3654684   8.1448442  41.8811083  70.7872677  43.1903696  41.2558270
  71.2090302  43.9219666  40.8051395  70.6950998  43.4877348  42.1609831
  15.9011662  24.0180731  55.1550436  15.7112479  24.5652270  54.3929482
  15.3880656  24.4072938  55.8631849  21.7237353  21.1594939  59.5418310
  21.9544005  20.2436471  59.6975565  20.8653426  21.1218929  59.1199541
  34.7014236  71.7489338  10.8980882  34.7973537  72.1695328  10.0436151
  34.9861312  72.4134493  11.5254557  53.5561895  57.6470470  28.6478734
  53.8762283  57.5921202  27.7474356  53.7591743  58.5420084  28.9200377
  33.5306525  23.2994294  62.2854137  33.6122561  22.8739238  63.1389475
  33.8920999  22.6653242  61.6661406  23.6842847  15.9135497  60.9117889
  23.6311197  16.8551064  61.0757303  22.8708458  15.7040405  60.4528189
  10.7387543  60.9212971  12.5573003  10.0542903  61.0900593  11.9097984
  11.5021014  61.3958263  12.2281301  47.7808714  15.6724453  53.8658142
  47.1178770  15.0694883  54.2021370  48.3863878  15.1145530  53.3776140
  37.0913601  61.4413452  51.0777092  36.5080976  61.9198322  51.6668463
  36.7945838  61.6812801  50.1998758  55.4166460  23.8587618   7.4233943
  55.0288725  24.1667867   6.6042584  56.3100767  23.6097789   7.1867061
  65.6076622  24.8669887   7.8478199  66.1170149  24.5062613   8.5735387
  65.4065037  24.1104174   7.2970319  36.9245052  60.0717068   6.3791305
  36.8184209  60.3799534   7.2791100  37.8407145  60.2536154   6.1700833
  46.2140417  52.4692154   5.4001272  46.6948366  52.9650402   4.7373882
  45.3192091  52.8050900   5.3481656  31.4909196  51.7247963   5.2554911
  31.7878675  52.1202469   4.4359338  31.2748575  50.8221626   5.0214070
  75.8090639  66.4273167  50.5724430  76.5181303  66.7133427  51.1483335
  75.8775806  66.9976139  49.8067379  13.6056089  40.5966377  64.6713638
  14.4295955  40.1434565  64.4927406  13.3841527  41.0256529  63.8448429
  39.2424512  28.8884878   8.2485098  39.0076995  29.4205737   9.0087771
  39.3519378  28.0046511   8.5993338  43.8231230  31.4520431   6.1931968
  43.2877493  31.2516451   5.4254425  43.2277250  31.9081211   6.7879474
   7.6430088  23.3549476  54.6099281   6.7349017  23.5644245  54.3915415
   7.8087068  23.8286066  55.4250479  61.4946318  44.1908121  15.5101418
  61.3570070  44.7421694  16.2803996  62.0251513  43.4609747  15.8297098
   8.4333563  69.6578550  41.4544249   8.2011288  69.1857290  42.2540474
   7.6829726  69.5297194  40.8741331  76.5961409  59.8926878  44.0053320
  75.7129765  59.6578264  43.7205553  77.0773363  60.0454426  43.1921005
   6.4423370  57.8772545   1.9788942   6.0060322  57.0316696   2.0830753
   6.6984349  57.9026508   1.0569392  74.6687126  73.8933468  58.8858557
  74.4898939  73.0897236  58.3975410  75.5467558  73.7651491  59.2447853
  31.5549874  55.4356718  29.1107130  32.0320892  54.6084833  29.0446234
  30.8154154  55.3341293  28.5115862   1.4869572  50.7972431   1.2812713
   1.9228491  50.8862448   0.4337402   2.1150468  51.1496019   1.9118086
  53.5247564  31.3101840  15.1391232  54.4233179  31.6071177  14.9954462
  53.1042910  32.0346284  15.6023979  17.0659339  23.8939810  44.1703844
  17.2380924  23.5778260  45.0573111  16.7050171  24.7717524  44.2948437
  49.5726156   8.5173571  16.1663461  49.9412537   8.2965702  15.3110158
  50.0946379   9.2610586  16.4673972   6.9413358  53.1113005  37.7923012
   7.0130080  52.2481775  37.3847270   6.7768741  53.7080336  37.0621681
  45.1804113  26.2552071  63.5512972  45.2284288  26.4800954  64.4804621
  44.9862528  27.0842171  63.1139469   6.0248983  32.0726824  19.8020434
   5.2325624  31.8974924  19.2943585   6.7185169  32.1444964  19.1463244
  28.7080240  74.3483973  15.0060058  28.6430812  74.9863672  15.7166421
  29.6297526  74.0903234  14.9993110  41.7305994  25.3867602  60.9915066
  41.7016888  24.4349122  60.8946276  41.0152102  25.7053661  60.4411030
   3.8504094  16.7923820  28.3734131   3.7568727  17.3661697  29.1338420
   4.1689286  17.3671484  27.6774096  50.2046871  49.7864389   4.6701637
  49.6222878  50.3091240   4.1189471  50.3166056  50.3095865   5.4639047
  78.6886787  53.9063883  37.3497915  78.6614513  53.8262987  36.3963366
  78.5870028  53.0095434  37.6684809   0.1608668   6.4483494   8.3136445
   0.3871578   5.5501330   8.5549575  -0.0887557   6.3928878   7.3912323
  65.7856131  57.5543213  61.4173841  66.5308332  57.0572138  61.7546654
  66.1592054  58.3939791  61.1497450  34.8092985  15.1842082  56.8772745
  34.2381096  15.7509863  56.3588810  34.5091534  15.3015983  57.7785873
  38.0373836  63.1433058  10.1662409  37.5622654  63.8634825  10.5807793
  38.5382414  63.5592842   9.4645721  78.9990234  50.8821917  52.5327969
  78.3925676  51.2994862  51.9209862  78.4988308  50.7956457  53.3443069
   5.2073425   8.9748108  36.4844084   4.5671543   8.7575871  37.1620560
   5.8279186   8.2461751  36.4987922  37.6875639   3.0243611  55.1566601
  37.6275659   2.6289412  56.0263014  37.8329134   2.2846983  54.5667410
  61.5745258  44.0684366   2.4940424  61.6231346  44.2012930   1.5473542
  61.7269659  44.9371576   2.8659540  51.3566208  44.2473125  10.6615412
  50.7798672  45.0112200  10.6669593  51.0588646  43.7276840   9.9148434
  62.9945326  71.2578154  59.5410919  62.3369694  71.3810349  60.2256775
  62.7969742  71.9353867  58.8944864   4.4625202  34.8385310  28.4013295
   4.3969876  35.1845336  29.2913961   5.3295493  34.4346213  28.3646035
  31.4748192  25.8354783  60.1777220  31.7183399  25.1507974  60.8007336
  30.9122801  26.4260864  60.6786871  48.4147596  37.5094652  17.0864832
  49.1521120  38.0620623  16.8272913  48.1855679  37.0276546  16.2917745
  15.9881938  54.6102285  11.0203230  16.3105738  54.3548441  11.8846607
  16.6908479  55.1451635  10.6510603  49.0803814  68.1473064  29.4156504
  48.1791592  68.4126425  29.5990372  49.6161366  68.8540173  29.7758675
  17.4732494  14.2717361  60.6857443  17.8146935  14.1890180  59.7953463
  16.5229070  14.2203379  60.5835676  22.8716040  64.3537855  26.1745906
  22.9997063  64.5971203  27.0914412  22.5541306  65.1541758  25.7564735
  62.7967930  31.2711978  22.3436689  63.5834026  30.7276797  22.3891377
  62.4774742  31.1559987  21.4486837  38.8750792  68.6355257  27.3524475
  39.0275788  69.2935467  26.6742277  38.4346986  67.9186583  26.8959403
  59.3921804  68.0518818  48.2481432  58.5088539  68.4195280  48.2763720
  59.3248844  67.3130465  47.6433086  74.0579605  37.8561306  39.8818278
  73.3437538  38.3572197  39.4880605  73.9661074  36.9777107  39.5128107
  70.9838533  46.4209223   8.5100168  71.7431116  47.0025969   8.5476142
  70.4552841  46.7633104   7.7891713  72.4713898  70.6472874   9.5705587
  71.6743469  70.1172638   9.5758557  72.1650743  71.5388107   9.4044620
  11.1811066  69.3153429  21.1787653  10.6389475  69.3425703  20.3903794
  10.6369793  68.8701916  21.8283772  11.5298271  12.9171693  48.2884502
  11.1948776  12.4990141  49.0816641  11.0950899  12.4546278  47.5720072
  58.5952330  48.6247826  18.5650682  59.1490746  47.9567051  18.1611419
  59.1516018  49.4024277  18.6093223   0.9019320  36.4601445  55.4167461
   1.1820589  37.3723841  55.4914379   0.8163932  36.1609769  56.3219595
  49.4111395  68.7037706  49.6107817  48.6486912  68.4876204  49.0739489
  49.9626160  67.9225063  49.5691633  67.5823307  36.9172382  27.5535226
  67.7026081  37.7956319  27.1926999  67.2576332  36.3983941  26.8175864
  65.8776712  56.5912342  17.3108447  65.6591225  57.5196695  17.3913312
  66.8340206  56.5725231  17.2751009  25.9698939  37.2400808   2.0029037
  25.8320022  37.8299332   1.2617603  25.1151156  36.8346834   2.1486299
   2.0772019  58.3609486  62.5477839   2.6934871  58.8361549  61.9904709
   2.2357960  57.4383879  62.3478794  77.0759392  49.3151903  61.3859320
  76.9688368  50.0753832  61.9576550  77.8594542  48.8755941  61.7162180
  27.6227307  65.3786802  29.2718410  27.3484921  65.7935905  30.0896859
  26.9286585  65.5948305  28.6491251  10.9922767   2.7619970   3.4488493
  11.6765046   3.0128124   2.8282401  10.3414559   3.4608155   3.3831489
  73.0089140   9.1509408  60.2380943  73.0708838   9.7673917  59.5084524
  73.9085484   8.8562942  60.3797770  73.3049870  56.3405704  52.6703405
  73.2558632  57.2740746  52.4644518  72.4411488  55.9986830  52.4398375
   3.1757620  74.9726582  54.6130896   3.8797057  74.9160194  55.2592230
   3.0999699  74.0849924  54.2630339  64.4085312  65.8856010  48.1041479
  65.0837469  65.7186460  48.7617540  64.2032337  66.8153524  48.2023621
   5.4441071  39.8103333  19.1135681   6.2651426  39.4037342  18.8364208
   5.2869803  39.4594049  19.9901474   3.5960284  70.9917545  42.4768782
   4.0263847  71.0925245  43.3259153   3.8731572  70.1288986  42.1687937
   6.5192348  43.7425804  60.1858377   5.6189096  43.6241007  59.8831654
   6.8693489  44.4383717  59.6294880  70.6320906  55.9118891  36.3010216
  71.3938522  55.8446598  36.8767285  70.1105356  55.1348782  36.5021658
   3.8609347  64.3036222  56.5794373   4.6747050  64.4549370  56.0986948
   3.5212705  65.1806498  56.7574215   3.9361557  53.8823223  44.5524836
   3.1105688  54.1472244  44.1469431   4.5965856  54.0435410  43.8786364
  53.4840155  54.6957111  10.1914752  53.8012266  54.2005014   9.4362408
  53.3447456  55.5812693   9.8558837  39.2803764  58.1879902  52.7218723
  39.6801853  58.9156532  52.2455454  38.3557987  58.4259987  52.7907181
  27.8389263  21.5387177   3.7732491  28.2028055  20.8521175   3.2143182
  28.5134125  22.2177386   3.7884143  45.0650692   3.5140845  34.0821600
  45.6757259   3.1583744  34.7277617  44.4081354   3.9760703  34.6029663
  67.1616507  51.1607361  20.8804798  66.4135075  50.6124020  21.1167955
  67.4785089  51.5061903  21.7150426  28.6952615  33.9184618  11.5232766
  29.5552444  33.9078522  11.1031020  28.1818509  33.2753587  11.0343373
  25.8038306  66.4956570  27.6515579  25.0807524  65.8819675  27.7810550
  25.4044294  67.3601818  27.7480197  12.4541068  24.4803643  39.3708968
  11.6365981  24.9174976  39.6092796  13.0756831  24.7495198  40.0472355
   0.8291458  37.5301814  42.3210955   0.2015460  37.1358800  42.9267979
   0.3008331  38.1102610  41.7727995   0.6021512  64.8416376  54.5581961
  -0.0753444  65.5166531  54.5183611   0.6493786  64.4967747  53.6665297
  32.0834112  30.4447246  10.0641584  32.3278880  31.3598108  10.2022994
  31.9836783  30.0876164  10.9466314  41.4800453  21.3835001   6.7333996
  41.6352034  20.4392195   6.7555988  40.7305574  21.4893651   6.1474872
  52.6479149  56.5911245   7.4753052  53.0432081  55.7211018   7.4202383
  52.6774836  56.8091059   8.4068859  64.2348337  66.1321735  55.0081778
  63.5730076  65.7135344  54.4577646  64.2214870  67.0514059  54.7415924
  11.2992656  73.9711094  34.2068243  11.2329519  74.6052408  33.4928799
  11.7995477  73.2442427  33.8358665  19.6480060   3.4971237  63.0248880
  20.1321054   4.3146628  62.9086542  19.5411396   3.1538504  62.1377707
  58.3843470  74.4639254  31.5831423  58.7970495  74.2736721  30.7406974
  58.8341856  75.2477217  31.8986416  45.9065390  40.1247501   0.9340095
  46.5876675  39.5306182   1.2491347  46.1227083  40.2698898   0.0129025
   3.7748680  14.5988584  37.4799991   4.1315252  14.3055212  38.3184385
   3.1670934  13.9056277  37.2225618   0.3505697  60.1902437  61.2784576
   0.7039346  59.6057224  61.9490576   0.8447079  61.0031176  61.3847303
  75.6002951  16.4727831  60.0630188  75.4964352  16.0588133  59.2062378
  75.7060099  17.4039030  59.8679018  64.7203064  24.4494486  62.7921009
  64.4457388  25.1179266  63.4197807  65.6734896  24.5301008  62.7579117
  63.0939913  54.3822575   2.3938693  62.6598358  54.3521976   3.2464167
  62.5794125  53.7931633   1.8421373  38.2757330   9.7088748  42.5232029
  39.2114782   9.5075315  42.5146723  37.9287839   9.2679417  41.7476797
  63.0568123  70.4230261  44.4074249  62.7074528  70.2778292  45.2866888
  63.8108587  70.9972858  44.5411205   1.1203071  51.7062664  27.4894547
   1.1564907  51.2648726  26.6408730   0.3733067  51.3070822  27.9354095
   5.2455366  50.7516193   3.1935209   6.1249501  51.0828781   3.0114967
   4.6745735  51.5108871   3.0762869  63.9179564   4.8429108  18.8781011
  63.4716940   5.1678008  19.6601033  63.5838556   5.3897607  18.1670737
  24.4411826  42.8888702  22.5297761  23.7736201  42.4682713  21.9878459
  24.5381451  42.3078871  23.2842898   6.5743005  22.2423267  51.6473961
   6.7644137  23.1737399  51.7594528   5.8589506  22.0685887  52.2592163
  47.7045441  23.4926772  47.9948378  47.3417664  23.4150624  48.8772202
  48.2528257  24.2765284  48.0293798  35.2072144  58.8396549  26.6558003
  35.6800461  58.1758785  27.1578550  34.8881459  59.4562054  27.3148084
   0.7913778  25.2545094  27.5327349   0.3804330  25.9875298  27.9910326
   1.0602185  24.6564651  28.2300878   7.4735022  26.8739605  44.9653244
   7.7973342  26.3819122  44.2108393   6.5837878  27.1288729  44.7210693
  49.4903374  61.4068556  54.5580959  48.8105059  60.7403088  54.4592285
  50.2816153  60.9121609  54.7711515  24.3739891  35.0174713   3.1960344
  24.6146822  35.0804329   4.1203371  23.6963606  34.3419003   3.1704730
  22.6421356   4.1274384  63.9412642  22.1442652   4.7862872  63.4572411
  23.4129262   3.9628911  63.3980942  17.2147655  48.2273006  16.3952613
  17.2824943  48.6171198  15.5236626  18.0035090  48.5212088  16.8510365
   3.5271257  58.3571386  52.6438093   3.7186113  59.2531586  52.3668432
   3.6029902  57.8376532  51.8434286  18.7650454  49.7481680  21.3454604
  18.6889017  49.5776558  22.2842669  17.8705812  49.6681070  21.0141659
  12.7952635  48.9229774   1.6819146  12.2827506  49.7297859   1.7331290
  13.5891747  49.1731405   1.2093093  15.3865910  42.5864840  15.5961299
  15.1130986  42.1457148  14.7916710  16.2149489  42.1672726  15.8291900
  50.9076023   3.9417228  34.9193501  51.6381168   3.5205439  34.4663692
  51.3223314   4.4822556  35.5917025  13.3013511  11.5381360  56.0580826
  13.5530031  10.8014035  55.5011892  12.3475909  11.4804602  56.1150694
  66.1884737  53.8328457   0.9539305  66.9317293  53.2296896   0.9558680
  65.4986429  53.3613825   0.4869320  44.0404034  43.4436035  54.5819187
  43.1394196  43.1278992  54.5126772  44.2924595  43.2523251  55.4853106
   1.3830285   7.0513892  61.6387606   1.7479783   7.9090226  61.8567228
   2.0964932   6.4368176  61.8105221  18.5858667  54.4921732   7.2558349
  18.3392811  54.7723770   6.3744074  18.0724359  55.0525618   7.8377169
   8.0883867  61.4692068  32.4467039   7.4517006  61.5537548  33.1564307
   7.5675839  61.2064934  31.6877699  49.3109417   8.8420862  11.2322986
  49.4416094   8.9459431  12.1748328  48.4600687   8.4105647  11.1545670
  61.5051270  56.4657640  62.7275801  61.6296911  56.7341137  61.8172455
  60.5575705  56.4978695  62.8592300  43.7061071  64.3505478  56.2824488
  44.5153427  64.7878647  56.0176373  43.9873219  63.6881018  56.9135714
  15.4340923  38.2783008  36.4779663  14.7304106  38.5117793  37.0834017
  15.0447094  38.3760667  35.6090260  13.5995162  26.5444613  15.9354937
  13.6955404  27.1934557  15.2384877  13.0333722  26.9679666  16.5807521
   8.1339663  30.8574033  50.9350729   7.4788535  30.3558517  50.4497862
   8.9053977  30.2909613  50.9515285  14.5261955  61.7610979  34.5875549
  15.4651678  61.7064381  34.4098568  14.1819775  62.3164368  33.8880205
   1.7134416  53.9463949  16.5015924   0.9597612  54.4386721  16.1762321
   1.3511004  53.3714533  17.1756721   9.9941331  38.9124560  38.5603762
   9.5782393  38.4856415  37.8113151   9.2842454  39.0352249  39.1906285
  73.7070656  53.4297228  10.6260622  72.7582693  53.3459997  10.5311573
  73.9640570  52.6675129  11.1449277  16.1831200  11.0325336   5.8167100
  16.4948809  10.5151427   6.5592349  16.9564152  11.5096772   5.5157447
  17.1745908  25.6001091   6.0028809  16.9018650  25.2623391   6.8559718
  16.3743019  25.9606123   5.6210315  28.1835818  58.9065504  52.3490047
  27.7985048  58.0352306  52.4425316  28.0617380  59.1243219  51.4249039
  -0.0575046  36.2455916  26.5612721  -0.2869539  35.7698798  27.3595715
   0.3932830  35.5989099  26.0182905  68.3888149  12.5870669  51.4590168
  67.7134275  13.2331562  51.2524939  68.7687445  12.8926742  52.2827196
  38.8397121  53.6514044  60.6848383  39.5053935  52.9697609  60.7768202
  38.5568953  53.5884428  59.7725439   0.4647509  23.6472988  31.7395687
   0.3365333  24.5130968  32.1271062  -0.2740281  23.5413671  31.1402225
  54.1526461  60.3858757   9.5077968  54.7655678  60.6348753   8.8160151
  53.9206696  61.2124157   9.9311739  27.0719957  53.0372381  59.8287439
  26.9885731  52.6458788  58.9591980  26.7915487  53.9448023  59.7108364
  14.0504634  73.8921976  53.2841587  13.6545110  73.0292368  53.4056425
  14.9869311  73.7155485  53.1944084  40.3566980  59.5863438  40.2578545
  40.2711201  59.9388933  39.3720675  40.9342241  60.2038288  40.7066393
  15.0391030  14.2246568  51.3663483  14.2469203  14.7565436  51.4423370
  15.6355906  14.5885551  52.0205736  65.7490063  25.4216146  14.7409761
  65.5304098  25.7648540  15.6073678  66.6685343  25.6560397  14.6154881
  71.4318609  73.8741350  41.8463564  71.1141825  73.3881187  41.0853767
  71.6806221  74.7299576  41.4971876  32.5635314  19.0731263   9.1346157
  32.4140334  19.3523562  10.0378942  33.3729696  19.5150268   8.8781697
   5.4018539  47.7774239  29.9375391   5.2318525  46.9054461  30.2938867
   4.5463082  48.0845976  29.6376753   6.3455832  64.2443275  14.8263204
   5.6166136  64.8589516  14.7422040   6.0876757  63.4924459  14.2930436
  71.4032698   8.0710763  36.7866015  72.1467972   8.6738920  36.7905354
  71.1570883   7.9883951  37.7079010  68.7667751  60.7750463  38.1026173
  68.4022379  59.9711227  38.4728193  68.2425213  60.9367466  37.3182416
   3.8058326  58.7417507  16.2693906   3.5884836  57.8095579  16.2663770
   4.3735069  58.8528633  17.0320380   0.4024538  51.1277771  16.3272548
  -0.0733479  50.3391790  16.0665584   1.2950571  50.8248758  16.4938188
   7.1371913  72.8411150  21.1982441   7.1435332  72.0538139  21.7426229
   8.0622059  73.0344105  21.0458779  40.2900839  65.5761242  25.2235055
  40.8187628  66.2417650  25.6635714  39.5350170  66.0562086  24.8834729
  66.6750240  13.3222938  62.9029274  66.4154911  13.0398369  62.0259476
  67.3981333  13.9315593  62.7541161  19.4086361  59.1835451  37.2338605
  19.0603018  58.3256865  37.4767160  18.6558056  59.7721243  37.2891068
  24.7406292  34.1138506  14.5409346  25.2533937  34.5770574  13.8785565
  24.4018769  33.3429646  14.0857291   5.1669669  62.8438950   1.8197739
   5.1713556  62.5939655   0.8957888   6.0489511  63.1788349   1.9814879
  71.0512161  42.2365189  24.5983696  70.1391697  42.4139929  24.3683600
  71.0211802  41.4060640  25.0734258   3.1996608   6.9742668   7.2422427
   3.2658049   6.3753933   6.4984632   2.2589141   7.1035099   7.3627561
   3.4361634  48.4968758   4.2953923   3.6844343  49.0405607   3.5477293
   3.4388161  49.0981674   5.0401562   2.8596449  20.2832150  52.4020004
   3.5321045  19.7314465  52.8014755   3.3287966  20.7914138  51.7402887
  74.9908876  40.0389624  25.6565428  75.0999737  39.3395758  25.0121880
  74.7976780  40.8176327  25.1344562  77.8242588  43.8338518  29.1595531
  77.6043558  43.9237070  28.2322979  77.0086575  43.5505104  29.5727658
  72.2472668  73.7425184  30.5185437  71.7685938  74.0470409  31.2894988
  71.5947104  73.2681656  30.0033808  17.0418501  18.0300653   0.6391320
  17.1691620  17.9648781   1.5855852  17.3079515  18.9236867   0.4226542
  18.2842064  57.5134277  16.7528975  17.5993395  56.8651533  16.9170010
  18.9859521  57.2795010  17.3604023  40.0568342  28.3451605  55.9181547
  40.8105278  28.2248139  56.4958143  40.1421595  27.6504517  55.2652168
  78.8464117  57.6766396  28.9455485  78.6918497  56.7569876  29.1613841
  77.9735231  58.0347347  28.7840843  -0.0452117  32.7155995  13.9278579
   0.3862353  33.4994221  14.2680240   0.5476494  31.9988084  14.1535950
  41.9226551  58.4019327  17.2253203  42.0847797  59.3433857  17.2854877
  41.9679260  58.2104874  16.2885547  58.5122299  50.5526066  11.4254594
  58.2932520  51.0356188  12.2223127  58.6180353  49.6467018  11.7159426
  62.4715948  74.3364382  14.9206471  62.7704144  74.1398859  15.8085132
  62.4498463  75.2925873  14.8814178  26.9243503  26.4782143  14.6475053
  26.1311483  26.9120741  14.3331409  27.3192143  27.1083784  15.2501738
  11.1033261  29.5438313  37.5745678  10.9416211  28.7191391  37.1163487
  12.0492911  29.5553493  37.7203369   0.2639695  21.7295146  22.6216555
   0.5437346  22.5683761  22.2552156   0.0791855  21.1839032  21.8571997
  52.6945353  12.3872745  25.4614973  52.5068474  13.1031883  24.8544788
  52.6585960  11.5986490  24.9201941  15.2442300  52.3361778  14.7948265
  15.2103972  51.6225910  14.1577387  15.9909081  52.8679895  14.5193601
  44.1951084  72.7120304  23.2866192  43.5449266  72.7298260  23.9888859
  44.0827608  73.5484552  22.8349543  65.4115295  35.5225849  40.2408075
  66.1412716  35.1037049  39.7844625  65.5801773  35.3538084  41.1677933
  75.7659340  25.7724237  32.5279164  76.1078215  26.3445544  31.8408847
  75.3364992  25.0598764  32.0545316   5.1893795  53.3901024  41.9562435
   6.0358828  53.7784910  41.7353058   5.4035264  52.5113964  42.2696972
  19.6162355  65.6771374  46.5073538  20.0834632  66.0202885  45.7456636
  19.5027363  66.4354420  47.0803499   3.7097594  19.8021948  62.4987555
   4.1034472  19.0799320  62.9882240   4.0506470  19.7030103  61.6098261
   5.6962391  23.9672055  64.2105079   6.0617658  23.0873932  64.3029831
   5.6480213  24.1083731  63.2650034  23.7408090  33.3401561  59.1259623
  23.0004358  33.9467835  59.1167879  24.5128512  33.9049959  59.1596937
  23.8680291  27.2109008  54.5199156  24.3754745  27.3006582  55.3265572
  23.7635875  26.2661982  54.4065189  13.4772074  70.8193541  21.6329193
  13.0165803  70.0192642  21.8857217  12.7812219  71.4590073  21.4823151
  45.4840736   0.3928121  47.0849276  45.9880427  -0.0711743  46.4163780
  44.5702449   0.2467521  46.8403578  56.1830568  23.4608436  44.0473127
  55.6814528  22.9639363  43.4010077  56.2804937  24.3299460  43.6582136
  68.2287836  50.6430387  41.2309599  67.5510025  50.9388638  40.6232309
  68.3128548  51.3576031  41.8622732  26.2363362  34.9114084  59.1150856
  27.0116639  35.3091645  59.5111847  26.5853834  34.2542887  58.5129309
  41.0511112  66.5728283  61.4920425  41.9937325  66.7175245  61.4098167
  40.7874584  66.2224483  60.6411839  17.9271781  54.9860382  42.9194260
  18.1426883  55.6120300  43.6107492  17.5324452  55.5184174  42.2287846
  13.7428403  30.7416153  16.7270267  13.7243319  31.5846348  17.1800232
  13.7217999  30.0917363  17.4294841  12.3800468  35.1962209  12.4740434
  12.9879844  35.8631968  12.7930832  11.5154326  35.5192566  12.7276576
  21.8749237  20.6345177  33.3118582  22.6570892  20.4559493  32.7897859
  22.0630383  21.4651823  33.7487102  10.1774597  30.4507899  20.4575729
   9.6827012  31.0331059  19.8810732  11.0946083  30.6468844  20.2662158
  65.8309412  39.1302538  18.8646305  65.8198833  38.3701658  18.2829285
  66.6260004  39.6053076  18.6229086  27.1226931  30.6165361  15.1951003
  27.2978950  30.7672119  14.2662120  27.4957061  29.7529793  15.3721905
  30.1163578   2.5215423  35.0664091  30.2005816   1.9930939  34.2727590
  30.3636909   3.4049815  34.7932911  56.9972849  53.2699776  19.9635243
  56.5636873  53.9686775  19.4735825  57.8639126  53.6220455  20.1665783
  61.8532801  12.5446928  53.7627125  61.7957926  13.0402243  54.5796442
  62.1865845  11.6868556  54.0258789  74.6395588  23.8372636  35.9494781
  75.5107498  23.9424300  35.5671239  74.7386169  23.1222677  36.5781260
  58.1898403  57.9103804   3.5082904  57.5288391  57.9192829   4.2005515
  58.2862473  58.8290548   3.2573533   7.2230232  46.7292452  55.2256584
   7.4284035  46.8759537  54.3023348   7.2630030  47.5999784  55.6212044
   8.2295954  43.2405519   3.9388445   7.6436412  43.1512308   4.6904504
   8.0996013  44.1403675   3.6394045  46.6253090  70.1784182  50.7734251
  46.6163731  71.0674572  51.1280489  47.5202799  69.8715830  50.9187222
  43.1649256  72.0546818  64.9009848  42.8675842  71.4420223  64.2283201
  43.2736206  72.8850746  64.4374466  26.4230871  42.3795319  12.6170981
  25.6033611  42.6879168  13.0033398  26.9782281  42.1707487  13.3684051
  76.3404703  13.1577218  26.0181904  76.3442087  12.2374320  26.2814069
  76.9722795  13.2041752  25.3006315  55.0719833   0.3586364  64.0269089
  55.9505129   0.7161780  64.1556835  54.4911146   0.9939292  64.4455051
  17.2463310  56.7839336  32.5985789  17.1257389  56.7513323  31.6495657
  17.0605743  57.6933289  32.8325200  60.8337784  14.2728758  42.3104906
  61.6732788  14.7078025  42.1611357  60.8093882  14.1170490  43.2546091
  40.9632254  17.6831567  60.2462387  40.4983187  17.9223621  59.4444466
  41.7388201  17.2119391  59.9418736   6.0102403  58.1551695  23.6709809
   5.5093062  57.4936008  24.1480756   5.3902698  58.5127831  23.0353856
   1.7870221  73.6355066  22.2087216   2.5437009  73.9615536  21.7215228
   2.1306604  73.4361410  23.0795813  36.0057139  12.1595240  22.7956700
  35.1906729  12.6421010  22.6576161  36.6949916  12.8094661  22.6589036
  77.4127626  35.2871895  54.3541288  76.5545082  34.8724747  54.4415331
  77.9715776  34.8133707  54.9701262  12.1240127  57.9484415  43.1686544
  12.8960979  57.4012804  43.3126450  11.4979506  57.3695612  42.7337122
  52.1688747  71.8203449   9.9395686  52.5924921  71.1994934   9.3468428
  51.5380621  71.2921524  10.4287779  64.0199661  52.7579117  12.0723605
  64.2515135  53.2500887  11.2847173  63.9339066  51.8529320  11.7726350
  37.3621225  47.9968882   1.0891103  36.7082787  48.6944199   1.1356618
  36.8491721  47.1891832   1.0621838  59.9594069  33.5965872  48.7747908
  60.1610279  34.5156431  48.5989571  60.7453871  33.1227016  48.5029554
  58.4558535  62.3710585  50.4918432  57.5753117  62.1872044  50.1646328
  58.3142805  62.9058981  51.2729549  72.0883179  19.3680477  24.9939847
  71.9967365  19.2946696  24.0440035  72.4807453  18.5370374  25.2616739
  33.6877561  26.3450956  57.7964067  33.1146002  25.5829644  57.8793526
  34.2220902  26.3304853  58.5904503  59.2473555  58.6700439  59.1827202
  58.4909725  58.1552601  58.9014435  58.8701820  59.4722939  59.5437860
  33.5284138  17.4077535   4.4013885  34.1193986  18.0360389   4.8163924
  33.1834674  16.8878376   5.1272893  26.9829122  44.8827849   0.1190825
  27.6103249  44.3894766   0.6475039  26.8734019  44.3584697  -0.6742219
  55.4673195  60.4008770  25.0099277  56.1255503  60.0644588  24.4018292
  54.7243595  60.6345272  24.4534659  51.0318851  73.0051374  31.9829535
  50.3047514  72.8331947  31.3846707  50.6490564  72.9193974  32.8560662
  62.5553226  67.9606628   5.7887733  62.1534252  68.1244612   4.9356136
  62.9060507  68.8104439   6.0554242  37.5879908  69.8103666   9.4291764
  37.0981264  70.5572796   9.0851080  36.9144773  69.1990185   9.7272789
  41.0686255   0.6313774  26.5922976  41.8515444   0.2893317  26.1607003
  40.3838825  -0.0046792  26.3854408  46.0238743   2.0534128   3.6780417
  46.3506794   1.9200847   4.5677897  45.3784704   2.7552211   3.7625977
  59.4580793  72.3560095  56.3064384  60.0984049  72.3752975  55.5952072
  58.8970900  73.1144476  56.1442900  14.0632772  32.2532868  51.6255569
  13.3467054  32.8152585  51.3306904  14.8567522  32.7139854  51.3528156
  11.9641399  69.9587440  62.3271513  12.9045641  70.1278830  62.3839474
  11.6032338  70.7465172  61.9204664  10.7805586  53.3598900  22.8516221
  11.5810513  53.7204361  23.2329988  10.9310186  52.4148846  22.8280663
  11.3382649  51.0159159  30.4117942  12.1801555  50.5966091  30.5896616
  11.2080979  50.9019709  29.4703555   5.8116418  30.4050112  17.4085474
   6.5925038  30.7879615  17.0087528   5.0896960  30.6978607  16.8524289
   4.4695458  70.6429291  31.9487596   3.7606436  71.1843348  31.6015291
   5.2499574  70.9420872  31.4821815  52.4284554  16.7004967  24.6620679
  52.8220463  16.7786694  25.5310965  52.1714640  17.5939727  24.4342756
  25.2926946  17.7180016  63.2842588  25.9438753  18.4192288  63.3060551
  24.5610452  18.0858946  62.7887058  21.3651371  42.9956245   4.7786134
  21.2225938  42.1583414   5.2200532  21.8774152  42.7724743   4.0014347
  21.0928607  64.8459959   8.0098456  20.7184410  64.2277861   7.3822653
  20.8594990  65.7079887   7.6652563  22.5720119  53.4249258  13.9146662
  22.9302216  54.2526293  14.2353213  21.6794229  53.4006310  14.2595232
  20.8571744  45.1421404  17.2515059  20.8713746  46.0329771  17.6014209
  20.9939599  44.5823860  18.0158317  76.0823345  58.5998058  33.5534286
  76.7494678  58.9726639  34.1297436  75.5434132  58.0581045  34.1299343
  18.6599445   1.7947155  29.6697998  19.3257654   1.3782270  29.1225767
  18.4422195   1.1336760  30.3269553   7.4747980   4.4494465  17.0211589
   7.6976365   3.7566820  17.6429725   6.8815166   4.0301353  16.3979197
  58.0286980  21.7674422  53.4507704  58.2571459  21.0549045  52.8538322
  58.6043692  21.6417980  54.2051220  12.6059914  48.7349033  23.8841629
  11.8936229  48.1025696  23.7897134  13.1153190  48.6439610  23.0788374
  30.1081634  37.0036006   3.9653119  30.3999162  36.8950725   3.0601415
  29.2757559  37.4708080   3.8942736  25.5424333  50.8927441  21.6697335
  25.7181048  50.6678295  20.7560682  26.4071059  50.9245491  22.0790792
   6.3337767  49.0123320  32.0232487   7.2703046  49.0516758  31.8293428
   5.9569830  48.5293388  31.2877417   8.3874154  24.6562028  35.2848172
   8.7688333  25.1806879  34.5807791   7.8378296  24.0146184  34.8347545
  16.7434728  74.0090656  60.9512472  16.7993140  73.0554247  60.8905935
  17.1978593  74.2242718  61.7657757   8.3499116  71.6910410  62.1485376
   8.4270865  71.2427187  62.9907227   7.5360131  72.1902084  62.2166204
  21.9710298  74.8138220  42.5908470  21.9337698  73.9004148  42.3070669
  22.6421829  75.2100781  42.0351791  70.6176329  21.4267683  19.3971872
  70.4425526  20.9722900  20.2212191  70.7057524  20.7259607  18.7511730
  23.7657785  50.2822590  18.7972736  23.6191154  49.4417953  19.2312610
  24.2539430  50.0604153  18.0043602  78.4382534  46.4590311  54.9663067
  77.7414656  46.6461086  55.5953693  78.0094910  45.9500790  54.2782927
   0.7904787  11.1320174   4.9758711   1.4732784  10.5075848   5.2210271
   0.5984023  11.6066539   5.7846099  61.4307547  71.1282015  39.4083238
  62.0010328  70.3702164  39.2799759  61.4254332  71.2662745  40.3554964
  51.1267376  14.0094590  56.5522146  51.7187309  13.5361600  57.1368217
  51.7038727  14.4217813  55.9094524  25.2454090  65.1780319   3.8552788
  25.8804321  65.3863096   4.5405504  25.3584886  65.8714485   3.2051861
  22.7755809  25.0725341  59.9349356  22.1916580  24.9501300  60.6834555
  22.9264832  26.0171485  59.9008417  13.0701137  53.6366272  42.4968004
  13.2845867  54.1223860  43.2932091  13.8689387  53.6743641  41.9707918
  29.4394636  60.6653690  41.8280888  30.2770042  60.3679371  41.4727116
  29.6727395  61.1392307  42.6263809  53.2028341   6.4165574  32.9802942
  52.3605061   6.7472482  33.2923174  53.8039684   6.5659064  33.7100601
  78.7015390   9.6242470  62.1104383  79.3329382   9.6790630  61.3931084
  79.0706396   8.9712036  62.7050209  37.4612188   2.2405894  63.1683350
  38.1408620   1.5799317  63.0347395  36.6388583   1.7557488  63.0984449
  62.5237799   3.6501271  10.4161191  63.0452013   2.8933215  10.1485407
  62.7079058   3.7496758  11.3501537  18.6868382  48.0088186  41.1847496
  19.2784107  47.9394913  41.9340611  18.1438529  47.2221136  41.2346745
  22.9546738  66.6794777  34.0988278  23.3659434  67.4328852  34.5224667
  23.3086967  66.6819859  33.2095051  73.7525940  52.6156473  46.8597794
  74.5061016  52.5760508  46.2707996  73.4873533  53.5352850  46.8478632
  59.4038200   7.5341260  22.5826836  58.8042355   7.2661591  21.8863177
  59.6472979   6.7165524  23.0168772  28.9154720  73.5811472  57.0929003
  28.8037610  72.7717209  56.5943289  29.5464683  73.3561659  57.7766085
  31.7209101  68.0032158  29.3510461  31.0443759  67.7839327  28.7103844
  32.5197911  67.6098585  28.9999223  69.4159031  28.4533691  13.0449700
  69.9367285  29.0573287  12.5156271  69.9711275  27.6796627  13.1415963
  59.9312449   2.5032187  26.8473220  59.5304966   1.7441455  27.2709250
  59.2061615   3.1137565  26.7141843   8.3265682  74.4212633  32.2281146
   8.9859720  73.7593572  32.0200348   7.5115677  74.0677531  31.8716931
  67.6151323  61.2394571  54.9187851  67.6270008  62.1093559  54.5195770
  68.3547688  61.2446356  55.5263567  26.7808056  51.8070793  36.6616392
  27.4713016  51.8143892  37.3245072  26.5853453  52.7316284  36.5091920
  19.9650681  56.4771938  40.4341745  20.0588679  56.7838621  41.3360500
  19.0280700  56.5500784  40.2526379  32.1203279  19.0556645  54.5939064
  31.8644619  18.1362164  54.6672535  32.9105163  19.0420318  54.0538645
  13.8505828  49.9469805  15.6990373  14.3020833  49.3163872  15.1380277
  14.3376875  50.7627296  15.5827880   0.7198355  55.1129675  22.1287346
   0.8257242  55.4515123  23.0177832  -0.1182960  54.6509647  22.1466160
  37.8101277  11.1791515  16.8331730  37.4456620  12.0527256  16.9755268
  38.5253692  11.1120355  17.4657524  37.2728419  65.1896667  11.9575477
  36.5758562  65.7407904  11.6015911  38.0263567  65.7751560  12.0326960
  27.3947453  40.0601721  11.6442811  27.5407434  40.2548552  10.7185292
  27.0356226  40.8705044  12.0057023  17.1720958  50.6625748  10.7266593
  16.7663956  51.1521339  10.0111401  17.7266562  51.3036728  11.1712778
  16.6211998  49.0517473  29.0145373  17.2874451  49.3003559  29.6552730
  17.0286977  49.2247772  28.1658697  75.8260918  55.5063963   7.8067267
  76.4417076  55.9982634   8.3501506  75.8099604  55.9795809   6.9748223
  60.5712509  40.9032679  40.7880783  60.6979275  41.8445730  40.6691837
  59.9618006  40.8345556  41.5229797  33.6068487  74.2478418  27.6375747
  33.1809187  74.0823078  28.4786534  33.2091856  73.6154032  27.0391440
  31.4736700  43.0672359   2.0884214  30.7342362  42.5173044   2.3473489
  32.0896220  42.9994202   2.8179666  74.9803495  59.4805670  20.0756550
  75.6459904  59.4680977  20.7634020  74.3368816  58.8285589  20.3532672
  36.8461537   7.8890222  14.1215742  37.0313430   6.9696558  13.9299965
  36.2117577   8.1497365  13.4538925  71.4661646  46.6764164   3.8917011
  71.9634056  45.8849001   3.6855859  70.7815599  46.7099762   3.2235560
  78.8111496   4.0069187  38.1212926  78.9204216   4.7235253  37.4961782
  79.5049334   3.3864069  37.8979826  72.9194403  49.4739294  13.1983721
  72.2129154  49.9221802  13.6632681  72.9158831  49.8636103  12.3240900
  55.5187988  72.2244215  14.1358387  55.4332924  73.1591606  13.9482820
  55.9082794  72.1900892  15.0095427  22.3981929  58.0525637  19.3792295
  21.4546990  57.8928089  19.3562281  22.5070572  58.9053154  18.9582860
  16.7834568  50.4370213  50.5035830  16.7662227  49.4822836  50.5699444
  15.9188950  50.6692028  50.1646757  21.7885756  73.2345295  33.4795737
  22.1370697  72.7304029  34.2148542  20.8684826  72.9759741  33.4265876
  36.4746380  52.0415449  35.0917077  36.5033889  52.3205662  34.1765308
  36.9910002  52.6984358  35.5587149   1.8100534   4.6299550  56.9596291
   2.6235455   4.9332875  56.5565777   2.0596105   4.3910068  57.8522968
  30.8830237  70.4819679  18.9119375  30.1229668  70.0219440  18.5556817
  31.3404727  70.8205557  18.1423080  75.5849981  32.1292377   1.5047051
  76.2305975  31.6679001   0.9693559  74.7409344  31.8871379   1.1236871
  43.0118465   7.1276355  38.8363814  42.3215151   6.4921474  39.0256810
  42.8890800   7.3466104  37.9126883  12.4673140  14.5181036  26.5534163
  11.7468691  14.5866442  27.1799088  12.7863252  15.4153252  26.4561677
  70.2456379  43.6607838  51.2494373  70.0924397  44.4056368  51.8307829
  69.4005108  43.2135057  51.2054443  31.0384870  14.3650746   3.4268507
  31.8908525  14.1574228   3.0439845  31.2458801  14.8662841   4.2155260
  15.8969522  59.7703457  41.4330721  15.0483811  59.5285082  41.0620260
  15.7171178  59.9270821  42.3600674  32.5701070  58.2893610  31.3478231
  32.2531414  57.6070404  31.9396067  33.0611777  57.8152418  30.6767869
  23.0001760  72.3480129  35.7165599  22.2950363  71.7278290  35.9019756
  23.1591988  72.7867317  36.5523028  69.0480328   4.1245502  21.4520693
  69.5129156   4.0864661  22.2879314  69.3695307   3.3662102  20.9644294
  71.9913244  13.6315429  55.7317066  71.1280966  13.2434356  55.8746958
  71.8090534  14.4751811  55.3178406   7.7378154  61.5773916  13.5353673
   6.8416691  61.9129467  13.5118163   8.1377888  62.0150852  14.2868173
  58.0686522   1.0509174  43.9093351  58.1712198   0.7904316  42.9939890
  57.9582596   2.0011802  43.8770056  63.4179354  61.9990683  48.9183235
  63.6111355  61.1114883  49.2201614  63.3527660  62.5162029  49.7211599
  56.9088697  35.4195499  39.8388815  56.9602346  36.3443923  39.5975161
  56.2073946  35.3802776  40.4889727   8.5263503  73.5564423  42.3389912
   7.6724207  73.1462717  42.2018909   8.4399813  74.4258738  41.9480133
  63.7671709  70.6715345  17.3028553  64.3670893  71.3879538  17.5103915
  64.0185499  69.9677563  17.9009652  72.1076632   5.5722338  26.7119527
  72.2651625   4.6359497  26.5903068  72.9741621   5.9723377  26.6389799
  68.7976885  73.1465292  15.3805113  69.6559381  72.7867222  15.1565003
  68.3167028  72.4061680  15.7503104   9.1472167   1.4003542  41.3155222
   9.0266562   2.2997472  41.0109043  10.0581133   1.1959343  41.1040688
   9.2357457  59.2673159  33.5730410   9.3944627  59.7738695  34.3695617
   8.8814014  59.9031639  32.9514503  64.0170717  23.8688159  35.9829378
  64.9419022  24.1151333  35.9986997  64.0246296  22.9137015  35.9202266
  58.7789869  65.1097870  24.6347165  59.4279003  64.5025826  24.9903083
  57.9358673  64.7014952  24.8313808  58.0299139  26.7642307   4.4104356
  58.8926744  26.4086270   4.1973129  57.4798536  26.5206075   3.6659133
  26.9684029  38.3490825  61.5808249  26.4120650  38.5691714  60.8336401
  27.0540023  37.3964572  61.5433216   6.2124866  30.3655005  43.8545990
   7.0933300  29.9929571  43.8940763   6.3542634  31.3002849  43.7052345
  28.7752795  13.0189383  17.5683153  28.6219788  13.1617856  16.6343307
  28.4346581  12.1401155  17.7352786  29.6325397  17.9677677  63.4751654
  28.8690853  18.5415959  63.4112215  29.9410248  17.8781831  62.5734758
  56.0936117  10.8415389  14.4546866  55.5688810  10.8890605  15.2538323
  56.0875511  11.7347777  14.1107094  37.0330238  68.7551165  55.8598423
  36.2514448  68.2851362  55.5691767  37.6314807  68.0673313  56.1514521
  77.5394678  45.6322670  18.4680939  76.7583895  45.0820494  18.4097016
  78.2323837  45.0353241  18.7505066  31.9808125  74.3648338  62.5802469
  32.2099209  74.1989470  63.4947014  32.2197485  73.5583496  62.1233797
   9.0555620  16.8933618   9.4364482   8.7681198  16.3372350  10.1605558
   9.7985935  16.4254391   9.0554184  66.2795544  19.2781150  11.3697398
  66.0161114  18.6581612  12.0498037  65.7991791  18.9975667  10.5907881
  55.4426336  24.8145866  61.3658667  55.6625080  23.8829803  61.3665867
  54.5102024  24.8407745  61.5806103  78.7231064  45.3122520   2.9429463
  79.1227388  45.1454735   2.0892990  77.8038502  45.0713348   2.8282383
  26.2153101  21.8048763   1.2309035  25.3507423  21.3984394   1.1712138
  26.5610409  21.5097976   2.0732996  17.4620283  69.0643549  56.4009476
  16.7247188  69.5014286  55.9748363  17.6686466  68.3276463  55.8258009
  63.3178329  23.0807114   9.9441457  63.3587265  22.2950840  10.4894435
  64.2148781  23.4146214   9.9375141  23.3345008  34.6257663  16.9413078
  23.4351611  33.8065195  17.4260068  23.6477733  34.4226432  16.0599267
  69.0965796  68.8541174  13.9009666  69.2981386  68.1540918  14.5219123
  69.9519014  69.1617250  13.6009037  16.3821554  30.6303930  57.8714561
  15.7147670  30.3019404  57.2690058  15.8859801  30.9731054  58.6148167
  78.8057661   3.4762195  50.1946640  78.6583424   3.2104230  51.1023283
  78.1360865   3.0079463  49.6961832  40.8001995  55.3043413   0.9308649
  40.3793812  56.1515760   1.0769656  41.7378092  55.4959106   0.9513847
   4.4885510  19.1636956   0.5429731   4.6378031  18.4987330   1.2151186
   4.7933224  18.7569845  -0.2681567  12.2338724  29.1729426   8.6438876
  11.9859719  28.9909077   7.7374440  13.1234562  28.8284683   8.7226981
   7.1546829  44.9911928  12.4686146   6.5752697  44.6005297  11.8144798
   8.0105251  45.0243425  12.0412195  72.3020840  51.8376398  36.8455482
  71.4808702  52.0133686  37.3048472  72.2188520  50.9331131  36.5436506
  64.9782133  33.9943266  46.2683201  64.4062376  34.6425366  45.8573484
  65.3158760  34.4335032  47.0489216  35.3984094  11.6345465  55.9555340
  36.3213778  11.8848109  55.9139299  35.2626204  11.0903132  55.1799059
   0.7463516  24.6797991  24.3493295   0.9994444  24.2752838  23.5195446
   1.5212548  24.5926571  24.9044538  23.6977577  41.7224455   6.0710377
  23.4243917  41.2607098   6.8636930  23.2489824  42.5665760   6.1187583
  13.0721557  24.2490911  14.3505633  12.2005856  23.9085126  14.1490614
  12.9205477  25.1589870  14.6061814  15.6943548  39.2419696  17.9264998
  15.2122414  40.0663710  17.8620195  16.0346198  39.2328382  18.8211334
  32.9123092  53.8060188  57.7378607  32.9502177  54.2074013  58.6060095
  33.7141109  54.0976572  57.3039341  70.3222418  31.9935966   1.4941181
  70.8352566  31.2784243   1.8703876  69.4465113  31.6249752   1.3781694
  54.2159605   0.8617098  40.8566713  53.6396933   1.4912128  40.4232311
  55.0571489   0.9605143  40.4107285  46.5912008   7.6681542  64.0056372
  45.7823753   8.1270254  64.2325115  46.7330313   7.8752345  63.0819273
  21.8664956  65.1467943  61.5212584  22.7576232  65.2155161  61.1786222
  21.3848424  65.8450222  61.0777283   4.1821986  33.5133338   6.9849300
   3.5589418  34.1707182   6.6756916   4.7709149  33.9957762   7.5653559
  61.7476130  30.2148652  50.0375319  62.1753216  30.9392571  50.4942036
  61.6367483  29.5410037  50.7082415  28.0474496   7.0093054  19.5651877
  28.6229420   6.2447113  19.5442855  27.2443128   6.7164212  19.1345811
  71.2290478  53.1054592   1.8829513  70.7396269  53.9280796   1.8827273
  70.7798290  52.5596809   2.5283659   1.6671637  55.8576536  19.5829165
   1.1802160  55.8919477  20.4062867   1.5293440  56.7182255  19.1871202
  30.7853842  44.3326998  28.3767533  30.0335908  43.8602543  28.0192113
  31.4995575  43.6956453  28.3580709  26.4838839  18.9818966  52.9407120
  26.9041586  18.6862993  53.7483120  25.5473113  18.8688529  53.1028509
  27.3816276  38.9208293  20.0142431  27.9760098  38.1775665  19.9117649
  27.5055575  39.2034602  20.9203291  33.1941414  12.9235256   7.2772926
  33.9734697  13.0596852   6.7384630  33.0050874  11.9889581   7.1931791
  43.2056141  48.0633259  49.3953466  42.5382662  48.6928225  49.6684933
  43.2886600  48.1968641  48.4511566  73.1400919   1.7403209  61.4225960
  73.8425541   2.1654472  61.9145727  72.3988247   1.7252603  62.0280123
  35.3049874  49.3459320  61.2668133  36.2509203  49.4361067  61.3822031
  35.1243091  48.4297609  61.4770937  25.7093048  43.9780045  36.6446495
  25.6323147  43.2032585  36.0878086  24.8450541  44.3876410  36.6059208
   3.1457531  30.1271915  10.1225042   3.7168494  30.0964689   9.3549514
   3.3911601  29.3566513  10.6346321  45.7425833  68.0839825  63.7813663
  44.8815441  68.1971741  64.1838980  46.3288546  67.9043674  64.5163918
  68.7775517  64.3581390   8.1056774  69.7241831  64.3838024   7.9661512
  68.4033918  64.5440769   7.2444791   0.2052804  35.5845475   5.0092411
   1.1018534  35.3957105   5.2862334  -0.1486806  34.7345090   4.7477508
  33.1422901  28.0219483  13.5016108  32.4333501  28.4354949  13.0090499
  33.7983847  27.8038573  12.8396392  50.1645994  12.7193654  26.4634752
  51.0900354  12.5729036  26.6592956  49.8895645  11.9279659  26.0005760
  58.4713364   5.7705796  55.2588844  58.0054426   5.1844209  55.8552027
  59.3187618   5.9160745  55.6795168  41.6556740  28.9585590   6.9367766
  42.3777437  29.0383196   7.5600630  40.8816862  28.8218331   7.4831063
  23.4865093  46.5644932   8.7104702  24.2412686  46.9697618   9.1374665
  23.0018187  47.2987413   8.3334017   0.4270196   0.0486597  58.5903263
  -0.4129863  -0.1014820  59.0240049   0.1987958   0.4913172  57.7728891
  38.0285120   0.2966107  21.8919468  37.2520041   0.7456321  21.5578079
  37.7270842  -0.5909606  22.0858288  29.0132380  47.2711182   0.5734585
  29.0637159  48.0867100   1.0719447  28.1373048  47.2800732   0.1875882
  33.6876082  58.5395002  63.6584616  33.4337354  57.6708603  63.3466148
  33.7698340  58.4389400  64.6068048  38.1769371  72.2127151  55.2004385
  38.2225490  73.1268549  55.4806185  38.7640977  71.7495155  55.7978630
  56.7900419  18.8830817  23.1963754  57.7156496  18.6474812  23.1333613
  56.6432762  19.4765687  22.4598503  24.9143648  18.9138246  27.2089696
  24.7466636  18.3153498  27.9369378  24.3167925  18.6252558  26.5191388
  42.2594309  31.1652255  64.1987753  43.1669474  31.2904263  63.9213419
  42.2960472  31.1875820  65.1550150  46.8234634   0.3286430   1.7258033
  46.5511322   0.7549352   2.5384182  47.0661497  -0.5586480   1.9904736
  30.7025381  74.8641232  48.4415197  29.8681255  74.9763173  47.9861069
  31.1396070  74.1553161  47.9695082  27.6026225  54.4632769  20.0370121
  26.9634652  53.8392067  20.3808808  28.4466290  54.1398335  20.3520823
  21.6225576   9.5541561  49.1840410  21.1967778  10.1271391  48.5463619
  22.3475027  10.0758612  49.5282936  63.2478285  59.2324829  46.3951111
  62.8887939  59.6359158  47.1854115  64.0928221  58.8769150  46.6704082
  55.7730484  59.3675041  52.9308414  55.8890915  60.3025961  53.0992937
  55.3150654  59.3304348  52.0911360  27.0349598  55.6840372  57.6088810
  26.0971856  55.5494595  57.4721289  27.2760248  56.3558769  56.9711113
  16.7299974  25.5826449  46.8961763  15.8397686  25.3772640  46.6106176
  16.8575752  25.0522971  47.6827431  65.8055401  13.0521953  47.2316265
  65.5788708  13.9294100  47.5404119  66.7515326  13.0853486  47.0894051
  29.3086910  36.2531686  17.3839319  29.2130375  35.6076479  16.6836572
  29.3163252  37.0971036  16.9323277   8.5065579  70.5295181  59.5660686
   9.0991342  69.7900009  59.7009897   8.3849704  70.9014797  60.4396200
  66.9035244  23.4761930  25.0057697  67.0328379  22.5293231  25.0600767
  66.0067749  23.6133623  25.3111434  27.7977085  51.5401840  23.2098722
  27.2960210  52.3417854  23.0616426  28.6885333  51.7615175  22.9384375
  17.8599370   3.7578130  23.7327766  18.7396824   3.8429624  24.1002417
  18.0030477   3.4518656  22.8371501  49.3924284  30.2093577  10.0794971
  49.6946287  30.0864172  10.9793830  50.1144075  30.6626821   9.6442097
  31.7851901  40.5141926  10.5960929  31.6318059  39.9356651  11.3430929
  32.5378442  40.1301908  10.1463294  34.7623158  48.1132650  53.3987808
  34.4072890  48.8923216  52.9706907  34.0460563  47.7942753  53.9478207
  65.2684546  32.1096516  19.5735550  64.9720287  32.2070432  18.6686361
  65.4412651  31.1730814  19.6694994  49.9860859  47.0692730   9.7358042
  50.6831503  47.7194262   9.6484590  49.5034170  47.3391056  10.5171192
  65.1087713  63.1141758  52.9629707  65.9163761  63.4064007  53.3855915
  65.3747797  62.3645258  52.4305248  35.8769751   4.1184527  52.0625353
  36.0200810   3.5550195  52.8229952  35.0839281   3.7719563  51.6535759
  19.3113220  41.6222620  12.2913301  19.4655275  42.2964144  12.9531205
  18.4504426  41.8336391  11.9301689  16.2886345  24.6235776   8.4657121
  16.4140546  23.6903524   8.6377406  16.7477882  25.0629020   9.1815346
  36.8909359  42.8237057  14.8319793  36.3666224  43.1385136  15.5683374
  37.5060940  43.5352516  14.6544504  68.1795406   3.4369653  13.1533098
  68.1228638   3.9262128  12.3325431  68.8225651   2.7497730  12.9786062
  29.3009019  27.1371531   6.2424737  28.4781313  26.6940761   6.4497560
  29.4801331  26.8965244   5.3335154  40.3271055  33.9382267   5.6938344
  40.9987497  34.1888881   5.0595683  39.7553515  33.3395815   5.2132583
  65.6562805   2.1856903  28.7634659  66.2842464   2.7581805  29.2040849
  66.1392069   1.8294603  28.0177331  14.0936410   1.4489792  36.1953688
  13.4301341   1.9490029  36.6707277  14.6104455   2.1117637  35.7372618
  34.0104580  45.8112049  56.5999079  33.8505840  46.5606689  56.0263491
  33.3249617  45.8684731  57.2655296  59.3713951   5.6556857   7.0231932
  60.0140285   6.3614398   6.9513232  59.4634199   5.1639408   6.2071359
  20.3210616  51.9572210  14.2704701  19.9832249  52.5013733  14.9818027
  19.7682953  52.1741295  13.5197151  33.3877349  45.2843618   2.1425487
  32.5295353  44.9399662   1.8953383  33.8108039  44.5623064   2.6071745
  26.3452601  47.8524065  31.3932943  26.3041663  48.7989092  31.5299749
  27.1471071  47.7179527  30.8881259  75.4936647  18.2268500  32.5042701
  75.9676600  18.9246678  32.0519304  75.0682068  18.6650538  33.2412887
  23.0766201  42.7777672  16.5741062  23.4718823  43.3276320  17.2506022
  22.1433330  42.9873037  16.6102004   0.9516307  58.7757730  21.3786006
   0.9290763  58.9153385  22.3253012   0.1816149  58.2367611  21.1975527
  11.7933190  35.6086445  17.7765536  11.7200828  36.4814663  17.3904824
  12.3793614  35.7258749  18.5242462  15.5891740  18.3320570  47.4399042
  14.8900461  18.9162922  47.7333689  15.9777045  17.9983866  48.2485723
  12.2219586  38.8046026  22.1438694  11.9369018  39.5380759  21.5988994
  12.4092841  38.1021786  21.5211821  56.5318727  28.0573750  10.5604601
  56.1499023  27.6744723  11.3502181  56.0789871  27.6203632   9.8392481
  69.5246935  66.6831112  54.9273014  68.5931444  66.4730263  54.9929571
  69.9558258  66.0377598  55.4875517  64.1004705  51.7366171   5.1252949
  64.0945053  51.3843870   4.2352775  64.4904661  52.6062059   5.0361276
   6.2849075  50.7374620  43.3017874   7.1597201  51.0554790  43.5249519
   6.4406586  50.0147581  42.6937819  65.1905680   9.2053568  16.9532537
  64.7690535   9.7143793  17.6456773  64.6571350   8.4140360  16.8791485
   1.4035413  20.2148151  15.9854794   2.1822751  19.6594858  15.9478843
   0.9047379  19.9811828  15.2026367  75.2681112  39.3191767  54.4847918
  75.4175425  39.5897865  53.5788822  76.1446238  39.1596437  54.8347950
  67.3308849   7.3646140  17.5376034  67.1422195   8.2989305  17.4499094
  66.9142008   7.1124381  18.3616269  10.3201032  51.5133190  11.2412632
  10.4962194  50.5948639  11.4453554  10.7124734  51.9993448  11.9665611
  38.9753222  47.5122166   3.2405388  38.3792520  47.8301859   2.5624329
  38.4296155  47.4377966   4.0234172  29.8381400  48.0859947   8.5409307
  28.9530063  48.4243679   8.4057474  30.1198459  47.7984095   7.6725018
  58.9678812  66.6864634  52.9985094  59.3128777  67.0970869  52.2056675
  59.7046041  66.1857986  53.3489513  42.4306154   0.7637981  11.0119390
  42.2119188   1.0092898  10.1129746  41.6509295   0.3106943  11.3329101
  10.1337242  20.4230714  35.2973652  10.1300538  21.0681295  34.5901752
   9.3931144  19.8490608  35.1018143  25.0323749  63.4224272  13.4209013
  24.6214676  62.5707817  13.2722759  24.4071198  63.8978338  13.9679635
  74.2826223  34.2806387  55.6623602  74.4627047  33.6463308  54.9684906
  73.9891481  35.0652933  55.1992989  33.7587810  58.8851452  20.6370139
  33.2411981  59.4201899  20.0352979  33.3132601  58.9732695  21.4796138
  11.9230592  20.6039858  29.1355371  11.4162612  19.9294043  29.5875645
  12.5695896  20.1162267  28.6253190  44.8432970  49.8452759   5.6476116
  45.1173544  50.7547140   5.5290926  45.6618357  49.3496418   5.6715709
  39.9008489  60.6190348   0.3375547  40.8550024  60.6779003   0.2890432
  39.6266890  61.4633608   0.6955847  12.8992689  16.1372542  52.2384024
  13.0232632  15.8200645  53.1329679  12.0420980  16.5630555  52.2519112
   9.0832990  53.1222630  17.7653491   9.2410088  53.9471817  18.2245576
   9.0910918  52.4587965  18.4552646  25.5112457  11.4927900  45.1386642
  25.5738044  11.0636449  44.2853451  25.2027893  10.8062088  45.7300091
   1.3659504  50.0571203  30.6442499   1.5899296  49.2931557  30.1128197
   0.4724120  50.2780104  30.3815150  27.1237421  27.0912170  10.9713101
  27.3683643  26.1677027  10.9120226  27.8204489  27.4905682  11.4922237
   8.8936782  30.0126624  25.6507158   8.6999422  29.3595982  24.9782538
   8.6052960  30.8419156  25.2693939   3.4034729  59.5763206  60.5070925
   3.4121579  60.5294132  60.5952406   4.3207321  59.3402052  60.3688288
  48.4171295  26.4035320  63.0854225  48.3677244  27.1914768  63.6266565
  47.5778246  25.9647012  63.2240772  58.1964207  65.1519966  58.2541895
  58.1363058  66.0801744  58.0281258  58.8163376  65.1226330  58.9829350
  12.2609961  15.2919424  30.3790641  12.8889620  14.9995625  31.0396743
  12.0035172  16.1684883  30.6647277  27.0253968  53.0221891  28.1150603
  26.6522121  52.2948503  27.6171207  26.5267611  53.0339241  28.9320397
  71.2969065  36.2513590  62.1781874  71.0210848  37.1491385  62.3629665
  72.0863438  36.1299562  62.7057171  30.4687023  13.2339394   9.5471841
  30.8878398  13.2420456   8.6866659  31.1878395  13.0910397  10.1625323
  18.4718060  38.0092406  62.3019075  18.5183811  37.9193997  63.2537413
  18.3945274  38.9517474  62.1537876  43.8450480  54.8660803  16.4046347
  42.9010391  54.7826481  16.2700403  44.0862226  55.6586313  15.9251213
  56.2232161   4.9626088   6.6257840  57.0531702   4.7796947   6.1853808
  56.2330866   5.9085101   6.7720908  18.6383021  45.7845831  12.7145386
  18.1048703  45.0010872  12.8480315  19.2173028  45.5589390  11.9864762
   9.1601318   2.8020456  62.5889874   9.4628203   2.3640583  63.3844614
   8.5500705   2.1810351  62.1909904  10.9434175  17.6986027  28.2249093
  11.0080445  17.6041961  29.1752481  10.2850294  18.3813977  28.0962706
  55.7427406  33.5762739  29.3848848  56.0370207  32.9776573  30.0713921
  56.4251137  33.5269713  28.7154317  72.3321295  10.5536330  62.5018358
  73.0166435  11.2226057  62.5138807  72.4266481  10.1295686  61.6489220
   3.4508941  29.8221326  42.8235674   4.3881881  29.8318672  43.0175209
   3.2315391  28.8934612  42.7481794  26.6089845  22.8799582  50.0841808
  26.9638872  22.3138666  50.7696104  25.6687713  22.9098368  50.2612019
  61.5729189  54.1237020  11.0362411  61.8913364  54.6873856  11.7412972
  62.3454237  53.9555836  10.4966068  52.3859358   1.2948857  33.0961561
  52.4321938   2.2461429  33.0002284  53.0363035   0.9599979  32.4788189
  28.6668253  43.2873678  26.9424486  28.6979914  42.5236797  26.3662124
  27.7392101  43.3888102  27.1556926  78.8635015  37.9393029  61.7368555
  78.7169695  38.2881546  62.6160955  78.8297176  36.9891167  61.8474770
  70.0663853  53.1809568  18.3822823  70.0760746  53.9622116  17.8293121
  70.6182528  52.5518131  17.9176760  63.4431839  56.5747261  49.7287416
  63.3326006  55.9247208  49.0348434  63.9203978  56.1114120  50.4170942
  57.5194120  12.1926463  55.6385756  56.8150949  12.3049891  56.2769699
  57.3306894  11.3532841  55.2189493  27.6314497   1.1181641  56.4693069
  27.0120049   0.4104655  56.6473103  28.0219269   0.8882625  55.6261539
  45.6962585  46.0263157   3.9585525  45.1366138  46.6022730   3.4376869
  45.9881115  45.3545427   3.3422947  57.5532007  74.2801046  55.5352449
  57.4825811  74.7160673  54.6860170  56.9614840  73.5305738  55.4696321
  26.9543481  55.3581524   7.8761977  26.1905694  55.4469061   8.4462833
  26.5887833  55.1466656   7.0172054  31.6190529  60.7418823  19.9647152
  30.7607794  60.5801582  20.3564358  31.5906477  61.6602612  19.6963751
  77.1657610  50.2776194  26.0016489  76.8169594  49.3888807  26.0703468
  78.0789042  50.1570654  25.7411361  73.9720726  15.8888674  62.1333694
  74.6088266  16.0865331  61.4465618  73.1211805  15.9801173  61.7045546
  67.6640224  55.6274891  29.9550056  68.4831953  55.7049894  29.4659448
  67.6682186  54.7303247  30.2886438  52.3881245   7.7630484  57.6681519
  52.6401424   8.3702719  58.3638525  52.2560072   6.9273847  58.1158638
  17.5431204  26.0169363  58.9765453  18.0723345  25.5070949  59.5899200
  16.7788839  25.4667616  58.8048458  59.3069839  50.8706284  27.7455091
  58.6343193  50.7852983  28.4211373  58.9763260  50.3527355  27.0115614
  42.8288555  29.2061996   9.8004305  43.6494303  29.6922779   9.8817658
  42.2467566  29.6094584  10.4444599  12.3399246  40.6214476   5.7887316
  12.5909293  39.8512030   5.2788740  13.0127096  41.2717915   5.5871272
   7.7584869  50.3628063  38.6268306   7.8686965  51.3115406  38.5636616
   8.1836271  50.0194454  37.8409624  15.7825065   5.2132326   1.7275076
  15.1427698   5.9109581   1.5855603  15.8628333   4.7849175   0.8752604
  56.6717502  56.0342234  64.8841526  56.2704440  56.9032078  64.8912371
  56.1314412  55.5258065  64.2793314  53.6753416   8.8821042  15.6467295
  53.6123562   7.9297924  15.7199907  54.4455004   9.1119045  16.1666143
  14.1652727  21.0794854  51.5853691  13.3853745  21.3436437  51.0973024
  13.9097273  21.1556745  52.5046778  13.0574191  43.2339764  20.0328326
  12.4824953  43.9699268  19.8229003  12.4910188  42.4643040  19.9778509
  43.5551310  26.5704250   7.4265301  43.8726521  27.4051476   7.0820695
  44.2112494  25.9313941   7.1483499  63.8712883  61.0120487  43.4368324
  64.7404242  61.0526514  43.0378485  64.0387201  61.0387087  44.3788958
  34.6442175  36.2333560  60.7668495  34.9824905  36.3960791  59.8863268
  34.9964166  35.3754783  61.0039854  21.6350269  63.4530735  16.4328921
  22.1441245  64.2579651  16.5288484  21.8366337  63.1461000  15.5489492
  64.5477819  68.8110209  13.3980107  64.6945477  67.9150057  13.7010789
  63.7996292  69.1176367  13.9103460  16.3505161  34.2540956   2.7494153
  16.8109655  34.9537110   3.2128358  16.6080606  34.3632650   1.8340001
  47.9119492  44.7276115   7.7347976  48.5192108  45.1226997   7.1092021
  47.1341515  44.5217609   7.2162551  53.2258987  43.6255312  61.4237881
  52.3152494  43.8341379  61.2153959  53.6613703  44.4765282  61.4728308
  75.2183008  62.4832487  16.6210973  74.8904657  61.7963409  16.0406566
  76.1702156  62.3870468  16.5922761  65.3948593  21.1816597  56.3089275
  64.8788309  20.3854465  56.4353657  65.2467775  21.6920018  57.1050739
   7.2279757   0.4762835  50.1548672   6.7938066   1.3092658  50.3389025
   7.2424322   0.4196768  49.1994524  12.1234298  70.7015848  10.5031002
  11.1805403  70.6717539  10.3409183  12.4648333  71.2841988   9.8246932
  18.8949871  14.8588026  52.6682663  19.1941953  14.5764685  53.5325527
  18.0436397  15.2651596  52.8304768  40.5644751  59.3252373  31.1205506
  40.8774328  59.6766806  31.9540858  40.1253080  58.5077047  31.3550878
  28.8656831  21.6166282  54.9794292  29.5558524  21.9785833  54.4236517
  29.0990233  21.8971062  55.8643627  13.6436021  20.9766769  54.4120789
  12.9386878  21.6229033  54.4535208  13.9767873  20.9278965  55.3080940
  61.6952372  61.1180592  22.0310283  62.1977043  60.3039169  22.0613837
  61.1786652  61.0509014  21.2279892   2.6879272   4.5922452  39.0348768
   2.8221625   4.8968399  39.9323368   2.5113481   3.6556759  39.1236997
   6.9479316  49.3432140  41.0961723   6.5518892  48.5542870  40.7260704
   7.5171626  49.6740150  40.4013443  68.5050964   3.7108475  28.1459022
  68.6880827   4.6029732  28.4406209  69.3633032   3.2880467  28.1149936
  56.6512442   8.6504322  48.8637400  56.6493320   8.3700937  47.9485130
  55.8242798   8.3219850  49.2165661  70.3908682  15.9214032  27.5875545
  70.8552408  15.5320108  26.8466353  69.6375561  15.3474271  27.7264953
  51.7766380  29.6272993  52.2927618  51.3379955  30.1234984  51.6016674
  51.3319778  28.7796664  52.2981358  22.9943871   8.9748007  26.8921494
  23.3246422   8.1094491  27.1336651  22.2146749   9.0935415  27.4345326
  23.0549312  69.2818880   8.6523759  23.8364959  69.2227030   8.1029344
  22.4213076  69.7593927   8.1168926   5.9909630   1.1761867  42.1890926
   5.9099764   0.4043294  41.6288185   6.8776345   1.4981245  42.0266056
  61.0679007  25.4922748  39.8746133  60.7492352  26.2769175  40.3207254
  60.8759356  25.6478977  38.9498639  16.4768422  46.8390799  22.0645571
  15.8934784  47.3527145  21.5059018  17.1593463  47.4558020  22.3292708
  57.5345802  55.0925589  59.2497540  58.4195757  55.4551125  59.2893887
  57.5507355  54.5032072  58.4956741  50.7522011  55.9358978  24.9212003
  50.2705574  56.7516232  24.7839141  51.6723728  56.1994505  24.9288416
   9.4772333   1.9397673  37.8950000   8.5394776   2.1291089  37.9265547
   9.5796454   1.1481220  38.4232426  65.3661299  38.1965399  36.6495991
  65.1983023  38.1193352  37.5888038  65.0553846  39.0728235  36.4220047
  38.4729218  65.2837515  21.6721034  37.7625895  64.9252701  21.1399841
  38.0902362  65.3885508  22.5431967   9.1941488  34.5396447  14.5457661
   9.7779155  35.2979159  14.5239699   9.0251380  34.3409419  13.6247969
  32.0133567  60.9785557  11.4309812  31.6224194  61.8267250  11.6407561
  31.4718056  60.3429222  11.8988752  57.6915503   7.8352517   8.2826662
  58.1251192   6.9820249   8.2667631  56.8734884   7.6971465   7.8052449
  28.1340885  62.4847078  38.2431412  27.7173781  61.6828632  38.5587859
  28.9439869  62.1867085  37.8290224  56.4891672  54.5685673   6.7879772
  56.4979124  54.5102262   5.8325970  55.9104300  55.3070498   6.9775510
  37.1655766  68.4196363   0.4105683  36.3146112  68.1416999   0.7494517
  37.0706109  68.3751879  -0.5408744  47.8369856  39.3783021  14.6115065
  48.6867714  39.5860839  15.0000012  47.6754332  38.4685159  14.8613489
  30.3821778  53.1044149  23.4129810  30.2584052  54.0422726  23.2669282
  31.1045861  52.8648996  22.8324699  19.2980289  62.0557976  56.2686110
  18.9607763  62.3225117  57.1238041  19.4077730  62.8762484  55.7879353
   1.7642353  70.6852293   4.2697132   0.8442483  70.5543232   4.4993189
   1.7661846  70.7475281   3.3145446  64.9562931  30.4673553  14.2684996
  64.2021942  30.9243989  13.8961041  65.3433275  30.0007629  13.5277390
  33.2707572  31.5598297  14.4540167  33.8308001  31.0368085  15.0276291
  33.3663869  31.1550617  13.5918987  25.4646468  55.1257086  11.7016912
  26.1099195  55.8320856  11.7314827  24.6381426  55.5461454  11.9390893
  48.9462996  52.8127909   6.6666216  49.4952440  52.2557306   7.2185057
  48.1414223  52.3094893   6.5437698   4.0063652  51.3026142  45.0132227
   3.9098302  52.2257042  44.7790861   4.6121192  50.9519815  44.3602705
  68.3348656  35.9102631  53.7464571  68.2248116  35.6498861  54.6609640
  69.2359161  35.6662965  53.5347414  12.2436202  56.1302042  53.6768007
  11.6864431  55.5224800  53.1905365  12.7979660  56.5336609  53.0088520
  45.9284306  31.2760997   4.0538254  46.2836933  32.1618533   3.9799327
  45.0894499  31.3909984   4.5000762  62.0934391  35.9980464   9.0091884
  61.9592571  36.7254186   9.6167707  62.9974127  36.0987139   8.7109810
  74.3087626  51.1816454  60.3038931  74.6638203  51.2926769  61.1858416
  73.7953711  51.9748735  60.1507664  20.8045912  31.0357451  10.1246941
  21.2335205  31.5145802  10.8338952  19.8860204  31.2993956  10.1789737
  58.8564348  73.7682819  63.6999083  59.0198565  72.8413010  63.8737917
  58.2249498  73.7693405  62.9805660  77.6572180   8.6431462  45.8028078
  77.9133272   7.7256507  45.7087708  76.9589233   8.6310136  46.4573860
  33.0497432  34.1319442  15.3450298  33.1793332  33.2142186  15.1058269
  33.6627388  34.6131778  14.7892606  21.7434430   0.6215535  54.5362139
  22.4089313   1.1461738  54.0910959  21.6841030   1.0029906  55.4121208
  66.4768505  63.2757187  11.1665487  67.4192858  63.2398129  11.0029542
  66.0810137  63.2381868  10.2958393   6.5102196  17.0964348  31.6067195
   6.1178988  16.2836874  31.2877250   6.3990849  17.7153969  30.8850789
  21.8103385  52.5357962   5.3771079  21.3863945  51.9969368   6.0450399
  21.3317919  53.3645058   5.3986955  74.4508028  23.9945650  58.2262135
  74.9161816  24.7975302  58.4605217  73.9331532  23.7824202  59.0029144
  13.0331481  12.5132203  39.8048544  12.3527884  11.9380927  40.1549578
  13.2933867  12.1021795  38.9805055  58.6778784  43.6036205  61.4404440
  58.4464598  44.2957592  60.8210754  58.7893963  44.0572929  62.2758961
  71.6661739  30.1548791  34.3168449  71.7591143  29.5256734  35.0321722
  70.7232809  30.3066015  34.2523146  54.8433018  55.5958652  60.4347181
  54.2483139  54.8474693  60.3886414  55.4608107  55.4554605  59.7169447
  17.9760540  15.1366758  46.3459253  17.3344386  14.8160577  46.9797707
  18.8089144  14.7686875  46.6411543  58.8983727   4.5323938   4.3734750
  58.6826897   3.7865889   3.8135743  59.8477173   4.4816667   4.4848111
  70.3619576  66.9883394  61.0455132  70.2073956  67.8559065  60.6717873
  71.1918306  66.7062330  60.6608629  40.3828573  14.2790568  19.2719841
  40.7408237  14.4344425  20.1460242  40.7447290  14.9847639  18.7360203
  40.9958601  29.0346217  11.9553578  40.5884171  28.1884384  12.1402717
  41.5754938  29.1894460  12.7012062   9.5940155  56.0721540  11.0309267
  10.0292432  55.3391504  10.5955887   8.6605239  55.9147453  10.8893335
   2.5871384  32.1644521  59.6594906   1.9462126  31.6156912  59.2074871
   3.4219480  31.9502473  59.2430258  77.4565172  23.3235192  45.3051519
  77.2349930  23.1616831  46.2221956  76.8444490  22.7781200  44.8110485
  33.1626344  13.3173597  55.4088354  33.4296250  14.1679347  55.7573605
  33.8514876  12.7158082  55.6914139  55.6216574  56.8536234   7.9470205
  54.7048378  56.8530416   8.2221144  56.1166048  56.7799091   8.7630028
  11.3935375  27.3807907  35.8082104  12.0476675  26.6881609  35.9010053
  10.9844303  27.2117186  34.9595189  65.0039816  50.0932693  10.9752893
  65.7061958  49.5821381  10.5729556  65.4349518  50.5819273  11.6765082
  55.7888460  67.0921087  53.6578465  55.4198790  66.2243271  53.8223267
  56.6779041  67.0449162  54.0093851  76.7784357  13.4891438  61.0998106
  75.8743477  13.2150304  60.9458065  76.8901014  14.2654872  60.5511236
   8.3435571  55.7680845  49.0886688   9.0177459  56.3905430  49.3611622
   8.8151777  55.1156139  48.5709000
  79.3070058  79.3070058  79.3070058 109.4712190 109.4712190 109.4712190
